G1.5-PAMAM in water
53982
    1aaa     N1    1   0.612   4.609   2.504  0.4322  0.4621 -0.2650
    1aaa     C1    2   0.547   4.473   2.471 -0.1126 -0.5966  0.5314
    1aaa     C2    3   0.433   4.431   2.567  0.1221 -0.3176  0.7680
    1aaa     N2    4   0.374   4.302   2.520  0.6636 -0.3287 -1.2614
    1aaa     C3    5   0.287   4.326   2.400  0.0388 -0.3120 -0.0164
    1aaa     C4    6   0.297   4.234   2.627 -0.4237 -0.0250 -0.6762
    1aaa     C5    7   0.520   4.722   2.454  0.0996 -0.0919 -0.7997
    1aaa     C6    8   0.752   4.626   2.445  0.5892  0.1048 -0.4181
    1aaa     C7    9   0.375   4.210   2.767 -0.1637 -0.5782  0.5531
    1aaa     C8   10   0.291   4.141   2.874 -0.1180 -0.2298  0.7793
    1aaa     C9   11   0.250   4.193   2.324  0.0170  0.4471 -0.5777
    1aaa    C10   12   0.185   4.236   2.199  0.1900  0.0478 -0.6910
    1aaa    C11   13   0.548   4.864   2.508  0.1354 -0.5284  0.4766
    1aaa    C12   14   0.454   4.978   2.464  0.6278 -0.3343 -0.0962
    1aaa    C13   15   0.839   4.500   2.467 -1.0837  0.3316 -0.3659
    1aaa    C14   16   0.992   4.526   2.460 -0.0960 -0.0795  0.4252
    1aaa     O1   17   0.207   4.345   2.146 -0.2486 -0.2308 -0.5198
    1aaa     O2   18   0.316   4.035   2.921  0.2729 -0.5230 -0.5197
    1aaa     O3   19   1.040   4.623   2.520 -0.0147  0.0787  0.2217
    1aaa     O4   20   0.366   4.965   2.382 -0.0363 -0.7375  0.4918
    1aaa     H1   21   0.622   4.394   2.463  0.2395 -0.2098 -0.0742
    1aaa     H2   22   0.513   4.472   2.367 -1.3303  1.4162  0.8552
    1aaa     H3   23   0.354   4.504   2.580 -1.2751 -1.6874  0.2562
    1aaa     H4   24   0.474   4.405   2.666 -0.8214  0.1307  1.2853
    1aaa     H5   25   0.338   4.395   2.332  0.5665  0.2479  0.9351
    1aaa     H6   26   0.189   4.366   2.428 -0.4132 -0.8728 -0.7342
    1aaa     H7   27   0.209   4.294   2.650  0.4718  0.5781  1.4767
    1aaa     H8   28   0.270   4.134   2.593  0.8016  0.1357 -2.2040
    1aaa     H9   29   0.522   4.714   2.346 -0.6177 -1.6259 -0.7329
    1aaa    H10   30   0.423   4.685   2.487  0.1543  0.4509  0.0025
    1aaa    H11   31   0.741   4.644   2.338 -1.8363  0.8084 -0.1118
    1aaa    H12   32   0.794   4.718   2.488  2.5459 -1.3838  1.0503
    1aaa    H13   33   0.464   4.149   2.746  1.5013  1.0355  2.5492
    1aaa    H14   34   0.409   4.304   2.812 -1.6112  1.7060 -2.7292
    1aaa    H15   35   0.189   4.127   2.387  2.4088 -1.4397 -0.0815
    1aaa    H16   36   0.338   4.137   2.291  0.2920 -0.4504  1.5372
    1aaa    H17   37   0.542   4.861   2.617 -0.8512 -0.1267  0.4467
    1aaa    H18   38   0.650   4.887   2.477  0.0416 -0.4033  0.2564
    1aaa    H19   39   0.839   4.470   2.572 -0.3201  1.6636  0.0462
    1aaa    H20   40   0.811   4.413   2.406  0.1060 -0.4114  0.1188
    1aaa    H37   41   0.612   4.619   2.606  0.6115  1.2583 -0.3380
    1aaa    H38   42   0.442   4.229   2.494 -1.4561 -2.7037 -0.6353
    2bbb     N1   43  -0.175   4.112   3.070  0.1903 -0.3785 -0.4952
    2bbb     C1   44  -0.156   3.965   3.101  0.1427 -0.7438  0.1260
    2bbb     C2   45  -0.321   4.124   3.038 -0.2087 -0.1887  0.3043
    2bbb     C3   46  -0.226   3.904   3.226 -0.3854 -0.2473 -0.1785
    2bbb     C4   47  -0.189   3.759   3.264  0.3688 -0.6769  0.0638
    2bbb     C5   48  -0.381   4.261   3.012  0.5133  0.3544  0.2623
    2bbb     C6   49  -0.529   4.242   2.971 -0.8408  0.0842 -0.2615
    2bbb     C7   50  -0.076   4.165   2.961  0.7807 -0.3757  0.2423
    2bbb     C8   51   0.074   4.143   3.007  0.0206 -0.5734 -0.1207
    2bbb     N2   52   0.172   4.204   2.915 -0.3175  0.1035  0.2670
    2bbb     O1   53  -0.121   3.682   3.205 -0.5984 -0.3542 -0.0932
    2bbb     O2   54  -0.624   4.274   3.042  0.3825  0.0684  0.0472
    2bbb     H1   55  -0.184   3.916   3.007  2.2876  2.5331 -2.4458
    2bbb     H2   56  -0.049   3.948   3.115  0.6244  1.8944 -0.0086
    2bbb     H3   57  -0.378   4.084   3.122  1.8395 -0.4646  1.6261
    2bbb     H4   58  -0.338   4.066   2.947  1.3790  0.5092 -0.4862
    2bbb     H5   59  -0.225   3.961   3.319 -2.1577 -0.3253 -0.0785
    2bbb     H6   60  -0.334   3.911   3.209 -0.5603  1.3285  1.3501
    2bbb     H7   61  -0.331   4.304   2.924  0.5772 -0.5592 -0.1563
    2bbb     H8   62  -0.377   4.334   3.094 -0.8907  0.9557 -0.1761
    2bbb     H9   63  -0.106   4.269   2.945  1.1604 -0.1602  0.8886
    2bbb    H10   64  -0.105   4.118   2.867  0.7037  0.2370 -0.0497
    2bbb    H11   65   0.089   4.036   3.024 -0.6924 -0.8638 -1.2427
    2bbb    H12   66   0.077   4.185   3.109 -0.7790  1.1135 -0.7473
    2bbb    H13   67   0.147   4.284   2.859  1.3187 -1.1150 -2.4392
    2bbb    H25   68  -0.159   4.168   3.155 -1.4360 -1.3571  0.5228
    3bbb     N1   69  -0.213   4.082   1.914  0.0967 -0.4761  0.1452
    3bbb     C1   70  -0.269   4.222   1.935 -0.1067 -0.4013  0.5140
    3bbb     C2   71  -0.312   3.968   1.930 -0.4550  0.0712  0.0419
    3bbb     C3   72  -0.390   4.260   1.847  0.0630 -0.3681 -0.2786
    3bbb     C4   73  -0.374   4.258   1.693 -0.8546 -0.3081  0.1396
    3bbb     C5   74  -0.272   3.836   1.859 -0.3333 -0.2344  0.1008
    3bbb     C6   75  -0.385   3.731   1.872 -0.0677  0.0310  0.3797
    3bbb     C7   76  -0.091   4.054   2.002 -0.1476  0.8287 -0.0565
    3bbb     C8   77  -0.001   4.175   2.043 -0.4698  0.1367 -0.0845
    3bbb     N2   78   0.093   4.146   2.147  0.0090  0.1831  0.7923
    3bbb     O1   79  -0.450   4.200   1.622  0.6621  0.2515 -0.0809
    3bbb     O2   80  -0.475   3.728   1.792  0.2003 -0.3244  0.4343
    3bbb     H1   81  -0.305   4.223   2.038 -1.7634 -0.8463 -0.0293
    3bbb     H2   82  -0.193   4.298   1.921 -0.3638  0.2136  2.2495
    3bbb     H3   83  -0.406   4.005   1.890 -1.9358 -1.9550  1.4350
    3bbb     H4   84  -0.328   3.947   2.036 -0.7449 -0.1421 -0.0436
    3bbb     H5   85  -0.470   4.193   1.881  0.9699 -0.4035  1.9569
    3bbb     H6   86  -0.424   4.361   1.873 -1.2427 -0.7296 -0.4860
    3bbb     H7   87  -0.191   3.788   1.915  1.6545  1.1836 -1.4489
    3bbb     H8   88  -0.253   3.837   1.751 -0.6907 -0.3486  0.0349
    3bbb     H9   89  -0.017   3.991   1.951  1.9196  1.2101  2.3177
    3bbb    H10   90  -0.115   3.997   2.092  0.2473  0.9568  0.1270
    3bbb    H11   91  -0.064   4.250   2.094  0.2459  0.2424  0.6552
    3bbb    H12   92   0.039   4.214   1.948 -1.1380  0.1175 -0.3869
    3bbb    H13   93   0.081   4.058   2.196 -1.6664  0.4811  0.9540
    3bbb    H25   94  -0.187   4.091   1.815 -1.5828  1.5961 -0.1818
    4bbb     N1   95   0.377   5.460   2.616 -0.0100 -0.3535  0.1531
    4bbb     C1   96   0.318   5.511   2.487  0.3440  0.3498  0.2684
    4bbb     C2   97   0.470   5.570   2.671  0.6399 -0.2890 -0.1052
    4bbb     C3   98   0.183   5.582   2.494 -1.1174  0.1995 -0.4727
    4bbb     C4   99   0.152   5.655   2.367  0.3795  0.3390 -0.0018
    4bbb     C5  100   0.516   5.552   2.815  0.4313  0.1303  0.6078
    4bbb     C6  101   0.622   5.657   2.846  0.3458 -0.7871 -0.2216
    4bbb     C7  102   0.459   5.337   2.588 -0.5447 -0.2190  0.2364
    4bbb     C8  103   0.402   5.209   2.518 -0.1810 -0.2113 -0.1532
    4bbb     N2  104   0.493   5.096   2.524  0.5531 -0.1718 -0.2423
    4bbb     O1  105   0.236   5.686   2.283  0.2590  0.0811 -0.2482
    4bbb     O2  106   0.702   5.683   2.763  0.2474 -0.0459  0.0081
    4bbb     H1  107   0.390   5.585   2.450  2.8438 -3.0484 -2.3132
    4bbb     H2  108   0.313   5.428   2.417 -0.5526 -1.6163  2.5293
    4bbb     H3  109   0.419   5.662   2.643 -0.5473 -1.2146 -1.1173
    4bbb     H4  110   0.554   5.556   2.603  0.3878  1.2088 -0.7594
    4bbb     H5  111   0.103   5.511   2.518  0.2378 -1.2282 -0.0323
    4bbb     H6  112   0.180   5.653   2.577 -0.6594 -0.0086 -0.2792
    4bbb     H7  113   0.561   5.453   2.825  2.5997  0.7736 -1.7085
    4bbb     H8  114   0.430   5.568   2.882 -0.1680  1.7103 -0.4724
    4bbb     H9  115   0.513   5.318   2.681  0.7803  2.1482  0.0350
    4bbb    H10  116   0.542   5.369   2.525 -0.7659 -0.2870 -0.0935
    4bbb    H11  117   0.375   5.233   2.414 -0.9342  2.5585  0.5870
    4bbb    H12  118   0.310   5.180   2.571  0.5979 -0.6737  0.9771
    4bbb    H13  119   0.573   5.087   2.584  2.1262 -1.0419 -2.3480
    4bbb    H25  120   0.312   5.441   2.694  1.4037  0.8086  1.6756
    5bbb     N1  121   1.440   4.409   2.245  0.0812  0.1998  0.2235
    5bbb     C1  122   1.509   4.496   2.141  0.0967  0.3892  0.1782
    5bbb     C2  123   1.503   4.272   2.219  0.7918  0.6017 -0.0177
    5bbb     C3  124   1.473   4.641   2.162  0.3646 -0.2784  0.8692
    5bbb     C4  125   1.522   4.730   2.056  0.0836  0.0599 -0.5101
    5bbb     C5  126   1.637   4.244   2.282  0.0530 -0.1723 -0.1234
    5bbb     C6  127   1.670   4.091   2.271  0.1723  0.3960  0.6108
    5bbb     C7  128   1.293   4.405   2.242  0.0149  0.1322 -0.0629
    5bbb     C8  129   1.225   4.480   2.363 -0.4310  0.3956  0.5829
    5bbb     N2  130   1.078   4.443   2.388 -0.0671  0.7426 -0.2895
    5bbb     O1  131   1.484   4.716   1.941 -0.1115 -0.1201  0.2887
    5bbb     O2  132   1.729   4.046   2.175 -0.3410  0.0875 -0.1479
    5bbb     H1  133   1.616   4.476   2.143 -0.2888 -2.5697 -2.1497
    5bbb     H2  134   1.463   4.465   2.046 -2.4795  1.6339  0.8957
    5bbb     H3  135   1.513   4.246   2.114 -1.5791  1.8370 -0.6355
    5bbb     H4  136   1.428   4.200   2.254  0.2361  1.1193 -0.1159
    5bbb     H5  137   1.367   4.667   2.162  0.5472  0.7117 -1.1847
    5bbb     H6  138   1.531   4.669   2.251  2.0862  1.5636 -0.7338
    5bbb     H7  139   1.628   4.269   2.389 -1.2502  0.6870 -0.4093
    5bbb     H8  140   1.714   4.306   2.234  1.2346  0.8392  2.8336
    5bbb     H9  141   1.259   4.301   2.244 -0.8314  0.4062  0.7929
    5bbb    H10  142   1.268   4.442   2.143  1.4902 -1.9034 -1.2694
    5bbb    H11  143   1.221   4.588   2.345 -1.9937  0.3106  0.2776
    5bbb    H12  144   1.280   4.466   2.456  1.6318 -1.0829 -0.7696
    5bbb    H13  145   1.042   4.363   2.338  0.4083  0.3559 -0.0281
    5bbb    H25  146   1.467   4.440   2.339 -0.8477 -0.6437  0.7824
    6bbb     N1  147  -0.285   3.548   3.736  0.4743  0.4459  0.0487
    6bbb     C1  148  -0.168   3.598   3.816  1.3464  0.0061 -0.0016
    6bbb     C2  149  -0.250   3.410   3.686  0.0949 -0.0632 -0.3019
    6bbb     C3  150  -0.214   3.704   3.913 -0.1764  0.2819 -0.4806
    6bbb     C4  151  -0.094   3.758   3.992  0.2135  0.1330 -0.0252
    6bbb     C5  152  -0.265   3.298   3.796  0.2945 -0.2530  0.7025
    6bbb     C6  153  -0.253   3.151   3.746 -0.3987  0.2644  0.3681
    6bbb     C7  154  -0.314   3.626   3.608 -0.6358  0.2076 -0.1761
    6bbb     C8  155  -0.218   3.624   3.480  0.5325 -0.4005 -0.6047
    6bbb     N2  156  -0.247   3.735   3.390 -0.0333 -0.2569 -0.8560
    6bbb     O1  157  -0.036   3.861   3.961  0.3536 -0.0193  0.4340
    6bbb     O2  158  -0.154   3.108   3.680  0.3282 -0.4234  0.4393
    6bbb     H1  159  -0.140   3.507   3.871 -1.0101  0.4306  2.1172
    6bbb     H2  160  -0.095   3.638   3.746 -0.2608  1.6127 -0.8396
    6bbb     H3  161  -0.143   3.404   3.662  0.1961 -0.6177  0.2693
    6bbb     H4  162  -0.307   3.392   3.595  1.6350  0.4337 -1.4114
    6bbb     H5  163  -0.266   3.789   3.867  2.4639  2.0046 -0.4960
    6bbb     H6  164  -0.271   3.653   3.992  0.0196  1.1453  0.2301
    6bbb     H7  165  -0.366   3.310   3.836 -0.4599 -0.6459 -0.9759
    6bbb     H8  166  -0.197   3.311   3.881  0.7745  0.3292  0.2381
    6bbb     H9  167  -0.334   3.728   3.642  0.7441  0.7946 -1.0601
    6bbb    H10  168  -0.416   3.602   3.576 -0.9365  3.3312 -2.0185
    6bbb    H11  169  -0.229   3.526   3.433 -1.7371 -1.5947  2.1479
    6bbb    H12  170  -0.115   3.641   3.516 -0.8427 -0.7105  4.1891
    6bbb    H13  171  -0.303   3.812   3.423  0.9931 -0.4031  1.4160
    6bbb    H25  172  -0.376   3.548   3.785 -0.1378  2.7552 -0.9128
    7bbb     N1  173  -0.881   4.079   2.728  0.2950  0.1609 -0.4258
    7bbb     C1  174  -0.854   4.012   2.596 -0.7126 -0.2966 -0.1045
    7bbb     C2  175  -0.961   4.205   2.707 -0.0992  0.2950 -1.0378
    7bbb     C3  176  -0.749   3.899   2.597  0.0745  0.0153 -0.6219
    7bbb     C4  177  -0.795   3.769   2.654  0.3012  0.7685 -0.5676
    7bbb     C5  178  -0.994   4.304   2.819  0.5940 -0.3640  0.7166
    7bbb     C6  179  -1.081   4.422   2.764 -1.2800  0.3657  0.1391
    7bbb     C7  180  -0.764   4.108   2.820  0.0817 -0.0047 -0.2843
    7bbb     C8  181  -0.665   4.203   2.764 -1.1819 -0.2161 -0.1592
    7bbb     N2  182  -0.537   4.198   2.839  0.0858 -0.0621 -0.0370
    7bbb     O1  183  -0.912   3.727   2.651 -0.4120 -0.3908 -0.2134
    7bbb     O2  184  -1.030   4.496   2.675  0.2994  0.0363  0.3745
    7bbb     H1  185  -0.950   3.975   2.560 -1.8995  2.1111  0.3573
    7bbb     H2  186  -0.822   4.088   2.523  1.0930 -0.1279  0.8045
    7bbb     H3  187  -1.049   4.166   2.656 -1.2607  1.5941 -0.0889
    7bbb     H4  188  -0.908   4.259   2.628  0.4919  0.3860 -0.5850
    7bbb     H5  189  -0.719   3.879   2.493 -0.3102 -0.5612 -0.6215
    7bbb     H6  190  -0.654   3.927   2.645  0.2546 -1.9919  0.2832
    7bbb     H7  191  -0.910   4.360   2.862 -0.1373  1.9014 -0.6835
    7bbb     H8  192  -1.055   4.254   2.895 -0.5570 -1.3875 -0.8203
    7bbb     H9  193  -0.723   4.015   2.860  0.7261 -0.6817 -2.3848
    7bbb    H10  194  -0.811   4.157   2.905  1.5431  2.0927 -0.6211
    7bbb    H11  195  -0.694   4.308   2.776 -0.5754 -0.0422 -0.1754
    7bbb    H12  196  -0.643   4.168   2.662 -0.9992  2.7298 -1.2328
    7bbb    H13  197  -0.457   4.174   2.782 -0.0887  0.5588 -0.5625
    7bbb    H25  198  -0.939   4.015   2.785 -0.1366  0.5006 -0.4794
    8bbb     N1  199  -0.146   4.504   1.324 -0.1288  0.1072  0.1355
    8bbb     C1  200  -0.051   4.394   1.268  0.9244  0.1520  0.6941
    8bbb     C2  201  -0.091   4.639   1.281 -0.7801 -0.1058  0.0666
    8bbb     C3  202  -0.046   4.398   1.110  0.2599 -0.2844 -0.8090
    8bbb     C4  203  -0.001   4.260   1.056  0.1024 -0.5700  0.3645
    8bbb     C5  204  -0.178   4.762   1.300 -0.2074 -0.3853 -0.4123
    8bbb     C6  205  -0.131   4.891   1.233  0.1824  0.6766 -0.4837
    8bbb     C7  206  -0.166   4.488   1.471  0.1915 -0.4893  0.1408
    8bbb     C8  207  -0.258   4.370   1.502 -0.8641 -0.4386 -0.1838
    8bbb     N2  208  -0.275   4.340   1.643 -0.2176  0.3095  0.5226
    8bbb     O1  209   0.056   4.180   1.130  0.2180 -0.2619 -0.0672
    8bbb     O2  210  -0.125   4.995   1.297 -0.2492 -0.3140 -0.4570
    8bbb     H1  211   0.039   4.372   1.327  1.1505 -0.1489  0.2402
    8bbb     H2  212  -0.111   4.304   1.284 -0.8512  0.7329 -2.0469
    8bbb     H3  213  -0.067   4.627   1.175  0.6229  1.3698  0.1615
    8bbb     H4  214  -0.005   4.653   1.347 -1.8484  0.8416  1.3085
    8bbb     H5  215  -0.151   4.418   1.085  0.0288 -1.8439 -1.2014
    8bbb     H6  216   0.023   4.478   1.083  0.2223  0.6436  1.6115
    8bbb     H7  217  -0.183   4.778   1.409 -0.7394 -2.8545 -0.0165
    8bbb     H8  218  -0.278   4.734   1.264  0.2404 -1.1040 -1.1205
    8bbb     H9  219  -0.199   4.584   1.511  0.3913 -0.6862  0.7924
    8bbb    H10  220  -0.068   4.467   1.513  1.5774  2.4744 -1.2748
    8bbb    H11  221  -0.217   4.281   1.454  1.6403 -0.6496  2.0988
    8bbb    H12  222  -0.354   4.390   1.453  0.6785 -0.3226 -3.4368
    8bbb    H13  223  -0.226   4.396   1.711  0.2256  0.5126  0.0427
    8bbb    H25  224  -0.238   4.497   1.278 -1.5129 -1.0569  2.8711
    9bbb     N1  225  -0.531   3.306   1.916 -0.4718 -0.7776 -0.5409
    9bbb     C1  226  -0.499   3.222   2.042 -0.5734 -0.0678 -0.5917
    9bbb     C2  227  -0.528   3.218   1.796  0.0481 -0.1365  0.4618
    9bbb     C3  228  -0.362   3.152   2.064  0.0342 -0.0589  0.3221
    9bbb     C4  229  -0.362   3.006   2.114 -0.1460 -0.6090 -0.3104
    9bbb     C5  230  -0.641   3.116   1.779 -0.3490 -0.0159 -0.0958
    9bbb     C6  231  -0.625   3.048   1.640 -0.4444  0.4358  1.2738
    9bbb     C7  232  -0.435   3.423   1.896 -0.0228  0.1583 -0.1846
    9bbb     C8  233  -0.465   3.534   1.998  0.5227 -0.1229  0.0041
    9bbb     N2  234  -0.376   3.651   1.981  0.0303  0.6482 -0.1821
    9bbb     O1  235  -0.463   2.937   2.130  0.6048  0.5047  0.4570
    9bbb     O2  236  -0.607   3.104   1.533 -0.3139 -0.1118 -0.9964
    9bbb     H1  237  -0.511   3.286   2.130 -1.3276 -0.0986 -0.6721
    9bbb     H2  238  -0.570   3.140   2.052  0.8722 -1.1825  1.1932
    9bbb     H3  239  -0.435   3.161   1.796 -0.4469 -0.9525  0.5349
    9bbb     H4  240  -0.531   3.280   1.706 -1.4719 -0.7157  0.0964
    9bbb     H5  241  -0.296   3.171   1.979 -0.4535  1.5537  0.2721
    9bbb     H6  242  -0.319   3.200   2.153 -2.0830  1.1493  0.7502
    9bbb     H7  243  -0.745   3.150   1.786 -0.7812 -1.5937  2.1826
    9bbb     H8  244  -0.626   3.028   1.843  3.2022 -1.7016 -2.8625
    9bbb     H9  245  -0.453   3.465   1.797  0.8140 -0.4330 -0.6028
    9bbb    H10  246  -0.333   3.386   1.905  0.4183  1.8633  3.4421
    9bbb    H11  247  -0.447   3.494   2.099 -2.4352 -2.2248 -0.1821
    9bbb    H12  248  -0.571   3.560   2.001  0.7061  0.6194  3.2283
    9bbb    H13  249  -0.303   3.657   2.051 -0.2230  1.5082  0.0211
    9bbb    H25  250  -0.624   3.347   1.932 -0.9420 -1.6530 -0.9382
   10bbb     N1  251  -0.222   5.926   2.178 -0.3142  0.3120 -1.0597
   10bbb     C1  252  -0.218   6.077   2.219 -0.0925  0.1278  0.8737
   10bbb     C2  253  -0.363   5.874   2.148  0.2483  0.1224 -0.5907
   10bbb     C3  254  -0.080   6.147   2.228 -0.1785  0.0987 -0.3908
   10bbb     C4  255   0.002   6.154   2.095 -0.0058  1.3211  0.3768
   10bbb     C5  256  -0.471   5.905   2.259 -0.2181 -0.2620 -0.6744
   10bbb     C6  257  -0.612   5.848   2.233  0.2632  0.3722 -0.4823
   10bbb     C7  258  -0.163   5.844   2.295  0.3664  0.4146  0.6048
   10bbb     C8  259  -0.040   5.760   2.241  0.0626  0.2396  1.2618
   10bbb     N2  260   0.025   5.694   2.357  0.8825  0.6720  0.7226
   10bbb     O1  261   0.072   6.059   2.060 -0.3488 -0.3962  0.0292
   10bbb     O2  262  -0.696   5.907   2.167 -0.8780  0.2202  0.4019
   10bbb     H1  263  -0.268   6.109   2.128  2.1357 -0.6956 -0.7170
   10bbb     H2  264  -0.286   6.096   2.302 -2.3453 -1.8700 -0.3777
   10bbb     H3  265  -0.353   5.766   2.138  0.9782  0.2941 -2.0606
   10bbb     H4  266  -0.395   5.907   2.049 -0.4502 -3.0573 -1.5357
   10bbb     H5  267  -0.103   6.244   2.273 -2.9727 -1.2304  1.3377
   10bbb     H6  268  -0.007   6.093   2.291  0.0622  0.2742 -0.5191
   10bbb     H7  269  -0.492   6.012   2.259 -1.1047 -0.4203 -1.8105
   10bbb     H8  270  -0.444   5.875   2.361  1.6245  2.4351 -0.2672
   10bbb     H9  271  -0.232   5.768   2.333  1.0493 -0.0832  0.8745
   10bbb    H10  272  -0.142   5.922   2.369  0.1869 -0.2757  1.3961
   10bbb    H11  273   0.029   5.827   2.189  0.6174 -0.4221  1.1157
   10bbb    H12  274  -0.070   5.686   2.166  0.4449 -0.6196  1.9311
   10bbb    H13  275  -0.036   5.673   2.435 -0.0184  3.2924  0.8164
   10bbb    H25  276  -0.174   5.909   2.088  0.3142 -1.4245 -0.4529
   11bbb     N1  277   0.674   6.052   3.137 -0.0416 -0.4666  0.1147
   11bbb     C1  278   0.560   6.153   3.161 -0.3114 -0.7321 -0.0718
   11bbb     C2  279   0.788   6.109   3.055  1.0884  0.0891  0.0473
   11bbb     C3  280   0.468   6.126   3.282 -0.0862 -0.9217  0.2313
   11bbb     C4  281   0.546   6.135   3.412 -0.0454  0.1659  0.0665
   11bbb     C5  282   0.868   6.215   3.136 -0.3393 -0.5490 -0.0466
   11bbb     C6  283   0.976   6.281   3.049 -0.4138 -0.0272 -0.9443
   11bbb     C7  284   0.609   5.929   3.072  0.0869 -0.1048  0.1282
   11bbb     C8  285   0.707   5.816   3.024 -0.0998 -0.4009  0.1091
   11bbb     N2  286   0.630   5.701   2.974 -0.4670 -0.5480 -0.7475
   11bbb     O1  287   0.653   6.190   3.422  0.5867 -0.2497 -0.4574
   11bbb     O2  288   0.962   6.396   3.010 -0.0312 -0.0277  0.1107
   11bbb     H1  289   0.606   6.251   3.176 -0.5416 -0.4718 -0.9924
   11bbb     H2  290   0.503   6.160   3.068 -1.2883  1.9966  0.6330
   11bbb     H3  291   0.743   6.157   2.968 -0.5644  1.2994  1.5001
   11bbb     H4  292   0.854   6.026   3.029 -0.2532 -1.7072  2.0093
   11bbb     H5  293   0.396   6.207   3.298  0.8833  0.3402 -1.3965
   11bbb     H6  294   0.422   6.027   3.272  1.8385 -1.8763  0.1713
   11bbb     H7  295   0.912   6.174   3.228 -0.4329  0.0297  0.2617
   11bbb     H8  296   0.816   6.296   3.188  1.1735 -0.2027  1.0171
   11bbb     H9  297   0.544   5.968   2.994  0.0308 -1.0341 -0.2956
   11bbb    H10  298   0.538   5.897   3.148 -2.4137  0.1912 -1.9659
   11bbb    H11  299   0.769   5.784   3.109  1.3759 -1.1980 -1.2047
   11bbb    H12  300   0.774   5.856   2.947  0.9204 -0.1100  1.1160
   11bbb    H13  301   0.545   5.680   3.025 -0.8533  0.9878 -0.7069
   11bbb    H25  302   0.718   6.021   3.224  0.8451  0.5585  0.0580
   12bbb     N1  303   1.838   5.006   2.194 -0.4622 -0.1508  0.4511
   12bbb     C1  304   1.873   5.136   2.263 -0.7428  0.8874 -0.3057
   12bbb     C2  305   1.967   4.957   2.115  0.1148  0.3299  0.7998
   12bbb     C3  306   1.780   5.186   2.375 -0.1672  0.0337  0.4904
   12bbb     C4  307   1.844   5.249   2.501 -0.3751  0.1787  0.7803
   12bbb     C5  308   2.072   4.891   2.204 -0.0982 -0.0407 -1.2274
   12bbb     C6  309   2.177   4.815   2.132  0.2633  0.4726  0.7274
   12bbb     C7  310   1.723   5.044   2.095 -0.2777 -0.1260  0.2629
   12bbb     C8  311   1.659   4.925   2.011 -0.0354 -0.0960 -0.2726
   12bbb     N2  312   1.609   4.825   2.099 -0.0591  0.5004  0.3760
   12bbb     O1  313   1.960   5.236   2.531  0.2628 -0.0342 -0.2221
   12bbb     O2  314   2.164   4.695   2.104 -0.1500 -0.5515  0.0401
   12bbb     H1  315   1.970   5.120   2.310 -1.0814  1.4714  0.6206
   12bbb     H2  316   1.890   5.215   2.190 -0.1731  0.3903 -0.7224
   12bbb     H3  317   2.005   5.047   2.066  1.1282 -0.3035  0.4197
   12bbb     H4  318   1.922   4.906   2.030 -1.5735  2.4571  0.2893
   12bbb     H5  319   1.721   5.261   2.321  1.2283 -0.8947 -2.5032
   12bbb     H6  320   1.709   5.109   2.406  0.6507 -1.7521 -1.8191
   12bbb     H7  321   2.021   4.813   2.263  1.4266  0.2029  0.5155
   12bbb     H8  322   2.123   4.946   2.284 -0.4563 -1.3207 -0.0651
   12bbb     H9  323   1.757   5.130   2.038  0.7701 -0.4241  0.4266
   12bbb    H10  324   1.641   5.080   2.159 -1.3550  0.1082 -1.1913
   12bbb    H11  325   1.732   4.881   1.942 -1.8427 -0.6008 -1.9594
   12bbb    H12  326   1.578   4.963   1.947 -0.3387 -0.4788 -0.1219
   12bbb    H13  327   1.640   4.821   2.196 -0.6154  1.7910  0.6316
   12bbb    H25  328   1.805   4.929   2.253 -0.6187 -1.9013 -1.8125
   13bbb     N1  329   1.555   3.673   2.529  0.2164  0.9001 -0.2186
   13bbb     C1  330   1.471   3.632   2.647 -0.6435 -0.5069  0.4349
   13bbb     C2  331   1.701   3.620   2.535  0.4180 -0.4585 -0.3117
   13bbb     C3  332   1.323   3.666   2.651  0.2984  0.1183 -0.4425
   13bbb     C4  333   1.257   3.618   2.786  0.1946 -0.1288  0.2351
   13bbb     C5  334   1.712   3.464   2.533  0.3834  0.4347 -0.0151
   13bbb     C6  335   1.861   3.421   2.533  0.5500 -0.1067 -0.0969
   13bbb     C7  336   1.554   3.826   2.502  0.0121  0.3452  0.2554
   13bbb     C8  337   1.595   3.868   2.362  0.0502 -0.2879 -0.5211
   13bbb     N2  338   1.609   4.013   2.359 -0.6159 -0.5556 -0.1160
   13bbb     O1  339   1.329   3.599   2.884 -0.2950 -0.1917 -0.0325
   13bbb     O2  340   1.957   3.498   2.526 -0.2079 -0.4778  0.3807
   13bbb     H1  341   1.475   3.523   2.655 -0.8808 -0.4461  1.5508
   13bbb     H2  342   1.511   3.679   2.737  0.0601  0.0878 -0.1814
   13bbb     H3  343   1.750   3.660   2.624  0.7157 -0.4859 -0.4634
   13bbb     H4  344   1.761   3.660   2.453  2.4785  3.3520  2.7084
   13bbb     H5  345   1.305   3.773   2.637 -2.2843 -0.0070  1.2882
   13bbb     H6  346   1.274   3.607   2.573 -1.2112 -1.0427  1.3086
   13bbb     H7  347   1.672   3.432   2.436 -0.3035  1.1524  0.0220
   13bbb     H8  348   1.651   3.418   2.611  0.9786  1.1037  0.8618
   13bbb     H9  349   1.618   3.882   2.571  0.9954  0.1948 -0.5211
   13bbb    H10  350   1.456   3.870   2.520  0.4571  1.7777 -0.6347
   13bbb    H11  351   1.521   3.843   2.285 -0.3966  0.1943 -0.2459
   13bbb    H12  352   1.694   3.820   2.350  1.5144  2.4720 -0.2061
   13bbb    H13  353   1.558   4.060   2.433 -0.7679 -1.8046  0.6106
   13bbb    H25  354   1.508   3.625   2.452 -1.9401 -0.2129  1.6596
   14bbb     N1  355   0.228   3.639   4.363  0.0655 -0.1543 -0.0165
   14bbb     C1  356   0.301   3.511   4.406 -0.7662 -0.4676 -0.3822
   14bbb     C2  357   0.194   3.732   4.477 -0.2367 -0.2655  0.6085
   14bbb     C3  358   0.404   3.466   4.295 -0.4555  0.2864  0.2396
   14bbb     C4  359   0.493   3.351   4.359  0.1003  0.4707  0.5099
   14bbb     C5  360   0.152   3.672   4.618  0.8321 -0.1134  0.1265
   14bbb     C6  361   0.170   3.780   4.727 -0.3153  0.5129  0.5665
   14bbb     C7  362   0.105   3.610   4.297  0.6776 -0.8349  0.4691
   14bbb     C8  363   0.039   3.730   4.218  0.1360  0.1950  0.3608
   14bbb     N2  364  -0.045   3.677   4.101  0.4710 -0.5192 -0.0230
   14bbb     O1  365   0.508   3.351   4.480  0.1797  0.5240  0.3182
   14bbb     O2  366   0.154   3.897   4.698  0.0168  0.3512 -0.8967
   14bbb     H1  367   0.363   3.523   4.495  0.6331  0.5684 -1.4473
   14bbb     H2  368   0.224   3.436   4.423  0.2761 -1.5790 -0.4013
   14bbb     H3  369   0.111   3.794   4.444  0.9559  0.4639 -1.2043
   14bbb     H4  370   0.284   3.790   4.496 -0.4350 -0.2579  1.5908
   14bbb     H5  371   0.333   3.427   4.221 -0.3277  1.9701 -0.8047
   14bbb     H6  372   0.469   3.537   4.244  0.4774 -1.5026 -1.1887
   14bbb     H7  373   0.223   3.595   4.649 -0.0815 -0.9633  0.1378
   14bbb     H8  374   0.053   3.624   4.617  1.0761 -0.6089 -0.3655
   14bbb     H9  375   0.043   3.578   4.381  1.0842 -0.0265  1.0912
   14bbb    H10  376   0.126   3.534   4.222  1.6385 -1.0220  0.9003
   14bbb    H11  377   0.112   3.788   4.160 -1.1243 -1.5581 -3.3579
   14bbb    H12  378  -0.008   3.799   4.288  0.7803  0.1571  0.8295
   14bbb    H13  379  -0.086   3.585   4.109  0.7933 -0.6707 -0.0914
   14bbb    H25  380   0.290   3.694   4.301 -1.2783  0.1041 -1.1722
   15bbb     N1  381  -0.370   2.907   3.543 -0.0608 -0.6668  0.1161
   15bbb     C1  382  -0.470   2.904   3.425  0.1201 -0.0208 -0.2838
   15bbb     C2  383  -0.239   2.846   3.501  0.7137 -0.1520 -0.1142
   15bbb     C3  384  -0.616   2.925   3.464 -0.0024  0.3756  0.3246
   15bbb     C4  385  -0.711   2.918   3.341  0.8006 -0.3623 -0.6154
   15bbb     C5  386  -0.168   2.915   3.390 -0.5296 -0.5001 -0.0042
   15bbb     C6  387  -0.023   2.891   3.405 -0.1893  0.0511  0.2718
   15bbb     C7  388  -0.418   2.860   3.677  0.2390 -0.3336 -0.0863
   15bbb     C8  389  -0.335   2.911   3.795  0.0942  0.4279  0.9350
   15bbb     N2  390  -0.352   3.060   3.794  0.1776 -0.0633  0.1445
   15bbb     O1  391  -0.754   3.022   3.289 -0.2579 -0.1162 -0.2177
   15bbb     O2  392   0.030   2.786   3.431  0.2253  0.5463 -0.6979
   15bbb     H1  393  -0.449   2.975   3.346 -3.0860  1.7747  0.2953
   15bbb     H2  394  -0.448   2.812   3.372 -1.7826 -0.1941 -0.8417
   15bbb     H3  395  -0.269   2.745   3.474 -2.6796 -0.0414  2.5132
   15bbb     H4  396  -0.170   2.845   3.587 -0.8239  0.8879  1.1910
   15bbb     H5  397  -0.652   2.850   3.535 -1.4651 -0.2258 -0.9770
   15bbb     H6  398  -0.626   3.023   3.511 -1.6714  0.5446 -0.2977
   15bbb     H7  399  -0.194   3.022   3.384 -1.8348 -0.8745 -2.1482
   15bbb     H8  400  -0.184   2.875   3.289  1.3648  1.0038 -0.9780
   15bbb     H9  401  -0.407   2.752   3.682  0.5617 -0.2844  0.2732
   15bbb    H10  402  -0.523   2.882   3.696  0.5228  0.4340  0.6193
   15bbb    H11  403  -0.232   2.880   3.776  0.0900  0.1806  1.3234
   15bbb    H12  404  -0.383   2.863   3.881 -1.5272 -1.2199 -0.7768
   15bbb    H13  405  -0.421   3.091   3.862 -0.0083  0.0636 -0.0979
   15bbb    H25  406  -0.354   3.006   3.566 -3.2764 -0.3567  1.4735
   16bbb     N1  407  -0.851   3.581   2.972 -0.6735  0.0020  0.2284
   16bbb     C1  408  -0.849   3.636   3.113 -0.0362 -0.8424 -0.0077
   16bbb     C2  409  -0.917   3.443   2.964  0.7940  0.7353  0.3871
   16bbb     C3  410  -0.829   3.785   3.123 -0.1082  0.3966 -0.2739
   16bbb     C4  411  -0.946   3.862   3.063  0.6004  1.2269 -0.0263
   16bbb     C5  412  -1.072   3.430   2.992  0.7331 -0.1867 -0.2738
   16bbb     C6  413  -1.167   3.461   2.874 -0.4219  0.5996 -0.3427
   16bbb     C7  414  -0.716   3.567   2.924  0.0996 -0.2711  0.6917
   16bbb     C8  415  -0.698   3.556   2.774  0.8437  0.5794  0.4843
   16bbb     N2  416  -0.694   3.689   2.703 -0.5834  0.0351 -0.2785
   16bbb     O1  417  -0.945   3.890   2.939 -0.1041 -0.0769  0.3408
   16bbb     O2  418  -1.159   3.577   2.825 -0.1838 -0.1024 -0.8702
   16bbb     H1  419  -0.947   3.609   3.153 -0.1308 -0.8282 -0.2331
   16bbb     H2  420  -0.769   3.584   3.165 -0.5058 -0.6040  0.9850
   16bbb     H3  421  -0.882   3.382   3.047  1.5156  1.8615  0.9497
   16bbb     H4  422  -0.889   3.396   2.870  0.9279  0.0355  0.7712
   16bbb     H5  423  -0.817   3.805   3.230  0.3512 -0.1984 -0.2129
   16bbb     H6  424  -0.743   3.816   3.062  0.3165 -1.1356 -0.4945
   16bbb     H7  425  -1.093   3.497   3.077  1.9658 -1.5289  1.1577
   16bbb     H8  426  -1.094   3.331   3.034 -1.1706 -0.8421 -2.6164
   16bbb     H9  427  -0.667   3.482   2.970  0.2817 -0.8817 -0.5988
   16bbb    H10  428  -0.664   3.651   2.970  0.3717 -0.0086 -0.0763
   16bbb    H11  429  -0.775   3.493   2.728  2.1043  0.5442 -1.7507
   16bbb    H12  430  -0.602   3.506   2.756  0.5678  0.5600 -1.0659
   16bbb    H13  431  -0.602   3.725   2.681  0.1421 -2.0267 -0.8769
   16bbb    H25  432  -0.902   3.651   2.918  2.4979  1.7354 -0.7690
   17bbb     N1  433  -1.551   4.607   2.748  0.0779 -0.4402  0.1152
   17bbb     C1  434  -1.520   4.758   2.775  0.1589  0.3568 -0.7080
   17bbb     C2  435  -1.693   4.562   2.803 -0.1664 -0.2052 -0.4749
   17bbb     C3  436  -1.510   4.801   2.926 -0.4432 -0.3760 -0.5022
   17bbb     C4  437  -1.486   4.958   2.935 -0.3597  0.6062 -0.0856
   17bbb     C5  438  -1.808   4.640   2.737  0.5603  0.8999  0.0383
   17bbb     C6  439  -1.948   4.574   2.732  0.3725  0.0143  0.5210
   17bbb     C7  440  -1.445   4.513   2.804  0.0620 -0.1997 -0.0159
   17bbb     C8  441  -1.304   4.537   2.744 -0.4343  0.5136  0.1405
   17bbb     N2  442  -1.207   4.439   2.809  0.3221 -0.4583  0.3533
   17bbb     O1  443  -1.492   5.024   2.838 -0.2810  0.0308  0.8852
   17bbb     O2  444  -1.981   4.471   2.789  0.0112  0.0833 -0.1352
   17bbb     H1  445  -1.434   4.795   2.720 -2.1685  1.3572 -3.9839
   17bbb     H2  446  -1.598   4.820   2.730 -1.0781 -0.9640 -0.4950
   17bbb     H3  447  -1.687   4.577   2.910  1.1905 -2.0982 -0.2375
   17bbb     H4  448  -1.710   4.454   2.796  0.0120 -0.2916  0.3332
   17bbb     H5  449  -1.598   4.763   2.978 -0.6120 -2.2140 -2.0107
   17bbb     H6  450  -1.418   4.761   2.970  0.4864  3.1540  1.1153
   17bbb     H7  451  -1.779   4.651   2.632 -0.2363 -0.1693 -0.3016
   17bbb     H8  452  -1.811   4.738   2.787  1.6529  0.0847  1.7687
   17bbb     H9  453  -1.473   4.408   2.795 -0.9514  0.1369 -0.9566
   17bbb    H10  454  -1.434   4.549   2.906  0.8304  2.7656 -1.0446
   17bbb    H11  455  -1.271   4.641   2.755 -0.0628  0.4481 -0.3098
   17bbb    H12  456  -1.311   4.526   2.635 -2.5507 -1.0366  0.3674
   17bbb    H13  457  -1.244   4.378   2.881 -3.0849  1.0453  0.0797
   17bbb    H25  458  -1.539   4.595   2.646  0.3792 -0.6122  0.1706
   18bbb     N1  459  -0.096   4.137   0.640 -0.4830 -0.0935  0.3345
   18bbb     C1  460  -0.074   4.109   0.495 -0.5815 -0.3789 -0.1211
   18bbb     C2  461  -0.237   4.115   0.678  0.5080 -0.1535 -0.1350
   18bbb     C3  462  -0.151   4.188   0.385 -0.2823 -0.5855 -0.6352
   18bbb     C4  463  -0.112   4.152   0.237  0.0771 -0.5444  0.1620
   18bbb     C5  464  -0.293   3.973   0.666  0.0676  0.1402 -0.3335
   18bbb     C6  465  -0.443   3.982   0.690  0.1378  0.3279 -0.2163
   18bbb     C7  466  -0.046   4.278   0.676 -0.2698 -0.3201  1.1734
   18bbb     C8  467  -0.077   4.329   0.821  0.2717  0.4234  0.4381
   18bbb     N2  468  -0.021   4.239   0.923 -0.4175  0.2743 -0.1915
   18bbb     O1  469  -0.184   4.084   0.164  0.3814 -0.1287  0.2580
   18bbb     O2  470  -0.518   4.047   0.616  0.1154 -0.2961 -0.1507
   18bbb     H1  471   0.031   4.126   0.473 -1.2817  0.7336 -2.9609
   18bbb     H2  472  -0.079   4.001   0.479 -1.4825 -0.2193 -1.0379
   18bbb     H3  473  -0.297   4.174   0.608 -1.3452  0.3300  1.7840
   18bbb     H4  474  -0.256   4.149   0.780 -0.5733  0.1116 -0.4125
   18bbb     H5  475  -0.259   4.181   0.401 -0.6130  1.4384 -1.5744
   18bbb     H6  476  -0.140   4.297   0.399  2.2548 -0.9047  0.4015
   18bbb     H7  477  -0.251   3.899   0.734 -0.7281 -0.8003 -0.8473
   18bbb     H8  478  -0.293   3.941   0.561 -1.1259 -2.5702  0.4033
   18bbb     H9  479  -0.093   4.347   0.605 -1.1000 -1.8535  0.1657
   18bbb    H10  480   0.061   4.283   0.656 -0.9359  0.8315 -3.3456
   18bbb    H11  481  -0.186   4.329   0.832  0.2088  1.5707 -0.0248
   18bbb    H12  482  -0.030   4.423   0.853  1.8141 -0.4629  0.9093
   18bbb    H13  483   0.025   4.157   0.886  0.1771  0.1148  0.8483
   18bbb    H25  484  -0.046   4.065   0.694  2.6643 -0.4245 -2.7314
   19bbb     N1  485  -0.162   5.129   0.797  0.2876  0.2351 -0.6270
   19bbb     C1  486  -0.143   5.264   0.862 -0.5620 -0.7604  0.5923
   19bbb     C2  487  -0.280   5.114   0.697 -0.3244 -0.2551 -0.0689
   19bbb     C3  488  -0.114   5.384   0.767 -0.0576  0.8118  0.2657
   19bbb     C4  489  -0.102   5.505   0.856 -0.5805 -0.7442  0.4412
   19bbb     C5  490  -0.424   5.142   0.754 -0.1321 -0.3168 -0.0558
   19bbb     C6  491  -0.519   5.183   0.641  0.3244 -0.1336  0.2375
   19bbb     C7  492  -0.189   5.017   0.909 -0.2791 -0.2516  1.0254
   19bbb     C8  493  -0.067   4.987   1.006 -0.2439 -0.4005 -0.3711
   19bbb     N2  494  -0.106   4.879   1.101  0.0479  0.3325 -0.4429
   19bbb     O1  495  -0.117   5.504   0.980  0.3321  0.3545 -0.0233
   19bbb     O2  496  -0.495   5.268   0.554  0.0876 -0.7141 -0.0795
   19bbb     H1  497  -0.239   5.280   0.912 -1.4095  3.0222 -1.8243
   19bbb     H2  498  -0.056   5.266   0.927  2.3839  1.6017 -3.0234
   19bbb     H3  499  -0.267   5.017   0.649  1.9453  0.3134 -0.7453
   19bbb     H4  500  -0.254   5.185   0.617  0.3232 -0.1752  0.2039
   19bbb     H5  501  -0.023   5.367   0.708 -0.6499  1.1137 -0.7585
   19bbb     H6  502  -0.192   5.411   0.694  1.4319  1.6758 -1.0773
   19bbb     H7  503  -0.426   5.219   0.832  0.4666 -0.9861  0.6401
   19bbb     H8  504  -0.459   5.044   0.791  1.4554 -1.1976 -0.7826
   19bbb     H9  505  -0.210   4.934   0.841  1.4777  0.6827 -0.7483
   19bbb    H10  506  -0.276   5.034   0.973 -0.4229  0.3589  0.6735
   19bbb    H11  507  -0.032   5.077   1.057  0.3512 -1.0118  0.3204
   19bbb    H12  508   0.015   4.949   0.944 -0.5058 -0.1353 -0.8818
   19bbb    H13  509  -0.115   4.783   1.071  0.6297  0.5896 -1.4903
   19bbb    H25  510  -0.078   5.105   0.742 -0.1684  2.2819 -2.3431
   20bbb     N1  511  -0.233   2.624   2.331 -0.3016 -0.4395  0.7231
   20bbb     C1  512  -0.362   2.570   2.403 -0.6899 -0.4753 -0.1411
   20bbb     C2  513  -0.108   2.620   2.424 -0.3070  0.2147  0.3008
   20bbb     C3  514  -0.454   2.496   2.296 -0.3191  1.0770 -1.5742
   20bbb     C4  515  -0.574   2.443   2.363  0.3560 -0.3965 -0.4432
   20bbb     C5  516  -0.114   2.675   2.567  0.0810 -0.0741 -0.3605
   20bbb     C6  517   0.011   2.629   2.650 -0.2387 -0.2752  0.2083
   20bbb     C7  518  -0.274   2.759   2.280  0.5486  0.8430  0.5125
   20bbb     C8  519  -0.200   2.822   2.162 -0.5169 -0.2041 -0.2976
   20bbb     N2  520  -0.235   2.960   2.137 -0.7428  0.0486  0.6327
   20bbb     O1  521  -0.572   2.410   2.483 -0.1758 -0.0412  0.0944
   20bbb     O2  522   0.046   2.512   2.645  0.1068 -0.5393  0.3565
   20bbb     H1  523  -0.340   2.501   2.484  1.3541  0.1487 -0.1215
   20bbb     H2  524  -0.413   2.661   2.436 -1.5241 -0.8102 -0.4576
   20bbb     H3  525  -0.026   2.667   2.371  1.2167  1.4630  3.4915
   20bbb     H4  526  -0.093   2.512   2.433 -1.4551  0.0952  1.0500
   20bbb     H5  527  -0.493   2.562   2.217 -2.2210 -0.5769 -2.0797
   20bbb     H6  528  -0.400   2.415   2.244 -0.6710 -0.5940  0.5472
   20bbb     H7  529  -0.200   2.639   2.626  1.5678 -2.7656  0.3338
   20bbb     H8  530  -0.118   2.785   2.565  0.3425 -0.0731 -0.8847
   20bbb     H9  531  -0.260   2.833   2.359 -1.0948 -1.3757  3.0800
   20bbb    H10  532  -0.378   2.750   2.251  0.6248 -1.5560  0.7358
   20bbb    H11  533  -0.221   2.769   2.069  1.0790 -0.5843 -0.4692
   20bbb    H12  534  -0.093   2.811   2.182 -0.2300  0.8337 -1.1709
   20bbb    H13  535  -0.164   3.030   2.120  0.4848 -1.4704 -0.8724
   20bbb    H25  536  -0.212   2.555   2.258 -0.7978  0.8149 -0.6439
   21bbb     N1  537  -0.822   2.861   1.404  0.3551  0.5724 -0.4530
   21bbb     C1  538  -0.951   2.773   1.361  0.7624  0.4112  0.3141
   21bbb     C2  539  -0.760   2.931   1.278 -0.2315 -0.1314  0.1665
   21bbb     C3  540  -1.037   2.725   1.472  0.5805  0.2771 -0.4776
   21bbb     C4  541  -1.087   2.843   1.557 -0.0759  0.6867  0.6228
   21bbb     C5  542  -0.850   3.041   1.221  0.3034  1.4657  0.1400
   21bbb     C6  543  -0.871   3.156   1.313 -0.6409  0.2646  0.2411
   21bbb     C7  544  -0.733   2.768   1.485 -0.8076  0.4758 -0.3167
   21bbb     C8  545  -0.601   2.820   1.544  0.2491  0.4173 -0.0048
   21bbb     N2  546  -0.631   2.908   1.656 -0.0517 -0.1246  0.5721
   21bbb     O1  547  -1.007   2.903   1.634  0.0530  0.2154 -0.4585
   21bbb     O2  548  -0.958   3.165   1.394 -0.0755  0.2231 -0.1619
   21bbb     H1  549  -1.021   2.844   1.316 -1.5960 -1.4775  0.7744
   21bbb     H2  550  -0.920   2.693   1.293 -1.3472 -0.1614 -0.0548
   21bbb     H3  551  -0.735   2.858   1.201  0.5308  0.8300 -0.5201
   21bbb     H4  552  -0.665   2.976   1.308 -0.3919  2.2182 -2.4734
   21bbb     H5  553  -1.126   2.675   1.431 -1.1814  1.9259  1.1487
   21bbb     H6  554  -0.996   2.655   1.546  0.6468 -0.7139 -1.4276
   21bbb     H7  555  -0.944   2.995   1.191  0.9479 -1.3045  2.0040
   21bbb     H8  556  -0.805   3.082   1.129  0.5229  0.4064 -0.2362
   21bbb     H9  557  -0.714   2.687   1.414  1.0506  0.5027  0.1189
   21bbb    H10  558  -0.796   2.717   1.559 -0.8665  0.2757 -0.5028
   21bbb    H11  559  -0.542   2.872   1.467  0.5641  2.0210  1.2793
   21bbb    H12  560  -0.543   2.737   1.585 -0.2550  0.1755  0.2242
   21bbb    H13  561  -0.621   2.868   1.748  1.4821  1.1823  1.0442
   21bbb    H25  562  -0.849   2.930   1.475 -0.9781 -1.4383  1.1228
   22bbb     N1  563  -0.188   6.170   1.755  0.8716  0.0396 -0.0428
   22bbb     C1  564  -0.107   6.079   1.670 -0.2187 -0.5154 -0.0071
   22bbb     C2  565  -0.317   6.222   1.683 -0.0001 -0.6379 -0.8884
   22bbb     C3  566  -0.169   5.935   1.655 -0.1774 -0.1031  0.1382
   22bbb     C4  567  -0.169   5.845   1.774  0.0576  0.1148 -0.0484
   22bbb     C5  568  -0.420   6.304   1.767  0.1627 -0.1901  0.0064
   22bbb     C6  569  -0.473   6.218   1.885 -0.7687 -0.4978 -0.0817
   22bbb     C7  570  -0.100   6.288   1.768 -0.5342  1.2902 -0.0550
   22bbb     C8  571   0.016   6.254   1.867  0.1966 -0.3307  0.5612
   22bbb     N2  572  -0.034   6.255   2.007  0.3836  0.9778  0.0031
   22bbb     O1  573  -0.149   5.886   1.888 -0.3949  0.1680 -0.0464
   22bbb     O2  574  -0.397   6.138   1.947 -0.1585 -0.3514  0.2016
   22bbb     H1  575  -0.110   6.121   1.569 -1.8230 -1.0776 -0.2352
   22bbb     H2  576  -0.003   6.069   1.701 -0.0085 -1.6681 -1.0076
   22bbb     H3  577  -0.371   6.133   1.650 -1.1573 -0.6982  0.9697
   22bbb     H4  578  -0.278   6.274   1.595  0.5326 -1.4920 -1.1681
   22bbb     H5  579  -0.273   5.934   1.622 -0.0865 -0.7459 -0.1428
   22bbb     H6  580  -0.115   5.895   1.568  0.1362 -1.8316  1.0812
   22bbb     H7  581  -0.497   6.339   1.698 -0.1516  2.5239  1.5777
   22bbb     H8  582  -0.364   6.391   1.802 -2.6114  1.9360 -0.4606
   22bbb     H9  583  -0.165   6.370   1.799 -3.3493  0.0809 -2.2856
   22bbb    H10  584  -0.071   6.315   1.666 -2.1777  0.9958 -0.6317
   22bbb    H11  585   0.083   6.341   1.869  1.6242 -1.3081 -1.3400
   22bbb    H12  586   0.074   6.166   1.839 -0.4117 -0.7949  0.7371
   22bbb    H13  587  -0.102   6.323   2.039 -1.5901 -1.3479  1.0614
   22bbb    H25  588  -0.208   6.128   1.847 -1.5329  0.4865 -0.2770
   23bbb     N1  589  -0.889   5.442   2.318  0.5444  0.9060  0.5293
   23bbb     C1  590  -0.857   5.322   2.403  0.0610  0.3575 -0.5538
   23bbb     C2  591  -0.969   5.404   2.201  0.2443  0.2660  0.0020
   23bbb     C3  592  -0.788   5.347   2.542  0.5659  0.1144  0.1949
   23bbb     C4  593  -0.802   5.235   2.643 -0.3500  0.5344 -0.3366
   23bbb     C5  594  -0.900   5.302   2.096  0.5373 -0.7267 -0.3691
   23bbb     C6  595  -0.987   5.275   1.972 -0.8012 -0.1304 -0.1901
   23bbb     C7  596  -0.751   5.498   2.283 -0.1866 -0.7316  0.5269
   23bbb     C8  597  -0.745   5.641   2.215 -0.1674  0.0275  0.0321
   23bbb     N2  598  -0.628   5.712   2.259  0.3427  0.5280  0.2826
   23bbb     O1  599  -0.901   5.166   2.658 -0.5710  0.9106 -0.2874
   23bbb     O2  600  -1.026   5.374   1.912  0.2668  0.1840 -0.0517
   23bbb     H1  601  -0.952   5.277   2.432  0.4979  0.7070  1.6549
   23bbb     H2  602  -0.812   5.243   2.342 -1.5165 -0.4007 -0.8042
   23bbb     H3  603  -0.994   5.494   2.145  0.7622 -0.8845 -2.1999
   23bbb     H4  604  -1.062   5.361   2.241  0.9003 -0.5846  0.6562
   23bbb     H5  605  -0.680   5.362   2.530  0.4749 -0.4419 -1.7224
   23bbb     H6  606  -0.826   5.429   2.603 -2.5299 -1.6827  0.9009
   23bbb     H7  607  -0.892   5.201   2.136  1.1325 -0.9253 -0.9781
   23bbb     H8  608  -0.803   5.342   2.064  0.5072  1.0512  1.5413
   23bbb     H9  609  -0.693   5.428   2.224  1.4095  2.0297 -1.4471
   23bbb    H10  610  -0.699   5.502   2.379 -0.0833  0.3081  0.4450
   23bbb    H11  611  -0.834   5.700   2.237 -0.1758  0.9401 -2.1688
   23bbb    H12  612  -0.726   5.629   2.107 -0.1915  1.9317 -0.2146
   23bbb    H13  613  -0.558   5.655   2.303  2.5081  2.5704 -0.2832
   23bbb    H25  614  -0.948   5.514   2.363 -0.5385  1.0503 -1.0355
   24bbb     N1  615   0.419   6.277   3.748  0.9953  0.5081 -0.1612
   24bbb     C1  616   0.452   6.406   3.813  0.1159  0.6901 -0.8102
   24bbb     C2  617   0.302   6.207   3.823 -0.2273  0.5291 -0.2619
   24bbb     C3  618   0.515   6.508   3.722  0.7010 -0.3133 -0.4828
   24bbb     C4  619   0.432   6.550   3.603  0.0512 -0.4295  1.0157
   24bbb     C5  620   0.163   6.258   3.767  0.1785 -0.1727 -0.2307
   24bbb     C6  621   0.134   6.215   3.618  0.4704  0.4888 -0.1902
   24bbb     C7  622   0.546   6.193   3.734  0.4545  0.2404 -0.3746
   24bbb     C8  623   0.540   6.060   3.656  0.2110  0.0041  0.6404
   24bbb     N2  624   0.478   6.093   3.524  0.0121 -0.7245 -0.3890
   24bbb     O1  625   0.383   6.467   3.525 -0.1664  0.4710 -0.6426
   24bbb     O2  626   0.220   6.207   3.533 -0.5848 -0.0727 -0.1341
   24bbb     H1  627   0.356   6.446   3.848 -0.7260 -1.2516 -0.8064
   24bbb     H2  628   0.517   6.372   3.893  0.4413 -0.0521 -1.3843
   24bbb     H3  629   0.316   6.223   3.930  1.6678 -4.3985  0.4912
   24bbb     H4  630   0.310   6.103   3.790 -1.1679  0.8709 -1.6763
   24bbb     H5  631   0.522   6.596   3.786 -2.7185  0.5471 -1.1103
   24bbb     H6  632   0.616   6.487   3.685  0.1080 -2.1563 -1.1817
   24bbb     H7  633   0.162   6.367   3.774  0.5718 -0.1107 -1.0786
   24bbb     H8  634   0.083   6.233   3.838 -1.1060  2.4545 -0.6523
   24bbb     H9  635   0.586   6.159   3.829  1.6705 -0.6380 -1.1621
   24bbb    H10  636   0.625   6.254   3.689  2.4427 -2.0148 -0.1516
   24bbb    H11  637   0.472   5.998   3.714 -0.8677  0.8733  0.3384
   24bbb    H12  638   0.634   6.005   3.638  0.3682  0.3960  0.2346
   24bbb    H13  639   0.382   6.066   3.505 -0.8203  1.6459  0.1671
   24bbb    H25  640   0.390   6.296   3.651  0.0759 -0.4326 -0.0858
   25bbb     N1  641   1.324   6.379   2.772  0.7668  0.0048 -0.7755
   25bbb     C1  642   1.416   6.281   2.705  0.8420 -0.1234 -0.5697
   25bbb     C2  643   1.401   6.507   2.809  0.1334  0.1472  0.3431
   25bbb     C3  644   1.431   6.296   2.553 -0.1334  0.2588 -0.0718
   25bbb     C4  645   1.294   6.281   2.485  0.3463 -0.3863  0.3667
   25bbb     C5  646   1.343   6.608   2.906  0.3230  0.3838  0.1673
   25bbb     C6  647   1.211   6.659   2.862 -0.6668 -0.1911  0.1462
   25bbb     C7  648   1.254   6.322   2.898  0.2831  0.2480  0.5934
   25bbb     C8  649   1.143   6.219   2.868 -0.4880 -0.4045 -0.3349
   25bbb     N2  650   1.068   6.196   2.997  0.1539  0.1597  0.0183
   25bbb     O1  651   1.194   6.338   2.517  0.8730  0.0639 -0.1759
   25bbb     O2  652   1.143   6.603   2.780  0.3054 -0.3557  0.1202
   25bbb     H1  653   1.511   6.301   2.755  0.6921  0.7962 -0.6371
   25bbb     H2  654   1.390   6.183   2.744  0.6226 -0.1625 -0.8163
   25bbb     H3  655   1.411   6.570   2.721 -0.1463  1.2945  1.1178
   25bbb     H4  656   1.503   6.474   2.829 -0.5470 -3.5657 -1.4252
   25bbb     H5  657   1.477   6.393   2.531  1.7031  0.2199  3.0574
   25bbb     H6  658   1.504   6.223   2.518  0.0008  1.2353 -1.9212
   25bbb     H7  659   1.413   6.691   2.914  1.3722 -0.4747  0.0923
   25bbb     H8  660   1.332   6.556   3.003 -0.8300  0.6277  0.1827
   25bbb     H9  661   1.205   6.413   2.934  1.2422  1.3155 -0.6803
   25bbb    H10  662   1.325   6.267   2.960  0.4886 -2.6281 -1.9718
   25bbb    H11  663   1.199   6.128   2.842  0.5897  0.2002 -0.1989
   25bbb    H12  664   1.076   6.252   2.788  0.6662  1.6509 -0.5202
   25bbb    H13  665   1.048   6.100   3.024  0.0624 -0.2284 -1.3453
   25bbb    H25  666   1.253   6.399   2.700  0.4586  0.4537 -0.3484
   26bbb     N1  667   1.957   5.263   2.810  0.5644 -0.3868 -0.3024
   26bbb     C1  668   1.948   5.148   2.916  0.1329  0.4394  0.4436
   26bbb     C2  669   2.072   5.366   2.837 -0.4373 -0.1199  0.2610
   26bbb     C3  670   1.854   5.032   2.882 -0.2768  0.3435 -0.0301
   26bbb     C4  671   1.892   4.967   2.750 -0.6314  0.3288 -0.6961
   26bbb     C5  672   2.204   5.316   2.769 -0.2127 -0.1785 -0.0620
   26bbb     C6  673   2.319   5.412   2.822  0.1822  0.6127 -0.0729
   26bbb     C7  674   1.818   5.337   2.812 -0.7062 -0.9830 -0.2039
   26bbb     C8  675   1.798   5.415   2.678 -0.4529 -0.3310 -0.2219
   26bbb     N2  676   1.757   5.321   2.569 -0.7941  0.1797  0.3545
   26bbb     O1  677   1.848   4.997   2.643 -0.1420  0.6094  0.7268
   26bbb     O2  678   2.300   5.511   2.899  0.6401 -0.2281  0.7857
   26bbb     H1  679   2.046   5.104   2.938  0.1080  0.5340  0.7542
   26bbb     H2  680   1.935   5.190   3.016  0.7178 -1.4288  1.3508
   26bbb     H3  681   2.083   5.386   2.944 -1.9710  1.6040  0.1569
   26bbb     H4  682   2.047   5.458   2.784  0.0745 -0.7348 -1.1002
   26bbb     H5  683   1.854   4.969   2.972 -1.2249  2.5020  1.5545
   26bbb     H6  684   1.751   5.067   2.868 -0.0271  1.1132  0.0070
   26bbb     H7  685   2.191   5.335   2.662 -2.5125  0.7678  0.3416
   26bbb     H8  686   2.233   5.210   2.776 -2.0185 -0.6328  1.0646
   26bbb     H9  687   1.814   5.411   2.892 -3.0446 -0.9769 -0.2509
   26bbb    H10  688   1.732   5.275   2.838 -3.2446  1.9875 -0.8959
   26bbb    H11  689   1.885   5.473   2.646 -2.2690  3.1080  0.5613
   26bbb    H12  690   1.724   5.491   2.705  2.6120  1.5111  3.9148
   26bbb    H13  691   1.662   5.316   2.535 -0.2088  0.0717 -1.3336
   26bbb    H25  692   1.962   5.223   2.715 -0.5341 -0.4801 -0.3291
   27bbb     N1  693   2.590   4.738   1.930  0.0792  0.2892  0.2877
   27bbb     C1  694   2.556   4.615   1.847 -0.0434  0.6535 -0.3204
   27bbb     C2  695   2.722   4.730   2.006  0.5654 -0.3273  0.7621
   27bbb     C3  696   2.666   4.533   1.774 -0.6772 -0.6091  0.5363
   27bbb     C4  697   2.615   4.402   1.711  0.6146 -0.3601 -0.0570
   27bbb     C5  698   2.776   4.851   2.078  0.6926  0.3403  0.3141
   27bbb     C6  699   2.774   4.977   1.987 -0.2249  0.6059 -0.1022
   27bbb     C7  700   2.483   4.764   2.031 -0.1979 -0.3138  0.7088
   27bbb     C8  701   2.369   4.846   1.969 -0.1321 -0.4243  0.5496
   27bbb     N2  702   2.275   4.896   2.081 -0.0298 -0.5474  0.3833
   27bbb     O1  703   2.497   4.395   1.668  0.3835 -0.3274  0.3113
   27bbb     O2  704   2.682   5.001   1.910 -0.0146  0.1847 -0.4406
   27bbb     H1  705   2.506   4.549   1.918 -0.0427  0.0779 -0.8414
   27bbb     H2  706   2.475   4.646   1.781  0.3885  1.5846 -0.4225
   27bbb     H3  707   2.781   4.716   1.915 -0.3821  0.1220  0.0579
   27bbb     H4  708   2.721   4.639   2.066 -2.8702  1.0550  3.1604
   27bbb     H5  709   2.714   4.599   1.701 -0.8747 -0.8042  0.2324
   27bbb     H6  710   2.748   4.504   1.842  0.9329 -0.2202 -1.1495
   27bbb     H7  711   2.879   4.832   2.109  1.1521  1.3292 -0.5510
   27bbb     H8  712   2.719   4.872   2.169 -0.2583  1.5162 -0.5130
   27bbb     H9  713   2.522   4.806   2.124  1.1882  1.9870 -0.8053
   27bbb    H10  714   2.426   4.674   2.051 -0.0605 -0.3193  1.0837
   27bbb    H11  715   2.317   4.792   1.889 -0.2356  2.2376 -1.3189
   27bbb    H12  716   2.411   4.934   1.919  1.1302 -1.3825 -0.1463
   27bbb    H13  717   2.273   4.996   2.097 -0.6020 -0.2096 -1.4968
   27bbb    H25  718   2.600   4.821   1.869 -1.3929  0.9892  0.9539
   28bbb     N1  719   0.912   3.412   2.911  0.3784 -0.4324  0.0975
   28bbb     C1  720   0.777   3.356   2.861 -0.2118  0.0977 -0.7655
   28bbb     C2  721   0.946   3.374   3.060  0.1058 -0.2309 -0.2952
   28bbb     C3  722   0.788   3.310   2.712  0.1540  0.3983  0.6651
   28bbb     C4  723   0.845   3.169   2.693 -0.0011 -0.1135  0.3260
   28bbb     C5  724   0.985   3.227   3.078  0.4860 -1.0071 -0.3498
   28bbb     C6  725   1.107   3.187   3.006  0.7340  0.6803 -0.3868
   28bbb     C7  726   0.912   3.567   2.902 -0.3359  0.3499  0.1333
   28bbb     C8  727   1.047   3.635   2.920  0.0290  0.4697  0.5556
   28bbb     N2  728   1.119   3.607   2.798 -0.3084 -0.4960  0.3568
   28bbb     O1  729   0.929   3.130   2.774 -0.5338  0.2488  0.7406
   28bbb     O2  730   1.181   3.267   2.951 -0.0164  0.0838  0.7629
   28bbb     H1  731   0.758   3.265   2.918 -2.1421  0.3627 -0.9179
   28bbb     H2  732   0.695   3.427   2.873  1.1264  1.7408 -1.0198
   28bbb     H3  733   0.860   3.398   3.123  2.4908 -1.6195  3.9731
   28bbb     H4  734   1.029   3.439   3.087 -2.6170  2.5649  2.2062
   28bbb     H5  735   0.690   3.320   2.665  1.7554  4.9177 -2.3531
   28bbb     H6  736   0.844   3.376   2.645  1.8997 -1.8480 -0.2127
   28bbb     H7  737   0.898   3.166   3.050 -0.7508  0.0320  1.0282
   28bbb     H8  738   1.007   3.207   3.184  0.8889 -0.5580 -0.3442
   28bbb     H9  739   0.847   3.597   2.984 -0.7280  0.5475 -0.2486
   28bbb    H10  740   0.870   3.594   2.805 -0.2038 -0.0710 -0.0445
   28bbb    H11  741   1.106   3.596   3.003  1.8137 -2.5620 -1.9183
   28bbb    H12  742   1.025   3.742   2.927 -0.8773  0.2900  0.6140
   28bbb    H13  743   1.074   3.614   2.707 -0.2637 -0.1596  0.3616
   28bbb    H25  744   0.983   3.373   2.848  0.9855 -2.1093  1.7381
   29bbb     N1  745   2.138   3.015   2.583 -0.5817  0.9312 -0.2878
   29bbb     C1  746   2.232   2.944   2.485  0.1552 -0.1643  0.3019
   29bbb     C2  747   2.044   2.911   2.654  0.2477  0.2531 -0.3121
   29bbb     C3  748   2.342   3.034   2.408  0.4158  0.6172 -0.0182
   29bbb     C4  749   2.435   3.112   2.493 -0.3777  0.9374  0.2625
   29bbb     C5  750   1.964   2.813   2.550 -0.8923 -0.3369 -0.4938
   29bbb     C6  751   1.816   2.799   2.578  0.1297 -0.0781  0.2958
   29bbb     C7  752   2.057   3.128   2.517  0.4813 -0.3828  0.2678
   29bbb     C8  753   1.988   3.227   2.612  0.2871 -0.0398 -0.0284
   29bbb     N2  754   1.878   3.286   2.539  0.0824  0.1881  0.0602
   29bbb     O1  755   2.495   3.051   2.580 -0.0219 -0.5877 -0.2866
   29bbb     O2  756   1.748   2.900   2.598 -0.7885  0.0927 -0.4775
   29bbb     H1  757   2.289   2.873   2.546 -0.5423 -0.3196  0.7809
   29bbb     H2  758   2.175   2.894   2.407 -0.5108 -1.2168  1.4280
   29bbb     H3  759   1.980   2.963   2.725 -0.2326  0.5779 -0.9747
   29bbb     H4  760   2.111   2.854   2.718  0.9535  2.1747  0.7475
   29bbb     H5  761   2.403   2.981   2.334 -0.3292 -0.3325  0.0273
   29bbb     H6  762   2.295   3.102   2.336  0.5259 -1.1746 -1.8690
   29bbb     H7  763   1.997   2.709   2.560  2.0362  0.6113  0.5594
   29bbb     H8  764   1.980   2.830   2.443  0.0264  0.0994 -0.2943
   29bbb     H9  765   1.982   3.083   2.452 -0.4480 -0.4611  1.3574
   29bbb    H10  766   2.126   3.186   2.456  0.3799 -0.3189  0.2121
   29bbb    H11  767   2.058   3.301   2.654  1.2801 -1.5783  1.1565
   29bbb    H12  768   1.948   3.171   2.698 -0.3222  0.4824  0.0264
   29bbb    H13  769   1.788   3.239   2.539 -0.4271  0.6411 -4.9020
   29bbb    H25  770   2.193   3.047   2.663 -1.3202  1.7284 -0.0880
   30ccc     N1  771   0.562   3.260   4.280  0.3278 -0.3094 -0.2863
   30ccc     H4  772   0.550   3.272   4.180 -0.1942  1.5762 -0.0281
   30ccc     C3  773   0.688   3.188   4.330  0.5747  0.4315  0.0361
   30ccc     H5  774   0.762   3.190   4.249 -0.8112  1.1171 -1.2562
   30ccc     C4  775   0.655   3.044   4.372 -0.4574 -0.7710  0.0673
   30ccc     H6  776   0.733   3.247   4.411 -2.5974  2.0594  0.7770
   30ccc     H7  777   0.630   2.988   4.281  1.7503 -0.2471 -0.9230
   30ccc     H8  778   0.566   3.046   4.436 -1.5868  0.1967 -1.4584
   30ccc     N2  779   0.763   2.969   4.449 -0.1051  0.6171 -0.0077
   30ccc     C5  780   0.803   3.033   4.585 -0.3856  0.1186 -0.2466
   30ccc     C6  781   0.888   2.914   4.370  0.8070 -0.7959 -0.1715
   30ccc     H9  782   0.945   3.003   4.342  3.0076 -1.5562  1.5867
   30ccc     C7  783   0.867   2.809   4.257 -0.2458 -0.5992 -0.3658
   30ccc    H10  784   0.946   2.878   4.457  0.9479  1.5047  0.7468
   30ccc    H11  785   0.964   2.784   4.210  0.4908  1.6257 -0.1416
   30ccc    H12  786   0.808   2.867   4.185 -0.9167  0.0508  0.6976
   30ccc     C8  787   0.803   2.684   4.307  0.0688 -0.0885  0.0732
   30ccc     O2  788   0.817   2.647   4.418  0.1772 -0.4019  0.0724
   30ccc    H13  789   0.808   3.141   4.566 -0.0917  0.1716  0.1080
   30ccc    H14  790   0.907   3.007   4.611 -0.1956  1.4447  0.4350
   30ccc     C9  791   0.702   3.017   4.706 -0.7898 -0.5857 -0.4431
   30ccc    H15  792   0.701   2.914   4.745  1.7824 -0.5928 -0.2253
   30ccc    H16  793   0.601   3.049   4.680 -0.5192  1.5934  0.9430
   30ccc    C10  794   0.737   3.110   4.825  0.2001  0.5617 -0.9461
   30ccc     O4  795   0.842   3.168   4.840  0.2996  0.2300  0.1592
   30ccc    C11  796   0.496   2.454   3.975  0.3114  0.8700 -0.1235
   30ccc    C12  797   0.458   2.518   4.107 -0.6763  0.1411 -0.0455
   30ccc    H17  798   0.543   2.356   3.989 -0.3815  0.5486  0.0164
   30ccc    C13  799   0.526   2.657   4.112 -0.5044 -0.0628  0.0423
   30ccc    C14  800   0.682   2.638   4.086  0.0759 -0.2996  0.4605
   30ccc    C15  801   0.732   2.548   3.956 -0.1825 -0.1755  0.5648
   30ccc    H18  802   0.710   2.741   4.063 -0.8839 -0.1203  0.0255
   30ccc    H19  803   0.530   2.693   4.215  0.5094 -0.6844  0.2333
   30ccc    H20  804   0.723   2.466   4.028 -1.4021 -0.5901 -0.0512
   30ccc     O1  805   0.923   2.537   3.823 -0.1491  0.1851 -0.5245
   30ccc     O6  806   0.459   2.763   4.029  0.5442 -0.1060 -0.0667
   30ccc    C16  807   0.375   2.452   3.869  0.4531 -0.2734  0.2367
   30ccc    H21  808   0.401   2.719   3.964  0.1796 -2.2599  1.6126
   30ccc    H22  809   0.707   2.518   4.255  2.3645  0.8154  3.9050
   30ccc    H23  810   0.291   2.387   3.895  0.2785  0.5127  1.7560
   30ccc    H24  811   0.423   2.410   3.780 -0.8103  1.1171 -1.1540
   30ccc     O7  812   0.313   2.589   3.845  0.4325 -0.2654  0.4073
   30ccc    H25  813   0.228   2.573   3.799 -0.5557  1.4138  1.5058
   30ccc     O8  814   0.595   2.539   3.907  0.1912 -0.1025  0.0305
   30ccc    H26  815   0.980   2.607   3.859 -0.5154  0.6693 -0.8891
   30ccc    H27  816   0.350   2.530   4.122 -0.4274 -0.1912  2.4058
   30ccc     O9  817   0.511   2.445   4.224  0.0536 -0.1456 -0.3918
   30ccc    H28  818   0.465   2.360   4.213 -1.3401  0.5462 -0.2784
   30ccc     N3  819   0.738   2.608   4.218 -0.4372  0.3056 -0.4109
   30ccc    C17  820   0.359   2.923   5.145  0.2497  0.3667  0.0221
   30ccc    C18  821   0.288   3.017   5.043  0.2744 -0.7900 -0.4925
   30ccc    H29  822   0.408   2.981   5.224  0.5154  0.7266 -0.4081
   30ccc    C19  823   0.395   3.113   4.992 -0.0113 -0.0727  0.0154
   30ccc    C20  824   0.524   3.049   4.941  0.1769 -0.2785  0.6864
   30ccc    C21  825   0.572   2.936   5.031  0.4177  0.3051 -0.1904
   30ccc    H30  826   0.491   3.006   4.846 -2.3944 -1.5578  2.0593
   30ccc    H31  827   0.421   3.175   5.078  0.0659  1.3514 -0.9850
   30ccc    H32  828   0.617   2.981   5.121  0.6637  1.6174 -0.9411
   30ccc    O10  829   0.654   2.840   4.969 -0.4721  0.1575 -0.0250
   30ccc    O11  830   0.331   3.194   4.890  0.1475  0.3666  0.1765
   30ccc    C22  831   0.255   2.817   5.197  0.2203 -0.3288  0.7560
   30ccc    H33  832   0.404   3.246   4.853  2.0448 -2.0509  0.2863
   30ccc    H34  833   0.655   3.212   4.982  1.1536 -0.2577 -0.4148
   30ccc    H35  834   0.191   2.881   5.259  0.4587  0.7976 -0.1287
   30ccc    H36  835   0.307   2.740   5.255  1.1334 -0.0261  0.3728
   30ccc    O12  836   0.168   2.767   5.092  0.1376  0.4481  0.0796
   30ccc    H37  837   0.083   2.807   5.116  0.0619  0.1284  0.3416
   30ccc    O13  838   0.461   2.855   5.075 -0.0704  0.7570  1.1012
   30ccc    H38  839   0.594   2.769   4.938 -1.5093  1.0344 -0.0851
   30ccc    H39  840   0.254   2.965   4.953  1.1800  2.5404 -2.9639
   30ccc     O5  841   0.191   3.099   5.106 -0.0621  0.3058 -0.4023
   30ccc    H40  842   0.108   3.081   5.059  0.2403 -0.5051 -0.6476
   30ccc     N4  843   0.632   3.142   4.911 -0.1938  0.0739 -0.3392
   30ccc    H41  844   0.719   2.886   4.492 -0.3065  0.7584  0.0617
   31ccc     N1  845   0.227   3.742   4.846 -0.0642  0.0365  0.5007
   31ccc     H4  846   0.259   3.646   4.859  1.2965  0.4302  0.2365
   31ccc     C3  847   0.220   3.836   4.964 -0.0100 -0.4150  1.1946
   31ccc     H5  848   0.265   3.931   4.934 -0.5470 -0.3488  0.5792
   31ccc     C4  849   0.282   3.782   5.089  0.2134 -0.8908  0.4337
   31ccc     H6  850   0.115   3.862   4.977 -0.1395 -0.8312  1.0066
   31ccc     H7  851   0.209   3.705   5.118 -1.9461 -0.1680 -2.6216
   31ccc     H8  852   0.278   3.855   5.171  1.1317 -0.9887  0.5788
   31ccc     N2  853   0.425   3.728   5.075 -0.2826 -0.4465 -0.1367
   31ccc     C5  854   0.482   3.688   5.212  0.4786  0.4785  0.3601
   31ccc     C6  855   0.514   3.832   5.007  0.4344 -0.6743  0.0935
   31ccc     H9  856   0.457   3.885   4.930 -0.3107  0.6167  1.4691
   31ccc     C7  857   0.641   3.772   4.942 -0.0507  0.1515 -0.0093
   31ccc    H10  858   0.544   3.900   5.088  0.7563 -1.3901  0.5895
   31ccc    H11  859   0.677   3.702   5.017 -1.9143 -1.6939 -0.7470
   31ccc    H12  860   0.717   3.849   4.923  0.5646 -0.6732 -1.0026
   31ccc     C8  861   0.604   3.696   4.823 -0.2182 -0.0089  0.5316
   31ccc     O2  862   0.491   3.666   4.792 -0.2565 -0.3483  0.1272
   31ccc    H13  863   0.489   3.779   5.272  1.1616  1.5015 -1.1991
   31ccc    H14  864   0.581   3.648   5.189 -0.1271  0.4076 -2.5924
   31ccc     C9  865   0.396   3.581   5.290  0.9459  0.9049  0.2504
   31ccc    H15  866   0.298   3.616   5.326  0.3675 -0.6821  0.2929
   31ccc    H16  867   0.444   3.547   5.383 -1.0282  0.1367  1.0456
   31ccc    C10  868   0.374   3.453   5.195  0.6791  0.1511 -0.3214
   31ccc     O4  869   0.421   3.444   5.078  0.1140 -0.0640 -0.0520
   31ccc    C11  870   0.796   3.687   4.326 -0.7389 -0.5595 -0.6274
   31ccc    C12  871   0.832   3.547   4.389  0.0817 -0.0019  0.3936
   31ccc    H17  872   0.856   3.757   4.385 -0.0461 -1.6407 -0.0048
   31ccc    C13  873   0.806   3.557   4.544 -0.0172 -0.9624  0.0608
   31ccc    C14  874   0.679   3.635   4.584  0.4900  0.1938 -0.6642
   31ccc    C15  875   0.642   3.755   4.494 -0.4272 -0.0360 -0.3934
   31ccc    H18  876   0.594   3.567   4.571  1.9642 -1.6696 -1.0452
   31ccc    H19  877   0.900   3.595   4.587 -0.7433  1.4527 -0.3306
   31ccc    H20  878   0.713   3.836   4.516 -2.5258  1.4957  1.2079
   31ccc     O1  879   0.514   3.805   4.522  0.3198 -0.4142  0.1073
   31ccc     O6  880   0.803   3.423   4.595  0.4751 -0.1756  0.1418
   31ccc    C16  881   0.831   3.701   4.178  0.2478  0.4569  0.0863
   31ccc    H21  882   0.831   3.433   4.687  2.6698 -0.6526 -0.4163
   31ccc    H22  883   0.792   3.722   4.742 -0.6996 -1.0067  1.3078
   31ccc    H23  884   0.938   3.685   4.166  0.6479  0.4679  2.8737
   31ccc    H24  885   0.811   3.806   4.151 -1.7952  0.2966  0.7659
   31ccc     O7  886   0.758   3.615   4.085  0.5538 -0.4119 -0.0682
   31ccc    H25  887   0.803   3.529   4.087  0.3895 -0.4857  1.1174
   31ccc     O8  888   0.655   3.711   4.361  0.2442  0.4379  0.1570
   31ccc    H26  889   0.503   3.882   4.464  0.5399 -1.0985 -0.8562
   31ccc    H27  890   0.756   3.483   4.343  0.3858 -1.0713  1.3399
   31ccc     O9  891   0.969   3.499   4.351 -0.0141 -0.3895 -0.7117
   31ccc    H28  892   1.032   3.553   4.402  1.3102 -0.8259 -1.7922
   31ccc     N3  893   0.698   3.684   4.728 -0.7393 -0.3979 -0.2953
   31ccc    C17  894   0.182   3.141   5.588 -1.0036 -0.2651  0.1402
   31ccc    C18  895   0.331   3.180   5.568  0.5232  0.0380 -0.3908
   31ccc    H29  896   0.173   3.047   5.533  0.0240 -1.8481  2.5191
   31ccc    C19  897   0.350   3.218   5.412  0.7124  0.0650  0.9334
   31ccc    C20  898   0.248   3.327   5.372  0.0491  0.5936  0.2449
   31ccc    C21  899   0.105   3.264   5.394 -0.2251  0.0712  0.7436
   31ccc    H30  900   0.259   3.415   5.437 -0.2597  0.0398  1.0598
   31ccc    H31  901   0.324   3.134   5.346 -1.6569  2.4174 -1.3472
   31ccc    H32  902   0.085   3.173   5.337 -0.8259 -0.5565  1.9218
   31ccc    O10  903  -0.001   3.356   5.366 -0.0138  0.4296  0.0164
   31ccc    O11  904   0.487   3.256   5.392  0.5125  0.0761  0.4030
   31ccc    C22  905   0.151   3.122   5.737 -0.7673 -0.3045 -0.0687
   31ccc    H33  906   0.534   3.172   5.404 -0.3861 -0.6231 -0.7244
   31ccc    H34  907   0.240   3.300   5.165  2.5031  1.2408 -2.4763
   31ccc    H35  908   0.225   3.054   5.782  0.0238  0.1110 -0.7052
   31ccc    H36  909   0.055   3.071   5.746  0.2684 -2.2022  0.8466
   31ccc    O12  910   0.146   3.244   5.801  0.0071 -0.4086 -0.1842
   31ccc    H37  911   0.186   3.318   5.752 -1.3541  1.5817  1.5593
   31ccc    O13  912   0.090   3.228   5.529  0.7765 -0.0848 -0.2293
   31ccc    H38  913   0.033   3.420   5.301 -1.7955  1.8915  0.4677
   31ccc    H39  914   0.353   3.270   5.626  0.2055  0.3609 -0.7620
   31ccc     O5  915   0.409   3.065   5.602  0.7535 -0.3501  0.3897
   31ccc    H40  916   0.500   3.093   5.620  1.1458 -0.9035 -0.6421
   31ccc     N4  917   0.272   3.370   5.231 -0.0310  0.5389 -0.3248
   31ccc    H41  918   0.418   3.646   5.013 -2.2988  0.0985 -0.7143
   32ccc     N1  919  -0.758   2.794   3.296 -0.5497 -0.4713 -0.2359
   32ccc     H4  920  -0.702   2.722   3.341  0.1289 -0.5844 -1.2207
   32ccc     C3  921  -0.831   2.767   3.173 -0.3899  0.0742 -0.0182
   32ccc     H5  922  -0.917   2.835   3.178  1.5047  2.5646  1.5059
   32ccc     C4  923  -0.866   2.621   3.147 -0.3180 -0.5344  0.3426
   32ccc     H6  924  -0.772   2.798   3.087 -1.7442 -1.5817 -1.6168
   32ccc     H7  925  -0.901   2.625   3.043  3.5776 -0.7791 -1.1811
   32ccc     H8  926  -0.954   2.594   3.206  0.0182  0.5414  1.3769
   32ccc     N2  927  -0.760   2.510   3.159 -0.0398 -0.8563 -0.0517
   32ccc     C5  928  -0.638   2.527   3.069  0.6485  0.2780 -0.0106
   32ccc     C6  929  -0.813   2.362   3.141  0.5313  0.9371  0.0401
   32ccc     H9  930  -0.870   2.372   3.048  2.0196  1.9057 -0.8051
   32ccc     C7  931  -0.909   2.303   3.258 -0.2620  1.0140  0.2553
   32ccc    H10  932  -0.729   2.293   3.131  0.2424  0.6055 -0.0992
   32ccc    H11  933  -0.976   2.380   3.296 -1.7354 -0.0240 -0.1458
   32ccc    H12  934  -0.847   2.268   3.341  1.7415  1.4695 -0.9573
   32ccc     C8  935  -0.994   2.181   3.213  0.0027  0.3212 -0.5071
   32ccc     O2  936  -0.980   2.116   3.115  0.2273  0.1452  0.5039
   32ccc    H13  937  -0.571   2.449   3.109 -1.6438 -1.7574  0.1338
   32ccc    H14  938  -0.600   2.626   3.095  1.2306  0.0956 -0.1353
   32ccc     C9  939  -0.667   2.515   2.916  0.5068 -0.1139 -0.1153
   32ccc    H15  940  -0.732   2.596   2.881  3.2846  2.6694  0.7246
   32ccc    H16  941  -0.717   2.418   2.903 -1.8241  1.2314 -1.8340
   32ccc    C10  942  -0.544   2.511   2.828  0.7117  0.0063  0.6544
   32ccc     O4  943  -0.494   2.605   2.765  0.4099 -0.2811 -0.2851
   32ccc    C11  944  -1.214   1.747   3.234 -0.4894  0.1127 -0.1873
   32ccc    C12  945  -1.122   1.767   3.358  0.2676  0.6240 -0.2445
   32ccc    H17  946  -1.151   1.744   3.145  0.7696 -1.6348  0.7187
   32ccc    C13  947  -1.061   1.908   3.348 -0.1562  0.1925  0.4624
   32ccc    C14  948  -1.164   2.021   3.315 -0.2539 -0.6954  0.6104
   32ccc    C15  949  -1.239   1.981   3.184  0.3373 -0.3965  0.2346
   32ccc    H18  950  -1.229   2.033   3.402 -0.6929  0.1313  0.1829
   32ccc    H19  951  -0.996   1.915   3.260  0.4743  0.7245  0.9578
   32ccc    H20  952  -1.171   1.966   3.100  0.2579 -0.4752  0.1840
   32ccc     O1  953  -1.353   2.065   3.167  0.1954  0.4824 -0.1507
   32ccc     O6  954  -0.987   1.940   3.468 -0.3400 -0.1641  0.8708
   32ccc    C16  955  -1.286   1.604   3.239 -0.2003 -0.8686  0.4569
   32ccc    H21  956  -1.043   1.920   3.544  0.9218 -1.3619  1.5319
   32ccc    H22  957  -1.079   2.195   3.398 -2.0890  1.3135 -0.8023
   32ccc    H23  958  -1.337   1.595   3.336 -0.2405 -0.2331  0.4986
   32ccc    H24  959  -1.207   1.528   3.236  0.2154 -0.5734  2.2738
   32ccc     O7  960  -1.382   1.605   3.136 -0.1684 -0.1416  0.2331
   32ccc    H25  961  -1.430   1.691   3.135 -0.9893 -0.5841  0.5308
   32ccc     O8  962  -1.300   1.855   3.216  0.2670 -0.1173 -0.1400
   32ccc    H26  963  -1.406   2.024   3.097  0.4159 -0.7564  0.3763
   32ccc    H27  964  -1.179   1.753   3.450 -1.2498  0.0281 -1.2453
   32ccc     O9  965  -1.015   1.669   3.353  0.2351 -0.8325  0.1680
   32ccc    H28  966  -0.983   1.666   3.445  1.4135 -1.7335 -0.2449
   32ccc     N3  967  -1.086   2.151   3.306  0.5298  0.2931 -0.5891
   32ccc    C17  968  -0.089   2.240   2.871 -0.1053 -0.2620 -0.5835
   32ccc    C18  969  -0.147   2.226   2.723 -0.4363  0.5587  0.0793
   32ccc    H29  970  -0.117   2.163   2.944  2.5106  1.4634  2.5047
   32ccc    C19  971  -0.302   2.262   2.713 -1.2103 -0.2570 -0.2814
   32ccc    C20  972  -0.341   2.381   2.809 -0.6996 -0.2130  0.6206
   32ccc    C21  973  -0.265   2.373   2.945  0.5391 -0.0162 -0.3990
   32ccc    H30  974  -0.306   2.465   2.748 -1.7841 -1.1734 -1.4047
   32ccc    H31  975  -0.332   2.167   2.760  1.7210  0.4466  3.5252
   32ccc    H32  976  -0.297   2.279   2.994  0.0614  0.1655 -0.3562
   32ccc    O10  977  -0.290   2.491   3.023 -0.4235  0.5359 -0.1498
   32ccc    O11  978  -0.348   2.289   2.575 -0.4475  0.5537 -0.3241
   32ccc    C22  979   0.068   2.239   2.868 -0.0686  0.4552 -0.1115
   32ccc    H33  980  -0.425   2.348   2.580 -0.3579  0.7104 -0.7788
   32ccc    H34  981  -0.531   2.311   2.853  1.3841 -0.5696  1.5683
   32ccc    H35  982   0.100   2.338   2.833  0.7479  0.4088  0.4658
   32ccc    H36  983   0.120   2.168   2.802 -1.4299 -0.6065 -0.0751
   32ccc    O12  984   0.119   2.215   3.001  0.1109  0.0462 -0.2319
   32ccc    H37  985   0.082   2.126   3.016 -1.7399  0.5910 -1.1538
   32ccc    O13  986  -0.130   2.366   2.928  0.1200  0.3773 -0.0534
   32ccc    H38  987  -0.270   2.567   2.966 -0.2831  1.7991  1.5046
   32ccc    H39  988  -0.087   2.285   2.652  1.2357 -2.6208 -1.3072
   32ccc     O5  989  -0.118   2.097   2.673 -0.5377  0.1571 -0.7320
   32ccc    H40  990  -0.118   2.096   2.575  0.2377  1.8265 -0.7772
   32ccc     N4  991  -0.485   2.395   2.816 -0.3684 -0.1360  0.2411
   32ccc    H41  992  -0.722   2.523   3.253  2.3845 -1.0637 -0.9448
   33ccc     N1  993   0.062   2.996   3.377  0.3366 -0.1168 -0.4603
   33ccc     H4  994   0.013   3.075   3.338 -0.4490  0.6089  1.8355
   33ccc     C3  995   0.208   2.994   3.376  0.3923  0.0017 -0.3397
   33ccc     H5  996   0.246   2.892   3.368  2.0692  0.5743 -0.1987
   33ccc     C4  997   0.266   3.071   3.499 -0.6760  0.9159  0.2849
   33ccc     H6  998   0.250   3.047   3.290  2.4527  0.9534  1.1473
   33ccc     H7  999   0.214   3.167   3.506 -0.9104  0.7468  0.9345
   33ccc     H8 1000   0.370   3.100   3.479 -0.1164 -1.9283 -1.5891
   33ccc     N2 1001   0.259   2.990   3.623 -0.4964 -0.9655 -0.3221
   33ccc     C5 1002   0.224   3.083   3.737 -0.3077  0.1059  0.0067
   33ccc     C6 1003   0.395   2.918   3.646 -0.5585 -0.3477 -0.0449
   33ccc     H9 1004   0.477   2.990   3.634  1.0650 -2.3583 -1.9766
   33ccc     C7 1005   0.436   2.797   3.560 -0.6973  0.2635  0.2110
   33ccc    H10 1006   0.394   2.894   3.753  1.7249  3.7336  1.0929
   33ccc    H11 1007   0.428   2.824   3.453  3.6685  0.0584 -0.3495
   33ccc    H12 1008   0.368   2.716   3.587 -0.4546  0.2636  0.8208
   33ccc     C8 1009   0.588   2.752   3.575 -0.0391  1.1683  0.3999
   33ccc     O2 1010   0.682   2.823   3.538 -0.1815  0.1841  0.0536
   33ccc    H13 1011   0.134   3.139   3.711 -1.3612 -2.0398 -1.2393
   33ccc    H14 1012   0.305   3.156   3.754  0.5642 -0.7967 -0.1571
   33ccc     C9 1013   0.187   3.010   3.873  0.2538  0.0350  0.3738
   33ccc    H15 1014   0.142   3.082   3.943 -1.4744 -0.3575 -0.2900
   33ccc    H16 1015   0.280   2.980   3.923  1.1858  0.8726 -0.7904
   33ccc    C10 1016   0.097   2.890   3.865  0.7817  0.0970  0.6649
   33ccc     O4 1017   0.095   2.816   3.768  0.4162 -0.1036  0.5453
   33ccc    C11 1018   0.947   2.477   4.040  0.4226 -0.2699 -0.2912
   33ccc    C12 1019   0.862   2.340   3.919  0.7379 -0.3887 -0.2565
   33ccc    H17 1020   0.904   2.455   4.138 -1.0779  0.8032 -0.6849
   33ccc    C13 1021   0.754   2.402   3.760  0.6275 -0.5167  0.1184
   33ccc    C14 1022   0.738   2.604   3.713  0.1327  0.4930  0.3175
   33ccc    C15 1023   0.824   2.738   3.844  0.1900  0.2467  0.6520
   33ccc    H18 1024   0.802   2.615   3.625  0.8606 -0.1819  0.7461
   33ccc    H19 1025   0.654   2.364   3.782  1.5594 -1.6762  2.7138
   33ccc    H20 1026   0.742   2.794   3.890 -0.8756  0.1613 -1.0797
   33ccc     O1 1027   0.901   2.835   3.775 -0.8443 -0.1010  0.4650
   33ccc     O6 1028   0.791   2.328   3.644  0.4526 -0.2346 -0.0917
   33ccc    C16 1029   1.092   2.443   4.066 -1.0684 -0.1504 -0.1331
   33ccc    H21 1030   0.882   2.354   3.620  1.3243 -1.2254  1.8848
   33ccc    H22 1031   0.532   2.627   3.725  0.8492  0.0795  0.6448
   33ccc    H23 1032   1.141   2.465   3.970 -3.4867  1.2015 -1.1451
   33ccc    H24 1033   1.101   2.335   4.087 -0.1853 -0.1878 -0.6359
   33ccc     O7 1034   1.151   2.505   4.179  0.0400  0.2015 -0.0509
   33ccc    H25 1035   1.234   2.456   4.194 -0.2396 -0.5923 -0.9787
   33ccc     O8 1036   0.926   2.667   3.996  0.6251  0.2206  0.2234
   33ccc    H26 1037   0.932   2.796   3.692 -2.0697  1.5017 -0.8146
   33ccc    H27 1038   0.947   2.286   3.876  2.4921  0.7927  1.5574
   33ccc     O9 1039   0.780   2.240   3.996  0.2018 -0.6813  0.0914
   33ccc    H28 1040   0.829   2.220   4.078 -0.3393 -0.1323  0.5621
   33ccc     N3 1041   0.606   2.646   3.658  0.0738  0.8743 -0.0116
   33ccc    C17 1042  -0.155   2.894   4.337  0.2035  0.0962  1.0081
   33ccc    C18 1043  -0.022   2.820   4.344 -0.3786 -0.3748 -0.8135
   33ccc    H29 1044  -0.239   2.838   4.294  0.1854  0.8959 -0.0488
   33ccc    C19 1045   0.033   2.790   4.198  0.1772 -0.5974 -0.5517
   33ccc    C20 1046   0.025   2.903   4.102  0.5425  0.2429  0.5612
   33ccc    C21 1047  -0.110   2.964   4.113  0.1535  0.4425 -0.1154
   33ccc    H30 1048   0.101   2.980   4.123  0.5029  1.0362 -1.8548
   33ccc    H31 1049  -0.024   2.704   4.160  0.1939 -1.9750  2.2841
   33ccc    H32 1050  -0.189   2.893   4.087  1.5394 -1.9534  1.7185
   33ccc    O10 1051  -0.134   3.078   4.028  0.4493 -0.4768 -0.2057
   33ccc    O11 1052   0.167   2.770   4.216 -1.0502  0.0261 -0.6131
   33ccc    C22 1053  -0.201   2.964   4.464  0.6940 -0.4153 -0.2064
   33ccc    H33 1054   0.175   2.696   4.279 -1.1790  1.6333  1.3736
   33ccc    H34 1055  -0.025   2.767   3.952 -1.1736  0.5317 -1.2147
   33ccc    H35 1056  -0.206   2.884   4.539  3.2059 -1.8977 -1.4967
   33ccc    H36 1057  -0.302   2.997   4.437 -0.5960 -1.3397  3.0192
   33ccc    O12 1058  -0.114   3.069   4.495  0.0529 -0.5601  0.3796
   33ccc    H37 1059  -0.091   3.111   4.410 -0.3993  0.1612  0.5994
   33ccc    O13 1060  -0.134   3.006   4.247  0.0092 -0.2194  0.0901
   33ccc    H38 1061  -0.211   3.129   4.061  0.7164  0.3466 -0.8150
   33ccc    H39 1062   0.049   2.887   4.393 -1.2218  1.2015 -1.6749
   33ccc     O5 1063  -0.039   2.701   4.418  0.5770  0.0849  0.8660
   33ccc    H40 1064  -0.079   2.716   4.506 -1.9945  1.9897 -0.4749
   33ccc     N4 1065   0.025   2.854   3.968 -0.2575 -0.3332  1.1611
   33ccc    H41 1066   0.187   2.918   3.609  0.1027 -1.4880 -0.7914
   34ccc     N1 1067  -1.050   3.888   3.149  0.0442 -0.0218 -0.3839
   34ccc     H4 1068  -1.051   3.836   3.237 -1.9843  0.7926  0.1315
   34ccc     C3 1069  -1.151   3.992   3.122  0.1411 -0.2007 -0.3555
   34ccc     H5 1070  -1.095   4.073   3.073 -0.4394  0.6364  0.3264
   34ccc     C4 1071  -1.213   4.050   3.246 -0.1436 -0.1815 -0.0964
   34ccc     H6 1072  -1.221   3.954   3.047 -0.0731  0.7793 -0.6603
   34ccc     H7 1073  -1.131   4.049   3.318 -0.2571 -2.4228  0.0771
   34ccc     H8 1074  -1.286   3.978   3.286 -0.7406  0.7745  0.5974
   34ccc     N2 1075  -1.285   4.186   3.232 -0.6875 -0.0692 -0.2420
   34ccc     C5 1076  -1.267   4.271   3.360 -0.9000  0.3258  0.3042
   34ccc     C6 1077  -1.434   4.166   3.203 -0.6077 -0.3015  0.1225
   34ccc     H9 1078  -1.483   4.116   3.287 -1.6870  0.8285  0.1910
   34ccc     C7 1079  -1.472   4.098   3.069  0.5178 -0.2763 -0.0641
   34ccc    H10 1080  -1.484   4.263   3.193  0.9404  0.2768 -3.2595
   34ccc    H11 1081  -1.578   4.124   3.058  0.8182  0.1533 -2.5072
   34ccc    H12 1082  -1.465   3.989   3.067  1.0085 -0.2402 -0.3819
   34ccc     C8 1083  -1.399   4.142   2.946 -0.2574 -0.3060  0.4770
   34ccc     O2 1084  -1.316   4.229   2.950 -0.6849  0.2651 -0.1079
   34ccc    H13 1085  -1.234   4.205   3.441 -0.0278 -0.4694 -0.6857
   34ccc    H14 1086  -1.366   4.307   3.392 -1.4010 -0.6150 -0.1768
   34ccc     C9 1087  -1.165   4.388   3.356  0.6885  0.1839  0.0100
   34ccc    H15 1088  -1.066   4.342   3.347  1.2806  1.7317 -1.9191
   34ccc    H16 1089  -1.147   4.439   3.451  1.0471 -1.8169  1.0836
   34ccc    C10 1090  -1.191   4.474   3.230  0.1470 -0.1074 -0.3887
   34ccc     O4 1091  -1.265   4.449   3.136 -0.1186 -0.7129 -0.1299
   34ccc    C11 1092  -1.308   4.119   2.415 -0.5567  0.0581  0.6615
   34ccc    C12 1093  -1.403   4.227   2.475  0.6520 -0.5057 -0.4856
   34ccc    H17 1094  -1.385   4.049   2.379 -3.0568  2.0450  1.8158
   34ccc    C13 1095  -1.470   4.176   2.604 -0.2624 -0.0530 -0.7934
   34ccc    C14 1096  -1.359   4.124   2.699 -0.5150 -0.0198 -0.2323
   34ccc    C15 1097  -1.277   4.009   2.633  0.4869 -0.0964  0.4711
   34ccc    H18 1098  -1.291   4.204   2.728  0.8923 -2.0326  2.4398
   34ccc    H19 1099  -1.536   4.095   2.570 -0.8249 -0.4183  1.0392
   34ccc    H20 1100  -1.337   3.920   2.612  1.0707 -0.0754 -1.3858
   34ccc     O1 1101  -1.170   3.969   2.710  0.6984 -0.6298 -0.0951
   34ccc     O6 1102  -1.544   4.283   2.660  0.8678  0.0275 -0.3359
   34ccc    C16 1103  -1.231   4.163   2.286 -0.4327 -0.0732  0.0284
   34ccc    H21 1104  -1.590   4.249   2.739  3.2783  0.4919  1.3793
   34ccc    H22 1105  -1.491   4.010   2.816  0.7710 -0.1373 -0.4056
   34ccc    H23 1106  -1.290   4.219   2.211  1.5729  0.7277 -1.0316
   34ccc    H24 1107  -1.196   4.072   2.236 -0.4841  1.2496 -2.5993
   34ccc     O7 1108  -1.117   4.239   2.327 -0.2325 -0.1017  0.5394
   34ccc    H25 1109  -1.045   4.176   2.341 -1.8101 -2.4778 -1.2000
   34ccc     O8 1110  -1.217   4.064   2.512 -0.2793 -0.2035 -0.4047
   34ccc    H26 1111  -1.213   3.897   2.759 -0.6756 -1.4133 -2.2803
   34ccc    H27 1112  -1.349   4.316   2.510 -1.9768  0.5188  1.2617
   34ccc     O9 1113  -1.499   4.272   2.379 -0.2015 -0.0914 -0.3785
   34ccc    H28 1114  -1.532   4.352   2.424 -0.0525 -0.1809 -0.1034
   34ccc     N3 1115  -1.421   4.083   2.828  0.1837  0.4262 -0.3602
   34ccc    C17 1116  -1.060   4.927   2.987  0.2183  0.2689 -0.3869
   34ccc    C18 1117  -0.999   4.799   2.939 -0.0323 -0.1597 -0.0717
   34ccc    H29 1118  -1.000   4.970   3.068 -0.6815 -0.0452  0.4636
   34ccc    C19 1119  -0.990   4.699   3.052  0.1137  0.3685 -0.4175
   34ccc    C20 1120  -1.128   4.685   3.124  0.2137  0.5817 -0.2097
   34ccc    C21 1121  -1.172   4.827   3.177 -0.6339 -0.6984 -0.2548
   34ccc    H30 1122  -1.194   4.655   3.042 -0.2685  0.3963  0.2405
   34ccc    H31 1123  -0.916   4.736   3.124 -0.0839  0.8531 -0.4635
   34ccc    H32 1124  -1.101   4.856   3.255 -0.3949 -1.9982  0.0324
   34ccc    O10 1125  -1.300   4.835   3.236 -0.1156 -0.4996 -0.4740
   34ccc    O11 1126  -0.956   4.567   3.007  0.0037  0.4681  0.7410
   34ccc    C22 1127  -1.077   5.043   2.884 -0.1910 -0.8502 -0.0638
   34ccc    H33 1128  -0.871   4.567   2.960  0.7954 -0.2754  2.1129
   34ccc    H34 1129  -1.039   4.598   3.293 -0.1371  2.5872  0.0639
   34ccc    H35 1130  -1.182   5.048   2.856  0.0596  0.9183 -0.8355
   34ccc    H36 1131  -1.014   5.014   2.800 -1.3525 -1.6959 -0.6627
   34ccc    O12 1132  -1.033   5.167   2.943 -0.2379  0.3651  0.2789
   34ccc    H37 1133  -1.042   5.235   2.874 -2.2575 -0.1028  0.0223
   34ccc    O13 1134  -1.184   4.914   3.060  0.4258 -0.3751 -0.0976
   34ccc    H38 1135  -1.308   4.779   3.315 -0.9921  2.0314  1.3284
   34ccc    H39 1136  -1.060   4.762   2.856  0.2544  1.7695 -1.1825
   34ccc     O5 1137  -0.866   4.831   2.902  0.1069  0.5210  0.8939
   34ccc    H40 1138  -0.823   4.748   2.874 -2.6783 -0.1235 -2.1049
   34ccc     N4 1139  -1.120   4.587   3.232  0.4234 -0.6846 -0.2997
   34ccc    H41 1140  -1.226   4.234   3.162 -1.3533  0.4870 -0.4244
   35ccc     N1 1141  -1.256   3.359   2.841  0.3968  0.1095 -0.0954
   35ccc     H4 1142  -1.234   3.271   2.886 -0.1884  0.2021  0.3807
   35ccc     C3 1143  -1.348   3.373   2.722 -0.0100 -0.0926 -0.2537
   35ccc     H5 1144  -1.438   3.313   2.744 -1.6846  2.3586 -0.0443
   35ccc     C4 1145  -1.285   3.328   2.586 -0.0194  0.6434 -0.2628
   35ccc     H6 1146  -1.381   3.477   2.720 -0.2715 -0.0637  2.2566
   35ccc     H7 1147  -1.228   3.235   2.597  1.7332  1.6485 -0.6155
   35ccc     H8 1148  -1.205   3.398   2.559  1.9758 -1.6583 -0.6626
   35ccc     N2 1149  -1.380   3.319   2.467 -0.2403 -0.3947  0.2111
   35ccc     C5 1150  -1.437   3.454   2.423  0.6907  0.1934 -0.3586
   35ccc     C6 1151  -1.481   3.199   2.480 -0.2880  0.0029  0.5276
   35ccc     H9 1152  -1.544   3.227   2.565 -1.0392  1.0632 -0.3518
   35ccc     C7 1153  -1.434   3.056   2.503  0.2552  0.4924  0.4261
   35ccc    H10 1154  -1.533   3.197   2.383  0.9848  0.8283 -0.1944
   35ccc    H11 1155  -1.516   2.984   2.489 -2.2916  2.9949  1.5170
   35ccc    H12 1156  -1.398   3.038   2.605  0.7360  0.8254  0.3178
   35ccc     C8 1157  -1.324   3.018   2.399 -0.2454  0.3708  0.3122
   35ccc     O2 1158  -1.313   3.077   2.291 -0.6734 -0.2391 -0.3554
   35ccc    H13 1159  -1.351   3.522   2.412  0.7188  0.0832 -0.8414
   35ccc    H14 1160  -1.491   3.498   2.507  0.9645  0.5799 -0.3825
   35ccc     C9 1161  -1.518   3.464   2.291  1.0851 -0.4296  0.4510
   35ccc    H15 1162  -1.549   3.569   2.278 -1.5650 -0.9285  1.9922
   35ccc    H16 1163  -1.610   3.409   2.314  0.2918  1.0249  0.9301
   35ccc    C10 1164  -1.446   3.415   2.159 -0.5688 -0.4768 -0.3936
   35ccc     O4 1165  -1.330   3.370   2.154 -0.1767 -0.1479 -0.5554
   35ccc    C11 1166  -1.017   2.723   2.125  0.3272  0.1844 -0.0596
   35ccc    C12 1167  -0.946   2.801   2.231  0.0823  0.2067  0.6793
   35ccc    H17 1168  -1.044   2.792   2.044  1.4387 -0.7161 -1.2329
   35ccc    C13 1169  -1.037   2.891   2.312  0.3162 -0.2882  0.0608
   35ccc    C14 1170  -1.167   2.813   2.356  0.3572  0.2152  0.1899
   35ccc    C15 1171  -1.237   2.739   2.237 -0.3381  0.2640  0.5269
   35ccc    H18 1172  -1.129   2.735   2.422  0.5923  0.6962  0.6284
   35ccc    H19 1173  -1.077   2.982   2.265 -2.2944 -1.2649  0.1908
   35ccc    H20 1174  -1.281   2.810   2.165  1.6329  0.3781 -0.6598
   35ccc     O1 1175  -1.326   2.632   2.276  0.3403 -0.5643 -0.1194
   35ccc     O6 1176  -0.974   2.936   2.431  0.0122  0.3902 -0.0786
   35ccc    C16 1177  -0.928   2.610   2.069  0.7312  0.7038 -0.2168
   35ccc    H21 1178  -1.036   2.996   2.475  0.1817 -0.1956  0.9753
   35ccc    H22 1179  -1.294   2.852   2.514 -1.7809  0.0104  0.1544
   35ccc    H23 1180  -0.930   2.532   2.145  0.7074 -0.5932 -1.5064
   35ccc    H24 1181  -0.826   2.649   2.067  0.9952  0.0153 -2.3763
   35ccc     O7 1182  -0.974   2.568   1.939  0.2059  0.3338  0.1202
   35ccc    H25 1183  -0.905   2.514   1.896 -0.7826 -0.9912  0.1286
   35ccc     O8 1184  -1.141   2.659   2.168 -0.3880 -0.5387  0.6780
   35ccc    H26 1185  -1.307   2.572   2.202  0.7026 -0.1615 -0.3592
   35ccc    H27 1186  -0.906   2.730   2.304  1.5815  0.2583 -0.0725
   35ccc     O9 1187  -0.839   2.880   2.183 -0.7158 -0.4623  0.5342
   35ccc    H28 1188  -0.826   2.952   2.248  1.0332  0.0108 -0.2892
   35ccc     N3 1189  -1.263   2.905   2.433 -0.5066 -0.3313  0.4089
   35ccc    C17 1190  -1.851   3.475   1.825  0.2779 -0.2070  0.4358
   35ccc    C18 1191  -1.857   3.358   1.923 -0.1086 -0.3393 -0.5300
   35ccc    H29 1192  -1.798   3.453   1.731 -1.2592 -1.8118 -0.1046
   35ccc    C19 1193  -1.719   3.327   1.976 -0.5377  0.2999  0.2307
   35ccc    C20 1194  -1.644   3.451   2.018  0.5858 -0.2222 -0.5828
   35ccc    C21 1195  -1.645   3.561   1.909  0.5076 -0.2594  0.3954
   35ccc    H30 1196  -1.695   3.495   2.104  0.7628 -0.8859 -0.1310
   35ccc    H31 1197  -1.669   3.282   1.889 -1.4310 -0.4940  0.1070
   35ccc    H32 1198  -1.584   3.535   1.822 -0.1826 -1.9677  0.3829
   35ccc    O10 1199  -1.604   3.682   1.969  0.5404 -0.5971 -0.0421
   35ccc    O11 1200  -1.728   3.234   2.085 -0.3808 -0.1232  0.4870
   35ccc    C22 1201  -1.990   3.518   1.772 -0.3628 -0.8216  0.0186
   35ccc    H33 1202  -1.791   3.167   2.054  0.6421 -0.6319 -0.5534
   35ccc    H34 1203  -1.446   3.395   1.963  0.3212  1.6964 -0.2402
   35ccc    H35 1204  -2.027   3.590   1.846  1.3824  1.9288 -1.5856
   35ccc    H36 1205  -2.055   3.431   1.757 -0.5708 -0.4145 -1.6744
   35ccc    O12 1206  -1.982   3.588   1.649 -0.2019 -0.3952 -0.1060
   35ccc    H37 1207  -2.057   3.650   1.643  0.4746  0.7960  2.3750
   35ccc    O13 1208  -1.782   3.588   1.880  0.2179 -0.1734 -0.3586
   35ccc    H38 1209  -1.668   3.745   1.932  1.3993  0.7467  0.6721
   35ccc    H39 1210  -1.912   3.388   2.013  2.8166 -1.1879  1.6976
   35ccc     O5 1211  -1.911   3.247   1.862  0.5788 -0.1859 -0.3528
   35ccc    H40 1212  -2.005   3.275   1.859  0.6843  0.1059 -1.1027
   35ccc     N4 1213  -1.507   3.415   2.042 -0.2596  0.2840 -0.2983
   35ccc    H41 1214  -1.311   3.290   2.396  2.5699  0.8404  2.2402
   36ccc     N1 1215  -1.475   5.013   3.055 -0.0941  0.2306 -0.4156
   36ccc     H4 1216  -1.450   4.944   3.125  1.9995 -1.0674 -2.2953
   36ccc     C3 1217  -1.454   5.156   3.086  0.3408  0.8147  0.0055
   36ccc     H5 1218  -1.410   5.166   3.187 -2.6430  2.6792  1.2402
   36ccc     C4 1219  -1.591   5.223   3.091  0.0294 -0.5273  0.4803
   36ccc     H6 1220  -1.382   5.199   3.015  1.0306 -0.3764 -0.0618
   36ccc     H7 1221  -1.585   5.319   3.143  3.0079 -0.4974  0.2895
   36ccc     H8 1222  -1.660   5.165   3.153 -2.0851  0.8566 -0.4614
   36ccc     N2 1223  -1.649   5.239   2.943  0.2833 -0.8547 -0.2655
   36ccc     C5 1224  -1.594   5.372   2.881 -0.4425  0.0721 -0.6618
   36ccc     C6 1225  -1.801   5.224   2.952  0.0716 -0.1079  0.6398
   36ccc     H9 1226  -1.837   5.199   2.851 -0.1124 -2.2062  1.1764
   36ccc     C7 1227  -1.880   5.343   3.009 -0.3367 -0.1469 -0.2061
   36ccc    H10 1228  -1.830   5.135   3.010 -0.1107  0.2784  1.1511
   36ccc    H11 1229  -1.847   5.441   2.971 -0.4768 -0.9987 -2.6922
   36ccc    H12 1230  -1.852   5.345   3.116 -1.4030 -2.3363  0.1568
   36ccc     C8 1231  -2.031   5.334   3.002 -0.7282 -0.0088  0.2161
   36ccc     O2 1232  -2.076   5.227   2.957 -0.0149 -0.2622  0.6047
   36ccc    H13 1233  -1.492   5.375   2.923 -0.5366 -0.7310 -0.3382
   36ccc    H14 1234  -1.657   5.456   2.910  0.4205  0.2011  1.0259
   36ccc     C9 1235  -1.579   5.374   2.726  0.3146  0.1346  0.1367
   36ccc    H15 1236  -1.595   5.472   2.679 -1.1491  0.2932  0.9199
   36ccc    H16 1237  -1.660   5.310   2.690  1.6979 -1.7934  0.2777
   36ccc    C10 1238  -1.451   5.319   2.668  0.2422 -0.6419 -0.9540
   36ccc     O4 1239  -1.351   5.297   2.743  0.7011  0.2831  0.3476
   36ccc    C11 1240  -2.512   5.488   2.943 -0.2395 -0.6190  0.5760
   36ccc    C12 1241  -2.485   5.398   3.069 -0.0779 -0.1370  0.5822
   36ccc    H17 1242  -2.525   5.422   2.855  0.0306 -0.0986  0.1434
   36ccc    C13 1243  -2.336   5.347   3.065  0.3415  0.0489 -0.1778
   36ccc    C14 1244  -2.245   5.469   3.043  0.1349 -0.0556  0.0451
   36ccc    C15 1245  -2.276   5.523   2.904  0.1636 -0.1620  0.6092
   36ccc    H18 1246  -2.260   5.543   3.122  0.0732 -0.1672  0.1384
   36ccc    H19 1247  -2.326   5.290   2.971 -0.0981  0.5813 -0.5588
   36ccc    H20 1248  -2.283   5.445   2.827 -0.4663 -0.5828  1.0892
   36ccc     O1 1249  -2.192   5.629   2.866  0.4144  0.0902 -0.0296
   36ccc     O6 1250  -2.300   5.270   3.175  0.3853  0.3140 -0.4675
   36ccc    C16 1251  -2.644   5.575   2.965  0.3989  0.6598  0.6404
   36ccc    H21 1252  -2.206   5.250   3.164  0.1462 -1.8378  0.8725
   36ccc    H22 1253  -2.044   5.517   3.088 -0.2460 -0.0381 -0.7993
   36ccc    H23 1254  -2.731   5.508   2.969  0.9050 -0.1587 -1.1293
   36ccc    H24 1255  -2.656   5.632   2.872  0.2348  1.1178  0.9357
   36ccc     O7 1256  -2.632   5.660   3.076  0.3836 -0.1817 -0.7319
   36ccc    H25 1257  -2.719   5.687   3.111  0.9913 -1.1997  1.6955
   36ccc     O8 1258  -2.407   5.578   2.909 -0.1417  0.3412 -0.0903
   36ccc    H26 1259  -2.241   5.673   2.795 -1.9099  0.6055  1.7798
   36ccc    H27 1260  -2.493   5.457   3.161  1.5033  0.6607  0.2388
   36ccc     O9 1261  -2.569   5.285   3.070  0.2909  1.0110  0.1077
   36ccc    H28 1262  -2.525   5.210   3.114  2.0777  1.5057 -0.7470
   36ccc     N3 1263  -2.100   5.440   3.054 -0.4479 -0.3822  0.2626
   36ccc    C17 1264  -1.108   5.024   2.461  0.2726  0.0564  0.4915
   36ccc    C18 1265  -1.254   4.957   2.476 -0.0079 -0.5188  0.3044
   36ccc    H29 1266  -1.057   5.029   2.558 -0.5377  3.1344  0.8736
   36ccc    C19 1267  -1.366   5.040   2.533 -0.2505 -0.1059  0.6793
   36ccc    C20 1268  -1.354   5.188   2.481  1.3506  0.3224  0.0474
   36ccc    C21 1269  -1.211   5.238   2.494  0.2378 -0.1104 -1.4786
   36ccc    H30 1270  -1.366   5.189   2.372  1.5407 -3.1754 -0.1338
   36ccc    H31 1271  -1.350   5.049   2.642  2.9113  3.2927  0.1364
   36ccc    H32 1272  -1.172   5.232   2.596  2.4441 -0.1999 -2.2843
   36ccc    O10 1273  -1.197   5.368   2.451 -0.9233  0.1326 -0.2188
   36ccc    O11 1274  -1.493   4.985   2.510 -0.7148  0.3361  0.0723
   36ccc    C22 1275  -1.030   4.942   2.350 -0.6875 -0.1296 -0.5990
   36ccc    H33 1276  -1.498   4.994   2.413  2.1472  0.4526 -0.1246
   36ccc    H34 1277  -1.549   5.263   2.503  0.4602  1.9353 -2.0336
   36ccc    H35 1278  -1.060   4.972   2.249  0.3495  0.5955 -0.7066
   36ccc    H36 1279  -1.056   4.837   2.368  0.7848 -0.6681 -1.4919
   36ccc    O12 1280  -0.889   4.954   2.370  0.2932  0.3150 -0.1288
   36ccc    H37 1281  -0.869   4.900   2.449  1.4749  0.9708  0.0469
   36ccc    O13 1282  -1.137   5.155   2.408  0.0495 -0.4373  0.1091
   36ccc    H38 1283  -1.226   5.359   2.358  0.4820 -0.2702 -0.6394
   36ccc    H39 1284  -1.281   4.935   2.372 -1.8752 -0.3876  0.7169
   36ccc     O5 1285  -1.230   4.836   2.554 -0.3094 -0.1755 -0.0687
   36ccc    H40 1286  -1.192   4.763   2.503 -0.1515 -0.4398  0.4193
   36ccc     N4 1287  -1.455   5.281   2.538 -0.0992  0.6743  0.3298
   36ccc    H41 1288  -1.601   5.163   2.895  0.7851 -2.2207  2.2115
   37ccc     N1 1289  -2.039   4.652   2.666 -0.0919  0.0167 -0.2918
   37ccc     H4 1290  -2.005   4.736   2.621  0.8821 -1.0613 -1.6413
   37ccc     C3 1291  -2.180   4.620   2.641  0.4863 -0.5658 -0.0579
   37ccc     H5 1292  -2.224   4.664   2.551  0.3822 -2.2883 -0.8843
   37ccc     C4 1293  -2.262   4.652   2.764 -0.3504 -0.3122  0.7762
   37ccc     H6 1294  -2.174   4.514   2.614  2.4773 -0.5982  0.3973
   37ccc     H7 1295  -2.366   4.631   2.740 -0.1340  1.0040 -1.6758
   37ccc     H8 1296  -2.247   4.761   2.773  0.6896 -0.2017 -1.5287
   37ccc     N2 1297  -2.233   4.597   2.898 -0.5490  0.1864  0.0942
   37ccc     C5 1298  -2.264   4.446   2.894 -0.2158  0.2121  0.4914
   37ccc     C6 1299  -2.303   4.664   3.011  0.0687 -0.5356  0.5207
   37ccc     H9 1300  -2.409   4.662   2.985  0.3172  4.3437 -2.0706
   37ccc     C7 1301  -2.257   4.809   3.041  0.7640 -0.3486 -0.2022
   37ccc    H10 1302  -2.295   4.623   3.112  1.7100 -0.4035  0.4731
   37ccc    H11 1303  -2.312   4.862   3.120  3.5278  1.1776  0.8574
   37ccc    H12 1304  -2.270   4.873   2.952  1.2082  0.6731  0.4403
   37ccc     C8 1305  -2.106   4.830   3.050  0.1716 -0.1966 -0.2568
   37ccc     O2 1306  -2.021   4.785   2.975 -0.5206  1.1136 -0.4501
   37ccc    H13 1307  -2.205   4.392   2.819 -2.9809 -0.8483 -1.0693
   37ccc    H14 1308  -2.369   4.433   2.865  0.3161  1.4058 -2.3032
   37ccc     C9 1309  -2.235   4.366   3.019  0.0595 -0.6087  0.8545
   37ccc    H15 1310  -2.271   4.264   3.005  0.2942 -0.2737 -3.7675
   37ccc    H16 1311  -2.301   4.398   3.100 -0.6487 -0.6514  0.3033
   37ccc    C10 1312  -2.091   4.373   3.070 -0.0205 -0.2442  0.4197
   37ccc     O4 1313  -2.036   4.477   3.106 -0.4005  0.1798  0.1137
   37ccc    C11 1314  -1.729   4.952   3.416  0.3603  0.4286  0.2559
   37ccc    C12 1315  -1.708   4.832   3.313 -0.0755  0.0294 -0.0010
   37ccc    H17 1316  -1.793   4.921   3.499 -1.2469  0.6289 -0.8532
   37ccc    C13 1317  -1.847   4.799   3.246  0.1741 -0.1459  0.0586
   37ccc    C14 1318  -1.926   4.928   3.195 -1.1971 -0.3207  0.0184
   37ccc    C15 1319  -1.929   5.041   3.302  0.2980 -0.4606 -0.0291
   37ccc    H18 1320  -1.857   4.967   3.119  1.8354  1.7084  3.5038
   37ccc    H19 1321  -1.912   4.750   3.320  0.3733 -1.0390 -0.3432
   37ccc    H20 1322  -1.997   5.016   3.383 -1.1733  1.1430 -0.7179
   37ccc     O1 1323  -1.965   5.171   3.250  0.3807  0.2455  0.0847
   37ccc     O6 1324  -1.824   4.707   3.136 -0.2357  0.4164 -0.0089
   37ccc    C16 1325  -1.594   5.001   3.474 -0.1865  0.2524 -0.5461
   37ccc    H21 1326  -1.907   4.698   3.086  0.1950  0.8994 -0.8167
   37ccc    H22 1327  -2.126   4.916   3.234 -0.2367 -2.8560  0.3739
   37ccc    H23 1328  -1.530   4.912   3.474 -0.4775  0.0428 -0.3392
   37ccc    H24 1329  -1.606   5.026   3.580 -0.7247 -1.6604 -0.1178
   37ccc     O7 1330  -1.529   5.101   3.396 -0.2085 -0.0079  0.3867
   37ccc    H25 1331  -1.588   5.177   3.407 -1.1637 -0.8439  1.3345
   37ccc     O8 1332  -1.790   5.059   3.339 -0.1388 -0.0877  0.0800
   37ccc    H26 1333  -1.941   5.236   3.318  1.6685 -0.7937  0.6560
   37ccc    H27 1334  -1.646   4.868   3.230 -0.3543  1.6254  0.4333
   37ccc     O9 1335  -1.657   4.715   3.376 -0.0302  0.1471 -0.0071
   37ccc    H28 1336  -1.719   4.681   3.442 -2.5308  1.2942 -1.6313
   37ccc     N3 1337  -2.063   4.893   3.157  0.0251  0.0393 -0.3732
   37ccc    C17 1338  -1.764   4.283   3.434 -0.1768  0.5325  0.0279
   37ccc    C18 1339  -1.882   4.183   3.429 -0.2494  0.9209  0.2800
   37ccc    H29 1340  -1.802   4.377   3.475  0.0647  1.4241 -1.6801
   37ccc    C19 1341  -1.986   4.206   3.324  0.0337 -0.0882  0.7721
   37ccc    C20 1342  -1.922   4.232   3.187  0.2521 -1.1765 -0.1157
   37ccc    C21 1343  -1.810   4.338   3.198 -0.0428  0.3779 -0.9391
   37ccc    H30 1344  -1.875   4.135   3.167  2.8617  0.0069  0.0113
   37ccc    H31 1345  -2.041   4.296   3.353 -0.0350 -0.0925  0.6562
   37ccc    H32 1346  -1.846   4.434   3.236  2.6430  0.6466  1.1465
   37ccc    O10 1347  -1.734   4.351   3.077 -0.0905  0.0363 -0.0533
   37ccc    O11 1348  -2.075   4.094   3.311 -0.0307  0.0393 -0.2385
   37ccc    C22 1349  -1.645   4.250   3.532  1.3660 -0.1951 -0.3285
   37ccc    H33 1350  -2.164   4.129   3.325  0.6561  1.9718 -0.3996
   37ccc    H34 1351  -2.071   4.169   3.064  1.3403 -0.4819  3.5939
   37ccc    H35 1352  -1.668   4.269   3.637  2.9880  1.8146 -0.2538
   37ccc    H36 1353  -1.559   4.318   3.519  1.0733  0.5390  1.3032
   37ccc    O12 1354  -1.588   4.121   3.522  0.3389  0.7175 -0.2827
   37ccc    H37 1355  -1.539   4.097   3.602 -2.1716  0.3560  1.2608
   37ccc    O13 1356  -1.710   4.301   3.300  0.5553  0.0608  0.8770
   37ccc    H38 1357  -1.660   4.412   3.094 -0.3907  0.1300  0.9307
   37ccc    H39 1358  -1.831   4.089   3.403 -2.9260 -0.5352 -0.0757
   37ccc     O5 1359  -1.948   4.173   3.562  0.4994 -0.1814 -0.2747
   37ccc    H40 1360  -1.987   4.084   3.573  0.7573 -0.0182  3.1004
   37ccc     N4 1361  -2.024   4.259   3.077  0.4852  0.6192  0.2031
   37ccc    H41 1362  -2.136   4.615   2.928 -0.7621 -0.7552  1.4488
   38ccc     N1 1363   0.010   4.193   0.200 -0.9676  0.4445  0.7938
   38ccc     H4 1364   0.068   4.237   0.271 -1.2170  1.7462  0.2247
   38ccc     C3 1365   0.070   4.134   0.075  0.3331  0.4915 -0.8452
   38ccc     H5 1366   0.127   4.042   0.090  0.3190  0.3082 -1.8301
   38ccc     C4 1367   0.154   4.245  -0.002 -0.3191  0.0516 -0.4897
   38ccc     H6 1368  -0.015   4.100   0.014  0.3961  0.8692 -1.1523
   38ccc     H7 1369   0.221   4.296   0.069  0.5010 -1.3735 -0.1948
   38ccc     H8 1370   0.079   4.314  -0.042 -0.1352  0.8544  0.4839
   38ccc     N2 1371   0.236   4.187  -0.120 -1.2017 -0.1764 -0.4405
   38ccc     C5 1372   0.159   4.096  -0.217 -0.0858 -0.4882 -0.2483
   38ccc     C6 1373   0.361   4.113  -0.073  0.1390  0.1818 -0.1729
   38ccc     H9 1374   0.346   4.011  -0.037 -1.1574 -0.5706 -2.6150
   38ccc     C7 1375   0.455   4.186   0.018 -0.4865  0.3127  0.0069
   38ccc    H10 1376   0.411   4.107  -0.170  1.7871  3.8009  0.2843
   38ccc    H11 1377   0.410   4.207   0.116 -0.5053  1.1254 -0.1731
   38ccc    H12 1378   0.485   4.282  -0.027 -2.9721  1.2966  0.3015
   38ccc     C8 1379   0.586   4.115   0.035 -0.0106  1.3293  0.1676
   38ccc     O2 1380   0.621   4.020  -0.028  0.3550 -0.1342  0.1999
   38ccc    H13 1381   0.111   4.016  -0.160  2.0418 -0.5902  1.5145
   38ccc    H14 1382   0.234   4.041  -0.274  0.1114  1.6433 -2.2030
   38ccc     C9 1383   0.054   4.168  -0.299  0.8817  0.0568  0.1450
   38ccc    H15 1384   0.092   4.262  -0.341  0.6566 -1.1083 -2.9298
   38ccc    H16 1385  -0.021   4.212  -0.232  1.5301 -1.0745  1.6495
   38ccc    C10 1386  -0.009   4.081  -0.411  0.3760 -0.1868 -0.2202
   38ccc     O4 1387   0.046   3.989  -0.466  0.4228 -0.4814  0.0679
   38ccc    C11 1388   1.049   4.137   0.296 -0.4054  0.1451  0.4292
   38ccc    C12 1389   0.942   4.068   0.382 -0.5185 -0.0416  0.0451
   38ccc    H17 1390   1.045   4.245   0.318 -1.6953 -0.1732  1.9375
   38ccc    C13 1391   0.806   4.134   0.339  0.2796  0.0870  0.3608
   38ccc    C14 1392   0.786   4.112   0.186  0.1229  0.8282 -0.4491
   38ccc    C15 1393   0.910   4.167   0.098  0.1994  0.6078  0.2504
   38ccc    H18 1394   0.785   4.003   0.169  1.3307  0.6895  0.2811
   38ccc    H19 1395   0.805   4.241   0.363 -0.4593  0.6788 -2.0899
   38ccc    H20 1396   0.906   4.276   0.103 -2.0853  0.8134 -3.0570
   38ccc     O1 1397   0.917   4.129  -0.030  0.4398 -0.2092 -0.0434
   38ccc     O6 1398   0.712   4.055   0.411  0.0876 -0.1660  0.6040
   38ccc    C16 1399   1.196   4.094   0.333  0.0671  0.1734  0.3190
   38ccc    H21 1400   0.720   3.972   0.360  1.2145 -0.7228  1.6380
   38ccc    H22 1401   0.638   4.260   0.161 -0.8751 -0.1622 -0.3080
   38ccc    H23 1402   1.207   3.987   0.310 -2.4234 -0.4394  1.5396
   38ccc    H24 1403   1.199   4.103   0.443 -1.4043  0.6012  0.3467
   38ccc     O7 1404   1.290   4.173   0.269 -0.2848  0.0184  0.2045
   38ccc    H25 1405   1.297   4.263   0.304  2.1280  0.7974 -1.9631
   38ccc     O8 1406   1.025   4.104   0.154 -0.1177  0.1837 -0.4980
   38ccc    H26 1407   1.010   4.148  -0.051  0.5958 -0.0008  0.8033
   38ccc    H27 1408   0.938   3.961   0.359  0.8121 -0.6962  2.4949
   38ccc     O9 1409   0.958   4.089   0.524 -0.0757  0.0658 -0.4447
   38ccc    H28 1410   0.873   4.070   0.567 -0.5670  4.2469  0.8595
   38ccc     N3 1411   0.657   4.164   0.132  0.1729 -0.1161  0.1963
   38ccc    C17 1412  -0.511   3.997  -0.246  0.0123 -0.2953  0.1350
   38ccc    C18 1413  -0.381   3.956  -0.172  0.0751 -0.3212  0.7610
   38ccc    H29 1414  -0.530   3.921  -0.323  2.3179 -0.2054 -0.6089
   38ccc    C19 1415  -0.257   3.965  -0.267  0.0296 -0.4414  0.4019
   38ccc    C20 1416  -0.243   4.102  -0.344 -0.4941 -0.2175 -0.4610
   38ccc    C21 1417  -0.374   4.139  -0.407  0.9127  0.1650  0.0066
   38ccc    H30 1418  -0.226   4.181  -0.269 -2.1476 -0.8437  0.6278
   38ccc    H31 1419  -0.259   3.885  -0.342  0.6862  1.6297 -1.9807
   38ccc    H32 1420  -0.395   4.075  -0.494 -0.3743  1.7023 -0.8714
   38ccc    O10 1421  -0.373   4.273  -0.454 -0.1797  0.1562 -0.2865
   38ccc    O11 1422  -0.143   3.959  -0.177 -0.6134  0.8805  0.0357
   38ccc    C22 1423  -0.633   4.022  -0.163 -0.5662 -0.1178 -0.9179
   38ccc    H33 1424  -0.135   3.872  -0.134  1.9391  0.8480 -0.3358
   38ccc    H34 1425  -0.176   4.024  -0.514 -0.3368 -0.3241  0.2244
   38ccc    H35 1426  -0.606   4.110  -0.104  1.5132 -0.6500 -0.9689
   38ccc    H36 1427  -0.638   3.939  -0.091  1.6243  0.4450 -0.0298
   38ccc    O12 1428  -0.759   4.045  -0.236  0.2564 -0.5297 -0.5241
   38ccc    H37 1429  -0.769   3.993  -0.317 -2.3931 -0.3678 -0.3971
   38ccc    O13 1430  -0.490   4.129  -0.310 -0.3948  0.3222  0.4192
   38ccc    H38 1431  -0.461   4.287  -0.494 -0.0306  0.6355 -0.4517
   38ccc    H39 1432  -0.377   4.024  -0.086 -1.5996  3.6987 -2.0280
   38ccc     O5 1433  -0.403   3.824  -0.131 -0.0151  0.0852 -0.0455
   38ccc    H40 1434  -0.381   3.828  -0.036 -0.2552  0.8081 -0.0129
   38ccc     N4 1435  -0.140   4.083  -0.439 -0.1866 -0.2471  0.0916
   38ccc    H41 1436   0.264   4.271  -0.173 -1.2918 -0.9541 -1.7583
   39ccc     N1 1437  -0.495   3.905   0.799  0.0739 -1.3972 -0.0375
   39ccc     H4 1438  -0.430   3.853   0.856 -0.0188 -1.6570 -0.1677
   39ccc     C3 1439  -0.643   3.858   0.801  0.1946  0.0871  0.2979
   39ccc     H5 1440  -0.679   3.842   0.698 -0.4874 -1.4062  0.7448
   39ccc     C4 1441  -0.723   3.957   0.881 -0.1964  0.6091  0.0280
   39ccc     H6 1442  -0.652   3.765   0.858 -2.6132 -0.1427 -0.4004
   39ccc     H7 1443  -0.676   3.957   0.981 -0.2634 -1.5371  0.1158
   39ccc     H8 1444  -0.827   3.928   0.897 -0.0139  0.7278  1.5980
   39ccc     N2 1445  -0.727   4.096   0.817 -0.0022 -0.0378 -0.7011
   39ccc     C5 1446  -0.758   4.204   0.932 -0.0313 -0.8768  0.3220
   39ccc     C6 1447  -0.832   4.100   0.707 -0.8808 -0.2045 -0.4113
   39ccc     H9 1448  -0.815   4.015   0.640  1.7849 -0.1682  0.0980
   39ccc     C7 1449  -0.826   4.226   0.615 -0.2589  0.3146 -0.7710
   39ccc    H10 1450  -0.936   4.098   0.742 -1.0767  4.5041 -0.1202
   39ccc    H11 1451  -0.856   4.317   0.669  1.6679  1.4568 -1.5248
   39ccc    H12 1452  -0.903   4.210   0.538 -0.9908 -0.8906  0.1797
   39ccc     C8 1453  -0.694   4.253   0.555 -0.2900  0.5741 -0.3442
   39ccc     O2 1454  -0.599   4.306   0.611  0.3598 -0.2625  0.2019
   39ccc    H13 1455  -0.853   4.191   0.985 -1.1682  1.5040 -0.9457
   39ccc    H14 1456  -0.781   4.299   0.882 -0.0718 -0.4700  1.0911
   39ccc     C9 1457  -0.640   4.240   1.022 -0.6696 -0.1867 -0.1661
   39ccc    H15 1458  -0.614   4.157   1.090 -1.0905 -1.4424 -1.4940
   39ccc    H16 1459  -0.664   4.323   1.090 -0.1482 -0.5786  0.5181
   39ccc    C10 1460  -0.520   4.271   0.943 -0.1042  0.1065  0.4611
   39ccc     O4 1461  -0.440   4.184   0.909 -0.0187 -0.1886 -0.7080
   39ccc    C11 1462  -0.486   4.324   0.059  0.2455  0.0351  0.1994
   39ccc    C12 1463  -0.532   4.443   0.154  0.5958 -0.0763 -0.3272
   39ccc    H17 1464  -0.567   4.309  -0.013  0.8129 -0.6104 -0.3093
   39ccc    C13 1465  -0.632   4.398   0.262 -0.0922 -0.1621 -0.1267
   39ccc    C14 1466  -0.582   4.269   0.333  0.4435 -0.0193 -0.3514
   39ccc    C15 1467  -0.550   4.158   0.224  0.0728  0.0320 -0.4854
   39ccc    H18 1468  -0.488   4.279   0.388 -0.7426  0.2258  1.7378
   39ccc    H19 1469  -0.726   4.369   0.213  0.1466 -0.3906 -0.4539
   39ccc    H20 1470  -0.637   4.132   0.163 -1.0098  0.6291  0.7691
   39ccc     O1 1471  -0.490   4.038   0.276 -0.4821  0.6712 -1.1612
   39ccc     O6 1472  -0.657   4.504   0.355 -0.0288  0.0409 -0.1219
   39ccc    C16 1473  -0.377   4.356  -0.048  0.0524 -0.1631  0.2443
   39ccc    H21 1474  -0.680   4.592   0.322  0.6351  0.3772  0.2920
   39ccc    H22 1475  -0.769   4.183   0.376  0.0641  1.0583  0.0660
   39ccc    H23 1476  -0.392   4.457  -0.088 -1.0167  0.0965  1.2648
   39ccc    H24 1477  -0.381   4.280  -0.128  2.6823  0.5580 -0.7019
   39ccc     O7 1478  -0.247   4.347   0.005 -0.9913 -0.1635 -0.2884
   39ccc    H25 1479  -0.237   4.259   0.044  1.5220  0.2354  0.1478
   39ccc     O8 1480  -0.451   4.204   0.132 -0.1854  0.3094 -0.0517
   39ccc    H26 1481  -0.427   4.013   0.207  0.4725  2.2948 -0.9270
   39ccc    H27 1482  -0.448   4.467   0.220 -0.2651  2.2357  0.0538
   39ccc     O9 1483  -0.572   4.559   0.080  0.3704 -0.1485  0.0105
   39ccc    H28 1484  -0.589   4.629   0.146  0.1628 -0.4795  0.3143
   39ccc     N3 1485  -0.686   4.216   0.425  0.3471  0.4204  0.0199
   39ccc    C17 1486  -0.547   4.808   0.993 -0.6675 -1.0153 -0.1990
   39ccc    C18 1487  -0.646   4.751   0.886 -0.2974  0.6679 -0.5365
   39ccc    H29 1488  -0.457   4.833   0.935 -1.1357 -0.6926 -0.7925
   39ccc    C19 1489  -0.595   4.615   0.822  0.7186 -0.3052 -0.2463
   39ccc    C20 1490  -0.559   4.522   0.937  0.2195 -0.2305  0.8056
   39ccc    C21 1491  -0.453   4.589   1.036 -0.2310 -0.0536 -0.0948
   39ccc    H30 1492  -0.650   4.501   0.994  0.5285 -2.1998  0.6320
   39ccc    H31 1493  -0.515   4.638   0.751 -2.2626  0.2826 -3.6900
   39ccc    H32 1494  -0.366   4.621   0.978  0.3640 -1.5454 -0.0674
   39ccc    O10 1495  -0.417   4.503   1.142 -0.0016 -0.2618  0.2411
   39ccc    O11 1496  -0.702   4.554   0.745  0.0527 -0.0375  0.0414
   39ccc    C22 1497  -0.591   4.933   1.070  0.7225 -0.0997 -0.4384
   39ccc    H33 1498  -0.653   4.489   0.692 -0.1899 -0.4932  0.3655
   39ccc    H34 1499  -0.425   4.404   0.825 -0.9839 -0.6336 -1.3223
   39ccc    H35 1500  -0.681   4.907   1.127  0.3086  0.2316 -0.9325
   39ccc    H36 1501  -0.614   5.008   0.994 -1.9188 -2.2195 -1.8936
   39ccc    O12 1502  -0.483   4.972   1.160  0.2587  0.2466 -0.2732
   39ccc    H37 1503  -0.477   4.907   1.232  1.9412  0.8308  0.1461
   39ccc    O13 1504  -0.510   4.707   1.094  0.2668 -0.3542 -0.0461
   39ccc    H38 1505  -0.487   4.502   1.210  1.0215 -2.2260  1.3451
   39ccc    H39 1506  -0.745   4.728   0.928  0.0091  1.1791  0.4845
   39ccc     O5 1507  -0.663   4.850   0.783  0.0260 -0.1617 -0.5503
   39ccc    H40 1508  -0.731   4.828   0.717 -1.4390  1.4939  0.3281
   39ccc     N4 1509  -0.502   4.392   0.890  0.2002 -0.2400  0.2243
   39ccc    H41 1510  -0.637   4.116   0.770 -0.7409 -0.1366 -2.2271
   40ccc     N1 1511  -0.074   5.623   0.786  0.0943  0.1047  0.1258
   40ccc     H4 1512  -0.061   5.604   0.688 -1.7940  1.6677 -0.4816
   40ccc     C3 1513  -0.065   5.762   0.834  0.0938  0.2854 -0.7570
   40ccc     H5 1514  -0.126   5.780   0.924  0.6315 -1.9321  0.1039
   40ccc     C4 1515  -0.118   5.864   0.737  0.3682 -0.2005 -0.1071
   40ccc     H6 1516   0.040   5.781   0.857 -0.0080 -1.3500  1.3440
   40ccc     H7 1517  -0.055   5.857   0.648 -1.2440 -2.5964 -1.1651
   40ccc     H8 1518  -0.110   5.963   0.783 -1.7083 -0.3761  0.7708
   40ccc     N2 1519  -0.270   5.862   0.708 -0.0599 -0.0123  0.1342
   40ccc     C5 1520  -0.297   5.861   0.560 -0.6248 -0.2201 -0.0387
   40ccc     C6 1521  -0.332   5.984   0.766  0.2602  0.5814 -0.1166
   40ccc     H9 1522  -0.305   5.997   0.872 -0.6896  1.2467  0.0591
   40ccc     C7 1523  -0.490   5.992   0.772  0.1527 -0.1778  0.0999
   40ccc    H10 1524  -0.302   6.073   0.710  1.0493 -0.8444 -2.0577
   40ccc    H11 1525  -0.540   5.985   0.674 -2.1526  1.7466  1.0319
   40ccc    H12 1526  -0.525   6.091   0.804  0.5448  0.7575 -2.1511
   40ccc     C8 1527  -0.550   5.880   0.859  0.0171  0.2574  0.0119
   40ccc     O2 1528  -0.554   5.762   0.826  0.2246  0.3784  0.5027
   40ccc    H13 1529  -0.236   5.934   0.506 -1.0546  1.4732  1.6392
   40ccc    H14 1530  -0.397   5.901   0.542  0.3325  1.9375 -1.0009
   40ccc     C9 1531  -0.275   5.732   0.479 -0.5633  0.5917 -0.1548
   40ccc    H15 1532  -0.170   5.708   0.461 -0.6081 -2.1855  2.4838
   40ccc    H16 1533  -0.319   5.746   0.379 -0.7051 -4.5012 -1.0857
   40ccc    C10 1534  -0.343   5.611   0.531 -0.2460 -0.4747 -0.5283
   40ccc     O4 1535  -0.367   5.602   0.650 -0.2025  0.0036  0.3514
   40ccc    C11 1536  -0.437   5.747   1.368 -0.2479  0.0181  0.2913
   40ccc    C12 1537  -0.590   5.772   1.355 -0.1333  0.0060 -0.1720
   40ccc    H17 1538  -0.396   5.846   1.393  2.2434 -0.8835  0.0986
   40ccc    C13 1539  -0.618   5.866   1.233  0.4834  0.2876  0.4712
   40ccc    C14 1540  -0.556   5.813   1.105 -0.4289  0.1299  0.1124
   40ccc    C15 1541  -0.408   5.785   1.128  0.0906  0.0712  0.3137
   40ccc    H18 1542  -0.599   5.719   1.066 -0.2370 -0.2587  0.8206
   40ccc    H19 1543  -0.569   5.960   1.260  0.3116  1.4628 -2.8239
   40ccc    H20 1544  -0.357   5.880   1.148 -1.4451  0.5106  2.4292
   40ccc     O1 1545  -0.338   5.718   1.021  0.2076 -0.0681  0.6296
   40ccc     O6 1546  -0.760   5.891   1.226  0.0100 -0.6702  0.3379
   40ccc    C16 1547  -0.386   5.650   1.476  0.3156  0.5745  0.0092
   40ccc    H21 1548  -0.807   5.907   1.309 -0.9622  0.5677 -0.4037
   40ccc    H22 1549  -0.568   6.008   1.020 -1.8795 -0.2389  0.8605
   40ccc    H23 1550  -0.415   5.552   1.437 -2.3888  1.5542 -0.6996
   40ccc    H24 1551  -0.434   5.670   1.573  0.5814  3.3096 -0.3578
   40ccc     O7 1552  -0.240   5.654   1.478 -0.4011  0.1354 -0.1534
   40ccc    H25 1553  -0.208   5.643   1.386  0.4975 -0.4714  0.2128
   40ccc     O8 1554  -0.397   5.694   1.235  0.0285 -0.3097 -0.5069
   40ccc    H26 1555  -0.367   5.626   1.013 -0.1128  0.1398 -1.1888
   40ccc    H27 1556  -0.628   5.676   1.321 -0.3874  0.2197 -0.4988
   40ccc     O9 1557  -0.652   5.833   1.468  0.2688  0.8210  0.6464
   40ccc    H28 1558  -0.670   5.764   1.533 -1.8554  1.2237  0.5548
   40ccc     N3 1559  -0.566   5.911   0.989  0.1862  0.2537 -0.7983
   40ccc    C17 1560  -0.149   5.293   0.135  0.4337  0.2458 -0.1360
   40ccc    C18 1561  -0.281   5.361   0.097 -0.7858  0.7328  0.0884
   40ccc    H29 1562  -0.161   5.187   0.159  0.8979  0.3552  0.5847
   40ccc    C19 1563  -0.372   5.408   0.212 -0.1657 -0.1184 -0.3137
   40ccc    C20 1564  -0.289   5.483   0.318  0.4477 -0.1576 -0.1587
   40ccc    C21 1565  -0.175   5.392   0.361  0.4601  0.7815 -0.0408
   40ccc    H30 1566  -0.254   5.573   0.264  0.5105 -0.9407 -1.4632
   40ccc    H31 1567  -0.414   5.316   0.255 -2.3407  0.3480 -1.2978
   40ccc    H32 1568  -0.196   5.294   0.405 -1.9214  2.5846  3.2328
   40ccc    O10 1569  -0.089   5.450   0.456 -0.1020  0.4252  0.0228
   40ccc    O11 1570  -0.483   5.487   0.174 -0.1659 -0.0659 -0.0641
   40ccc    C22 1571  -0.054   5.297   0.017  0.0367 -0.3900 -0.2061
   40ccc    H33 1572  -0.551   5.483   0.243 -0.7353  0.7366 -0.5583
   40ccc    H34 1573  -0.420   5.432   0.465  2.6156 -0.6805  0.8868
   40ccc    H35 1574  -0.025   5.401  -0.003  1.3206 -0.7861 -0.5306
   40ccc    H36 1575  -0.118   5.282  -0.070  0.0558 -0.6502 -0.1744
   40ccc    O12 1576   0.050   5.203   0.033 -0.1083  0.2567  0.1171
   40ccc    H37 1577   0.068   5.191   0.128  0.1551  2.3511  0.3792
   40ccc    O13 1578  -0.091   5.365   0.245 -0.6184 -0.1312  0.0438
   40ccc    H38 1579  -0.002   5.458   0.413  0.5831  0.9353  1.4465
   40ccc    H39 1580  -0.252   5.453   0.043  0.6693  0.5309  0.4955
   40ccc     O5 1581  -0.362   5.270   0.017 -0.4606  0.7541  0.4400
   40ccc    H40 1582  -0.454   5.300   0.014 -0.6091  0.5017  1.7593
   40ccc     N4 1583  -0.375   5.519   0.436  0.4039  0.3559  0.3838
   40ccc    H41 1584  -0.316   5.782   0.753  0.1575 -0.6358 -0.7196
   41ccc     N1 1585  -0.641   5.129   0.649 -0.0609 -0.4693 -0.2271
   41ccc     H4 1586  -0.651   5.046   0.706  0.9389  0.3830  1.2656
   41ccc     C3 1587  -0.756   5.183   0.579 -0.9552 -0.2870 -0.2446
   41ccc     H5 1588  -0.749   5.293   0.575 -0.4704 -0.2937  0.2545
   41ccc     C4 1589  -0.886   5.136   0.647  0.5830 -0.2406  0.4412
   41ccc     H6 1590  -0.759   5.152   0.474  0.5384  1.2577 -0.7965
   41ccc     H7 1591  -0.903   5.028   0.635  2.1202 -0.4554  0.0059
   41ccc     H8 1592  -0.973   5.179   0.595  0.1985 -2.5880 -0.9944
   41ccc     N2 1593  -0.919   5.160   0.801  0.0538  0.3235  0.3657
   41ccc     C5 1594  -1.060   5.109   0.832 -0.9150 -0.5550 -0.8582
   41ccc     C6 1595  -0.924   5.316   0.823  0.1255  0.4594  0.1398
   41ccc     H9 1596  -0.847   5.357   0.757 -1.1023 -1.1329 -2.4863
   41ccc     C7 1597  -0.899   5.354   0.968  0.1295 -0.1218 -0.6040
   41ccc    H10 1598  -1.016   5.361   0.781 -0.9820 -0.3593  1.5965
   41ccc    H11 1599  -0.963   5.295   1.034 -1.5691  0.1983 -1.9131
   41ccc    H12 1600  -0.926   5.460   0.980 -0.9274 -0.5087  0.7784
   41ccc     C8 1601  -0.753   5.336   1.003  0.4461  0.5358 -0.2934
   41ccc     O2 1602  -0.679   5.255   0.948  0.5637  0.1525  0.1416
   41ccc    H13 1603  -1.115   5.133   0.740 -0.1021  0.8382 -1.0011
   41ccc    H14 1604  -1.097   5.171   0.914  1.9239  0.9471 -0.5909
   41ccc     C9 1605  -1.084   4.959   0.857  0.2519  0.0866  0.4786
   41ccc    H15 1606  -1.069   4.896   0.769  2.0209  1.3485 -0.1796
   41ccc    H16 1607  -1.193   4.950   0.869 -0.2773  1.8977 -2.0399
   41ccc    C10 1608  -1.002   4.892   0.970  0.5043  0.3391  0.1461
   41ccc     O4 1609  -0.909   4.944   1.026 -0.1004  0.0490  0.4145
   41ccc    C11 1610  -0.368   5.251   1.329 -0.0280 -0.5944  0.4185
   41ccc    C12 1611  -0.336   5.351   1.213  0.6101 -0.4982 -0.6397
   41ccc    H17 1612  -0.357   5.151   1.286  1.0107  0.1648 -1.2148
   41ccc    C13 1613  -0.452   5.360   1.113  0.7466  0.6272  1.2854
   41ccc    C14 1614  -0.588   5.386   1.186 -0.1231 -0.3023  0.1042
   41ccc    C15 1615  -0.610   5.277   1.290  1.0631  0.8900 -0.2764
   41ccc    H18 1616  -0.577   5.477   1.247 -1.2890  0.0464 -0.1792
   41ccc    H19 1617  -0.460   5.261   1.067 -0.2483  1.5550 -0.6490
   41ccc    H20 1618  -0.608   5.175   1.250  0.9820  0.8809 -0.2568
   41ccc     O1 1619  -0.728   5.298   1.361  0.6530  0.0295 -0.2234
   41ccc     O6 1620  -0.420   5.451   1.015 -0.1748  0.0982 -0.0398
   41ccc    C16 1621  -0.268   5.263   1.445 -0.0401 -0.6563 -0.2139
   41ccc    H21 1622  -0.494   5.462   0.953 -0.4936 -3.5011 -0.5090
   41ccc    H22 1623  -0.757   5.485   1.153  0.6376  2.3521 -1.4657
   41ccc    H23 1624  -0.258   5.370   1.465  0.4399 -0.6682 -0.3618
   41ccc    H24 1625  -0.173   5.216   1.416  1.6507  2.6566 -0.5937
   41ccc     O7 1626  -0.324   5.197   1.556 -0.3317 -0.3568 -0.0659
   41ccc    H25 1627  -0.344   5.106   1.529  1.0231 -1.6617  2.9421
   41ccc     O8 1628  -0.498   5.285   1.384 -0.0989  0.3772 -0.1566
   41ccc    H26 1629  -0.788   5.253   1.298 -0.2835 -0.5295  1.0303
   41ccc    H27 1630  -0.334   5.441   1.276  1.8677 -2.0472  1.6718
   41ccc     O9 1631  -0.212   5.312   1.152  0.0162  0.4254  0.2053
   41ccc    H28 1632  -0.186   5.381   1.088  0.6173  0.3272  0.3395
   41ccc     N3 1633  -0.704   5.416   1.100 -0.2934  0.0239  0.5046
   41ccc    C17 1634  -1.038   4.486   1.321 -0.4156  0.5857  1.1694
   41ccc    C18 1635  -0.951   4.461   1.192  0.6258  0.1500  0.3432
   41ccc    H29 1636  -1.136   4.438   1.309  0.5591 -0.7809 -2.2328
   41ccc    C19 1637  -1.003   4.532   1.065 -0.2191 -0.1167 -0.7258
   41ccc    C20 1638  -0.999   4.685   1.103  0.6235  0.0467  0.2179
   41ccc    C21 1639  -1.095   4.711   1.222  0.3783  0.8785  0.1797
   41ccc    H30 1640  -0.898   4.705   1.141 -0.0434  0.8872  1.5884
   41ccc    H31 1641  -1.110   4.510   1.057 -1.5003  3.4227  3.0104
   41ccc    H32 1642  -1.200   4.680   1.209  1.0148 -0.7338 -1.5282
   41ccc    O10 1643  -1.085   4.842   1.275 -0.0758 -0.0686  0.2000
   41ccc    O11 1644  -0.922   4.495   0.948  0.3835 -0.1666  0.1666
   41ccc    C22 1645  -0.979   4.427   1.448  0.6234  0.1636 -0.0144
   41ccc    H33 1646  -0.978   4.510   0.870 -0.9731  2.2022  1.4734
   41ccc    H34 1647  -1.118   4.720   0.941  0.9024  0.1047 -1.8730
   41ccc    H35 1648  -0.977   4.319   1.434 -0.6723  0.3385 -1.9681
   41ccc    H36 1649  -1.049   4.448   1.529 -1.4194  1.5521 -2.0067
   41ccc    O12 1650  -0.848   4.461   1.480 -0.0449  0.0655  0.3358
   41ccc    H37 1651  -0.853   4.505   1.567 -1.7124  1.1446 -0.2644
   41ccc    O13 1652  -1.037   4.633   1.335  0.2720  0.5339 -0.2703
   41ccc    H38 1653  -1.151   4.896   1.228  1.0775  0.0994 -1.2651
   41ccc    H39 1654  -0.854   4.504   1.222  1.3098 -0.6719 -0.6547
   41ccc     O5 1655  -0.945   4.320   1.174 -0.1361  0.4527 -0.0388
   41ccc    H40 1656  -1.028   4.269   1.167  1.7760 -2.9636  0.1512
   41ccc     N4 1657  -1.038   4.764   0.986 -0.1340  0.4346 -0.2798
   41ccc    H41 1658  -0.853   5.111   0.863  0.4003  1.3144  0.7961
   42ccc     N1 1659  -0.685   2.401   2.289 -0.1110 -0.3309 -0.2764
   42ccc     H4 1660  -0.680   2.405   2.188 -1.5681  0.8914 -0.3391
   42ccc     C3 1661  -0.803   2.323   2.347  0.0595  0.1839  0.6318
   42ccc     H5 1662  -0.780   2.259   2.434  3.0964 -0.1869 -0.3613
   42ccc     C4 1663  -0.855   2.232   2.231 -0.5028  0.3913 -0.1578
   42ccc     H6 1664  -0.889   2.386   2.374 -0.4105 -0.7450  1.4019
   42ccc     H7 1665  -0.787   2.146   2.230 -0.5225  0.3594  0.7336
   42ccc     H8 1666  -0.852   2.298   2.144  0.2307  2.4841  1.3738
   42ccc     N2 1667  -0.992   2.176   2.260 -1.2777 -0.2385 -0.1399
   42ccc     C5 1668  -1.001   2.034   2.206 -0.0939  0.1377 -0.2785
   42ccc     C6 1669  -1.101   2.267   2.204  0.5968  0.6208 -0.9351
   42ccc     H9 1670  -1.198   2.238   2.247  0.6101 -1.1827 -2.0118
   42ccc     C7 1671  -1.128   2.263   2.049  0.1942  0.5674 -0.1062
   42ccc    H10 1672  -1.081   2.367   2.244  3.3947 -0.2440  0.0661
   42ccc    H11 1673  -1.159   2.163   2.017 -1.4040  0.4704  1.6035
   42ccc    H12 1674  -1.034   2.278   1.994 -0.0684 -0.0983 -0.7568
   42ccc     C8 1675  -1.228   2.366   2.004  0.1889  0.2801 -0.3685
   42ccc     O2 1676  -1.309   2.425   2.074 -0.1205 -0.1305  0.0982
   42ccc    H13 1677  -0.978   2.024   2.099 -0.6459  1.1260 -0.5002
   42ccc    H14 1678  -1.101   1.996   2.227 -0.5331  0.5517 -1.5381
   42ccc     C9 1679  -0.917   1.928   2.288  0.4720  0.0507  1.0290
   42ccc    H15 1680  -0.809   1.946   2.300  0.6840 -0.2199 -0.3004
   42ccc    H16 1681  -0.928   1.831   2.238 -1.7835  1.3989 -1.3253
   42ccc    C10 1682  -0.962   1.918   2.431  0.3623  0.9501  0.5925
   42ccc     O4 1683  -1.025   1.994   2.495  0.0484 -0.0235 -0.0569
   42ccc    C11 1684  -1.410   2.581   1.547 -0.2269 -0.6394  0.7893
   42ccc    C12 1685  -1.484   2.460   1.591 -0.2258 -0.4044 -0.0652
   42ccc    H17 1686  -1.322   2.557   1.486 -0.2382 -2.4134  1.4351
   42ccc    C13 1687  -1.414   2.373   1.697  0.0586  0.8174 -0.2480
   42ccc    C14 1688  -1.342   2.458   1.806 -0.4226  0.0809 -0.3413
   42ccc    C15 1689  -1.265   2.576   1.736  0.0044 -0.5615 -0.1099
   42ccc    H18 1690  -1.404   2.495   1.889  0.2132 -2.8917  1.6018
   42ccc    H19 1691  -1.343   2.312   1.640 -1.4996 -1.7906  0.4657
   42ccc    H20 1692  -1.194   2.536   1.662  0.5175  0.0750  0.0311
   42ccc     O1 1693  -1.207   2.665   1.831  0.2365 -0.4825  0.3273
   42ccc     O6 1694  -1.508   2.288   1.767 -0.1296 -0.0876 -0.2004
   42ccc    C16 1695  -1.501   2.681   1.473 -0.1677  0.4361  0.1396
   42ccc    H21 1696  -1.570   2.354   1.803  0.2828  0.5415 -0.6499
   42ccc    H22 1697  -1.188   2.320   1.800 -1.2088 -0.6868 -0.3979
   42ccc    H23 1698  -1.548   2.746   1.547 -0.5742 -0.3624  0.5937
   42ccc    H24 1699  -1.585   2.631   1.424 -1.5411  1.9183  0.9015
   42ccc     O7 1700  -1.419   2.741   1.378 -0.1242  0.1948 -0.0718
   42ccc    H25 1701  -1.447   2.724   1.286 -3.3501  0.1262  0.8266
   42ccc     O8 1702  -1.363   2.647   1.669  0.0310 -0.5033  0.8351
   42ccc    H26 1703  -1.136   2.617   1.876 -1.0155 -3.3654 -0.5411
   42ccc    H27 1704  -1.580   2.494   1.633 -0.8219  0.3508 -1.9316
   42ccc     O9 1705  -1.499   2.379   1.469  0.4220 -0.0583 -0.3782
   42ccc    H28 1706  -1.535   2.295   1.504 -0.2289  0.7037  0.8728
   42ccc     N3 1707  -1.242   2.372   1.870 -0.0189  0.1338 -0.0609
   42ccc    C17 1708  -0.881   1.616   2.890  0.1057 -0.5528  0.2815
   42ccc    C18 1709  -0.754   1.672   2.821 -0.5344 -0.4282 -0.0444
   42ccc    H29 1710  -0.895   1.509   2.867  0.3537 -0.6600  0.6187
   42ccc    C19 1711  -0.787   1.708   2.673 -0.3571  0.5696 -0.3274
   42ccc    C20 1712  -0.916   1.790   2.646 -0.5403  0.3000  0.3488
   42ccc    C21 1713  -1.029   1.715   2.708 -0.2451  0.6041  0.3556
   42ccc    H30 1714  -0.911   1.887   2.696  1.5657  0.2824  0.2778
   42ccc    H31 1715  -0.813   1.612   2.627 -2.2661  0.4154  0.9677
   42ccc    H32 1716  -1.038   1.615   2.664 -0.0588 -0.1740  1.9873
   42ccc    O10 1717  -1.148   1.794   2.713 -0.5813 -0.1020  0.5667
   42ccc    O11 1718  -0.671   1.769   2.621 -0.2473 -0.2319 -0.1442
   42ccc    C22 1719  -0.866   1.624   3.044  0.5464 -0.1803 -0.2524
   42ccc    H33 1720  -0.594   1.710   2.626  0.9858  1.4160  2.2014
   42ccc    H34 1721  -0.859   1.739   2.446 -1.6956 -1.3987 -0.4349
   42ccc    H35 1722  -0.785   1.560   3.082 -0.1168 -0.9383 -0.0914
   42ccc    H36 1723  -0.958   1.586   3.090  0.3821  1.4947  0.8597
   42ccc    O12 1724  -0.853   1.759   3.086  0.0885  0.0575  0.5764
   42ccc    H37 1725  -0.805   1.747   3.170  1.1684 -0.5558 -0.1127
   42ccc    O13 1726  -0.996   1.693   2.851 -0.8244 -0.1723  0.2155
   42ccc    H38 1727  -1.203   1.745   2.776  0.4587  0.7486  2.1970
   42ccc    H39 1728  -0.713   1.755   2.879 -0.0218 -0.9242  0.3145
   42ccc     O5 1729  -0.653   1.569   2.826 -0.2013  0.2998  0.4048
   42ccc    H40 1730  -0.613   1.563   2.914 -0.3731 -2.2093  0.3729
   42ccc     N4 1731  -0.919   1.806   2.492 -0.0514  0.3047 -0.6534
   42ccc    H41 1732  -1.013   2.163   2.360 -0.1411  1.5682  0.3696
   43ccc     N1 1733   0.066   2.712   2.743 -0.0755 -0.5605 -0.2109
   43ccc     H4 1734   0.042   2.810   2.735 -1.3238 -0.7221  1.2047
   43ccc     C3 1735   0.184   2.685   2.825 -0.2590 -0.3401 -0.2009
   43ccc     H5 1736   0.239   2.617   2.760  0.2203  0.3219 -0.5028
   43ccc     C4 1737   0.157   2.606   2.960 -0.0294 -0.7267  0.5498
   43ccc     H6 1738   0.242   2.778   2.835  1.1335 -0.9763 -1.9018
   43ccc     H7 1739   0.078   2.532   2.943 -0.6655 -0.1872  1.0867
   43ccc     H8 1740   0.129   2.681   3.035  3.0481  0.8926  0.2526
   43ccc     N2 1741   0.276   2.524   3.019 -0.2071 -0.2279  0.3098
   43ccc     C5 1742   0.235   2.459   3.151  0.3236 -0.5715  0.2433
   43ccc     C6 1743   0.400   2.619   3.048 -0.1567 -0.1289 -0.1910
   43ccc     H9 1744   0.442   2.665   2.957  2.7753  0.6432  1.4409
   43ccc     C7 1745   0.522   2.547   3.104  0.7608  0.4996 -0.5011
   43ccc    H10 1746   0.360   2.692   3.120  0.2605 -1.4855  1.4660
   43ccc    H11 1747   0.559   2.491   3.017 -2.4574 -0.5765 -1.3089
   43ccc    H12 1748   0.496   2.465   3.172  0.2717 -0.0761 -1.3668
   43ccc     C8 1749   0.621   2.642   3.171  0.2683 -0.8273 -0.9235
   43ccc     O2 1750   0.589   2.744   3.235 -0.4047  0.1544  0.0120
   43ccc    H13 1751   0.316   2.386   3.167  3.0200  2.0300 -0.6232
   43ccc    H14 1752   0.137   2.412   3.137  0.6047 -0.9447 -0.5135
   43ccc     C9 1753   0.232   2.546   3.282 -0.7695 -0.4756  0.4716
   43ccc    H15 1754   0.174   2.637   3.266 -0.7947 -0.4561  0.6781
   43ccc    H16 1755   0.334   2.570   3.314  0.4020 -0.7458 -2.6578
   43ccc    C10 1756   0.167   2.460   3.386 -0.3164 -0.2198 -0.4499
   43ccc     O4 1757   0.220   2.385   3.460  0.1595 -0.4090  0.2345
   43ccc    C11 1758   1.019   2.854   3.371  0.4894  0.1677  0.5362
   43ccc    C12 1759   1.015   2.696   3.403  0.6894 -0.3367  0.3284
   43ccc    H17 1760   0.942   2.910   3.425 -0.2223  0.2258 -0.4970
   43ccc    C13 1761   0.878   2.640   3.352 -0.5635  0.5069  0.6319
   43ccc    C14 1762   0.865   2.682   3.207  0.4194  0.2697  0.5366
   43ccc    C15 1763   0.876   2.832   3.189  0.2986 -0.0176  1.0058
   43ccc    H18 1764   0.947   2.630   3.157 -0.9709  0.4829 -2.1515
   43ccc    H19 1765   0.788   2.670   3.407 -0.3503 -3.2018  3.3829
   43ccc    H20 1766   0.803   2.894   3.243  0.3203  0.0141  0.9992
   43ccc     O1 1767   0.883   2.865   3.052  0.4225  0.2079  0.0234
   43ccc     O6 1768   0.882   2.498   3.355 -0.7452  0.0335  0.2070
   43ccc    C16 1769   1.155   2.906   3.424 -0.1624  0.1606  0.5029
   43ccc    H21 1770   0.794   2.458   3.355 -0.1402 -1.5723  2.8409
   43ccc    H22 1771   0.770   2.526   3.102  1.1064  1.0155 -1.4105
   43ccc    H23 1772   1.161   2.897   3.534 -0.6692  1.3800  0.6444
   43ccc    H24 1773   1.147   3.014   3.404 -0.9733 -0.1417 -0.9549
   43ccc     O7 1774   1.271   2.845   3.356 -0.2948  0.0357 -0.0242
   43ccc    H25 1775   1.336   2.808   3.417 -2.5513 -4.3302  0.1449
   43ccc     O8 1776   1.005   2.878   3.232  0.6834  0.6068  0.2762
   43ccc    H26 1777   0.795   2.836   3.023  0.2062 -1.3848  2.0753
   43ccc    H27 1778   1.093   2.632   3.359  0.3883 -0.3594 -0.1819
   43ccc     O9 1779   1.025   2.674   3.547 -0.0996 -0.1443  0.1532
   43ccc    H28 1780   1.006   2.582   3.568 -1.1848 -0.5040 -2.1074
   43ccc     N3 1781   0.747   2.616   3.143  0.1580 -0.0738  0.5653
   43ccc    C17 1782  -0.332   2.260   3.337 -0.6354 -0.0583 -0.4095
   43ccc    C18 1783  -0.199   2.178   3.324  0.2219  0.1767  0.5227
   43ccc    H29 1784  -0.353   2.314   3.244  0.8388  0.3389 -0.5264
   43ccc    C19 1785  -0.069   2.257   3.310 -0.0078 -0.1925 -0.1671
   43ccc    C20 1786  -0.060   2.367   3.426  0.0584 -0.1563  0.4892
   43ccc    C21 1787  -0.198   2.438   3.434 -0.1844 -0.3061  0.4721
   43ccc    H30 1788  -0.040   2.322   3.524 -3.2691 -1.9413  0.4724
   43ccc    H31 1789  -0.071   2.306   3.212 -0.6589 -0.7636 -0.4472
   43ccc    H32 1790  -0.213   2.480   3.334 -2.2190 -0.2492  0.7564
   43ccc    O10 1791  -0.201   2.527   3.541  0.2480  0.4113 -0.2836
   43ccc    O11 1792   0.040   2.168   3.322  0.1996  0.4121 -0.4005
   43ccc    C22 1793  -0.450   2.170   3.375 -0.4789  0.7550 -0.6002
   43ccc    H33 1794   0.046   2.134   3.413  1.0682 -1.0020 -0.9366
   43ccc    H34 1795  -0.001   2.533   3.307 -0.1239  0.9123 -0.0147
   43ccc    H35 1796  -0.441   2.153   3.483 -0.1778  1.2498 -0.5470
   43ccc    H36 1797  -0.440   2.078   3.315  1.5046  1.1038 -0.8639
   43ccc    O12 1798  -0.577   2.228   3.350  0.2509 -0.6780  0.1451
   43ccc    H37 1799  -0.640   2.154   3.349  1.0834 -1.4022 -0.8666
   43ccc    O13 1800  -0.309   2.349   3.449  0.4452 -0.0439 -0.1731
   43ccc    H38 1801  -0.190   2.459   3.610  1.6695 -2.5087 -3.0736
   43ccc    H39 1802  -0.194   2.122   3.419 -2.9650 -1.6159 -0.2039
   43ccc     O5 1803  -0.199   2.089   3.211 -0.1388 -0.1591 -0.4844
   43ccc    H40 1804  -0.119   2.036   3.228  0.5265  1.0757  0.3555
   43ccc     N4 1805   0.037   2.476   3.382  0.0931  0.5967 -0.3599
   43ccc    H41 1806   0.319   2.454   2.958  0.7243 -2.0291  2.8613
   44ccc     N1 1807  -1.206   2.894   1.510 -0.0514 -0.5708 -0.0456
   44ccc     H4 1808  -1.256   2.830   1.449 -0.4463  0.2257 -0.5774
   44ccc     C3 1809  -1.249   3.024   1.536  0.2280  0.3948  0.7121
   44ccc     H5 1810  -1.171   3.076   1.593  2.3368  1.1095 -2.5166
   44ccc     C4 1811  -1.380   3.043   1.625 -0.1707  0.3680  0.0927
   44ccc     H6 1812  -1.258   3.074   1.439 -1.9767  1.1593  1.2623
   44ccc     H7 1813  -1.472   3.013   1.574  0.1297 -1.4229  0.5193
   44ccc     H8 1814  -1.395   3.149   1.645  0.7932  0.3045  1.3107
   44ccc     N2 1815  -1.376   2.955   1.755  0.1029  0.5977  0.5237
   44ccc     C5 1816  -1.516   2.967   1.826 -0.5234  0.0917 -0.2601
   44ccc     C6 1817  -1.259   2.982   1.850  0.8880 -0.7435  0.8992
   44ccc     H9 1818  -1.291   2.943   1.947  0.4401 -1.4228  0.4867
   44ccc     C7 1819  -1.231   3.132   1.878 -0.2927 -0.3210  0.3168
   44ccc    H10 1820  -1.171   2.928   1.813  0.0925 -1.7509  0.4232
   44ccc    H11 1821  -1.315   3.176   1.934  0.4037 -0.0180  1.1470
   44ccc    H12 1822  -1.206   3.196   1.792  0.0613  0.8290  1.2426
   44ccc     C8 1823  -1.115   3.140   1.974 -0.2795  0.1395  0.3938
   44ccc     O2 1824  -1.059   3.035   2.020  0.2767 -0.2204 -0.1403
   44ccc    H13 1825  -1.597   2.975   1.752 -0.0223  2.8342 -0.6068
   44ccc    H14 1826  -1.500   3.050   1.895  3.0695 -1.8063  1.4542
   44ccc     C9 1827  -1.555   2.856   1.924 -0.2877 -0.4517  0.3650
   44ccc    H15 1828  -1.483   2.857   2.007  0.9703  2.7682 -0.6292
   44ccc    H16 1829  -1.537   2.764   1.867 -1.3168  0.3408 -1.3049
   44ccc    C10 1830  -1.695   2.858   1.980 -0.4588  0.3887 -1.0519
   44ccc     O4 1831  -1.761   2.955   1.993 -0.7201 -0.3786  0.6846
   44ccc    C11 1832  -0.820   3.501   2.251 -0.1248  0.0801  0.3672
   44ccc    C12 1833  -0.909   3.388   2.323 -0.1003  0.2455  0.0238
   44ccc    H17 1834  -0.877   3.591   2.227  2.8888  2.7220  2.2539
   44ccc    C13 1835  -1.023   3.346   2.232 -0.2800 -0.0859  0.1697
   44ccc    C14 1836  -0.965   3.292   2.097 -0.4147 -0.2356 -0.2642
   44ccc    C15 1837  -0.880   3.402   2.030 -0.2576 -0.1514 -1.1982
   44ccc    H18 1838  -0.892   3.213   2.114 -1.1763 -1.0847 -0.8573
   44ccc    H19 1839  -1.089   3.431   2.212 -0.5203  0.7548  3.8984
   44ccc    H20 1840  -0.937   3.493   2.011  1.0756  0.9523 -0.1133
   44ccc     O1 1841  -0.806   3.356   1.918  0.5366  0.5822 -0.1679
   44ccc     O6 1842  -1.094   3.236   2.294  0.5623 -0.0079 -0.0187
   44ccc    C16 1843  -0.688   3.537   2.325 -0.8072 -0.1796  0.1733
   44ccc    H21 1844  -1.161   3.214   2.227  0.0699  0.7682  0.2029
   44ccc    H22 1845  -1.122   3.342   1.973  2.7545  2.0467  0.4289
   44ccc    H23 1846  -0.608   3.471   2.292 -1.5092  0.6293 -3.6794
   44ccc    H24 1847  -0.693   3.535   2.434 -0.5566  1.2988  0.2384
   44ccc     O7 1848  -0.647   3.663   2.295  0.0126 -0.8215  0.2772
   44ccc    H25 1849  -0.578   3.690   2.358 -0.5898  0.0894  0.5690
   44ccc     O8 1850  -0.778   3.442   2.125  0.3030 -0.3186 -0.0174
   44ccc    H26 1851  -0.873   3.338   1.849 -1.0028  0.7423  1.2324
   44ccc    H27 1852  -0.845   3.303   2.349 -1.0250 -1.4008 -2.6100
   44ccc     O9 1853  -0.966   3.442   2.441 -0.3699 -0.3274 -0.5430
   44ccc    H28 1854  -0.926   3.404   2.521 -0.3712  0.6154 -0.0890
   44ccc     N3 1855  -1.075   3.260   2.012  0.4578  0.3649 -0.0691
   44ccc    C17 1856  -1.677   2.403   2.263 -0.1899  0.7297 -0.6284
   44ccc    C18 1857  -1.672   2.386   2.108 -0.4268 -0.0729  0.0288
   44ccc    H29 1858  -1.780   2.389   2.296  0.5961  0.0660  1.7789
   44ccc    C19 1859  -1.732   2.502   2.025  0.1989  0.0292 -0.3237
   44ccc    C20 1860  -1.681   2.635   2.084 -0.4816 -0.6371  0.3339
   44ccc    C21 1861  -1.696   2.643   2.238  0.3560  0.0757  0.3295
   44ccc    H30 1862  -1.572   2.641   2.071 -0.7110 -2.1171 -3.6825
   44ccc    H31 1863  -1.841   2.504   2.035  0.1497 -1.9286 -0.2263
   44ccc    H32 1864  -1.802   2.658   2.265  0.0286 -0.2645 -0.7045
   44ccc    O10 1865  -1.622   2.752   2.285  0.2597 -0.5131 -0.0957
   44ccc    O11 1866  -1.697   2.493   1.884  0.0776 -0.2296 -0.1400
   44ccc    C22 1867  -1.594   2.300   2.345  0.3598 -0.5710 -0.1146
   44ccc    H33 1868  -1.775   2.522   1.834 -1.4437 -0.4627  1.9689
   44ccc    H34 1869  -1.853   2.750   2.036  0.4084  1.7130  1.0428
   44ccc    H35 1870  -1.487   2.319   2.326  0.7625 -2.5765 -0.0369
   44ccc    H36 1871  -1.626   2.198   2.323 -2.2725  0.3829 -1.1134
   44ccc    O12 1872  -1.615   2.333   2.489 -0.1797 -0.3998  0.0986
   44ccc    H37 1873  -1.699   2.383   2.496 -1.2893 -1.9043 -1.7843
   44ccc    O13 1874  -1.632   2.538   2.301  0.4992  0.4309 -0.1200
   44ccc    H38 1875  -1.645   2.751   2.380 -2.0013  0.5280 -0.5588
   44ccc    H39 1876  -1.568   2.379   2.074 -0.8945  0.0443 -1.4721
   44ccc     O5 1877  -1.748   2.265   2.078 -0.0655  0.0804  0.3621
   44ccc    H40 1878  -1.741   2.261   1.981  0.2272  1.7381  0.2782
   44ccc     N4 1879  -1.755   2.743   2.008  0.0739  0.9360 -0.0033
   44ccc    H41 1880  -1.368   2.856   1.728 -0.5938  0.2482  1.5173
   45ccc     N1 1881  -0.773   3.253   1.296  0.3672  0.2340  0.2541
   45ccc     H4 1882  -0.705   3.241   1.223  2.1492 -0.7834  1.9851
   45ccc     C3 1883  -0.768   3.370   1.382  0.2550  0.1478 -0.2480
   45ccc     H5 1884  -0.871   3.406   1.383 -0.7652 -2.5152 -1.1925
   45ccc     C4 1885  -0.658   3.466   1.330 -0.2183 -0.5201  0.4599
   45ccc     H6 1886  -0.746   3.338   1.485  0.6131 -0.6944 -0.5682
   45ccc     H7 1887  -0.657   3.554   1.395  0.9618  0.2892 -0.6053
   45ccc     H8 1888  -0.695   3.498   1.231 -0.3758  0.1938  0.7401
   45ccc     N2 1889  -0.522   3.402   1.312  0.5036  0.0723  0.1698
   45ccc     C5 1890  -0.439   3.394   1.441  0.1535 -0.0933 -0.9103
   45ccc     C6 1891  -0.441   3.474   1.199  0.6500 -0.4175 -0.0774
   45ccc     H9 1892  -0.361   3.410   1.160  0.3230  0.5450 -2.5381
   45ccc     C7 1893  -0.398   3.617   1.218 -0.0869  0.0624  0.0944
   45ccc    H10 1894  -0.512   3.490   1.117  1.5646  0.4590 -0.7208
   45ccc    H11 1895  -0.334   3.631   1.306  0.3299 -0.2505 -0.1561
   45ccc    H12 1896  -0.485   3.680   1.237  0.1349 -0.2457  2.4990
   45ccc     C8 1897  -0.334   3.670   1.090  0.2678  0.1683 -0.3575
   45ccc     O2 1898  -0.397   3.685   0.988 -0.2298 -0.4307 -0.2229
   45ccc    H13 1899  -0.506   3.366   1.523  1.4711 -1.7753 -0.3379
   45ccc    H14 1900  -0.410   3.495   1.471 -1.1751  0.5222 -1.6107
   45ccc     C9 1901  -0.318   3.295   1.440  0.6614 -0.1665  0.1892
   45ccc    H15 1902  -0.228   3.337   1.395  2.1889 -0.4702  2.7890
   45ccc    H16 1903  -0.343   3.199   1.392  1.4410 -2.6002  4.1583
   45ccc    C10 1904  -0.267   3.258   1.579  0.3803 -0.6256  0.4536
   45ccc     O4 1905  -0.246   3.339   1.665  0.3070  0.1456 -0.2198
   45ccc    C11 1906   0.099   3.905   0.895 -0.2216 -1.2347 -0.0462
   45ccc    C12 1907   0.092   3.750   0.866  0.5322  0.0291 -0.6880
   45ccc    H17 1908   0.156   3.931   0.986  2.1657 -2.9977 -0.9317
   45ccc    C13 1909   0.002   3.686   0.970 -0.4033 -0.1423  0.3477
   45ccc    C14 1910  -0.130   3.759   0.986  0.6570 -0.6514  0.6015
   45ccc    C15 1911  -0.110   3.916   1.001 -0.0037 -0.1182  1.2625
   45ccc    H18 1912  -0.176   3.736   0.889  2.4741  0.1853 -0.5264
   45ccc    H19 1913   0.061   3.688   1.063  2.4597  0.2195 -1.3520
   45ccc    H20 1914  -0.067   3.936   1.100 -0.0306  0.4271  1.1661
   45ccc     O1 1915  -0.227   3.991   0.982 -0.1231 -0.3691  0.4093
   45ccc     O6 1916  -0.022   3.547   0.939 -0.3096 -0.0005  0.1904
   45ccc    C16 1917   0.181   3.975   0.777  0.0092  0.0232  0.4686
   45ccc    H21 1918  -0.077   3.513   1.011 -0.9420 -0.6138 -0.5655
   45ccc    H22 1919  -0.159   3.690   1.186 -2.7786 -3.2493  1.8158
   45ccc    H23 1920   0.125   3.988   0.684 -1.2019  2.2731  1.4330
   45ccc    H24 1921   0.273   3.920   0.752  0.6300  0.4729  1.6698
   45ccc     O7 1922   0.216   4.109   0.815 -0.3290  0.2485 -0.0716
   45ccc    H25 1923   0.268   4.148   0.743  1.8643  1.0646  1.8160
   45ccc     O8 1924  -0.032   3.962   0.894 -0.4070 -0.2230  0.2968
   45ccc    H26 1925  -0.221   4.033   1.069 -0.8155  0.7466 -0.0501
   45ccc    H27 1926   0.054   3.719   0.768  0.2627  0.7677 -0.8248
   45ccc     O9 1927   0.225   3.696   0.887  0.3119  0.1629 -0.1949
   45ccc    H28 1928   0.215   3.600   0.898  1.2141  0.2453  1.6019
   45ccc     N3 1929  -0.207   3.705   1.097  0.4768  0.4953  0.4259
   45ccc    C17 1930  -0.031   2.816   1.796 -0.4000 -0.1427 -0.5654
   45ccc    C18 1931   0.049   2.945   1.778 -0.6696 -0.3092 -0.2487
   45ccc    H29 1932  -0.037   2.768   1.697  2.8885  0.6441 -1.2724
   45ccc    C19 1933  -0.027   3.044   1.681 -0.4585 -0.0793 -0.4436
   45ccc    C20 1934  -0.178   3.065   1.712  0.2812 -0.0227 -0.1922
   45ccc    C21 1935  -0.235   2.924   1.744 -0.2645 -0.4212 -0.8839
   45ccc    H30 1936  -0.175   3.132   1.798  0.3005 -1.9295  1.3698
   45ccc    H31 1937  -0.011   3.003   1.581 -2.3717  0.2669 -0.9296
   45ccc    H32 1938  -0.241   2.871   1.648  1.2459 -0.1093 -1.1695
   45ccc    O10 1939  -0.361   2.947   1.801 -0.1044 -0.0265 -0.3147
   45ccc    O11 1940   0.043   3.172   1.695  0.0042 -0.1417  0.0277
   45ccc    C22 1941   0.024   2.724   1.905  0.4008 -0.7141 -0.2185
   45ccc    H33 1942  -0.001   3.236   1.636  0.1065 -0.1141 -0.0189
   45ccc    H34 1943  -0.250   3.071   1.508  0.1466 -0.7833  0.3341
   45ccc    H35 1944   0.013   2.781   1.998 -1.4250 -1.5292  0.1139
   45ccc    H36 1945   0.127   2.696   1.878 -0.2794 -1.5862 -2.1109
   45ccc    O12 1946  -0.041   2.600   1.911 -0.2396 -0.4016  0.0415
   45ccc    H37 1947   0.003   2.556   1.836  0.9442 -0.9687  1.0376
   45ccc    O13 1948  -0.158   2.847   1.834  0.2493 -0.5012 -0.6821
   45ccc    H38 1949  -0.388   2.861   1.839 -0.8150 -0.2946 -1.3737
   45ccc    H39 1950   0.051   3.001   1.872  1.0150 -1.1939  0.2853
   45ccc     O5 1951   0.186   2.921   1.745  0.5380  0.2026 -0.3910
   45ccc    H40 1952   0.225   3.007   1.767 -1.1204  0.6506  1.0089
   45ccc     N4 1953  -0.241   3.130   1.591 -0.1560 -0.0554 -0.1399
   45ccc    H41 1954  -0.540   3.304   1.284  4.2642 -0.9072  0.6560
   46ccc     N1 1955  -0.170   5.711   1.742  0.2268  0.2626  0.1980
   46ccc     H4 1956  -0.202   5.687   1.649  0.6536 -1.9810  0.5779
   46ccc     C3 1957  -0.107   5.605   1.823 -0.5159  0.5529 -0.4584
   46ccc     H5 1958  -0.008   5.644   1.851 -1.5830  1.8804  1.6388
   46ccc     C4 1959  -0.095   5.466   1.748  0.1410 -0.6209 -0.1404
   46ccc     H6 1960  -0.166   5.587   1.914  2.0596 -1.4734  0.9468
   46ccc     H7 1961  -0.045   5.496   1.656 -2.8184 -0.5617 -1.8767
   46ccc     H8 1962  -0.199   5.447   1.720 -1.1683 -0.1492  3.6935
   46ccc     N2 1963  -0.027   5.349   1.819  0.7792  0.4420 -0.2116
   46ccc     C5 1964   0.120   5.346   1.770  0.1557  0.0298  0.5929
   46ccc     C6 1965  -0.100   5.217   1.792 -0.0574 -0.5321  0.2020
   46ccc     H9 1966  -0.205   5.240   1.814 -0.0562  0.8683 -1.0651
   46ccc     C7 1967  -0.056   5.101   1.881 -0.3717 -0.2489  0.7475
   46ccc    H10 1968  -0.102   5.193   1.685  3.6787 -2.7961  0.4773
   46ccc    H11 1969   0.044   5.066   1.853 -0.5681 -1.2017  1.2088
   46ccc    H12 1970  -0.125   5.019   1.860  0.9809 -0.9324 -1.4039
   46ccc     C8 1971  -0.051   5.141   2.029 -0.0595 -0.4990 -0.4470
   46ccc     O2 1972  -0.119   5.230   2.075  0.0925  0.1276  0.4097
   46ccc    H13 1973   0.121   5.353   1.660  0.2360 -1.3954  0.4719
   46ccc    H14 1974   0.175   5.256   1.801 -0.5940  0.1647  2.4371
   46ccc     C9 1975   0.214   5.463   1.820  0.0092  0.1339  0.2148
   46ccc    H15 1976   0.180   5.553   1.768  0.1345 -0.3573 -0.7452
   46ccc    H16 1977   0.320   5.448   1.796 -0.4355 -2.9852 -0.1922
   46ccc    C10 1978   0.215   5.482   1.972  0.6420 -0.2757  0.0927
   46ccc     O4 1979   0.127   5.440   2.048 -0.2352  0.6410 -0.3473
   46ccc    C11 1980  -0.025   5.136   2.518  0.2390 -0.0004  0.0574
   46ccc    C12 1981  -0.018   4.993   2.461  0.3533  0.0509 -0.2706
   46ccc    H17 1982  -0.122   5.186   2.506 -0.0633 -0.6460 -0.1963
   46ccc    C13 1983  -0.042   4.992   2.310 -0.2654  0.4918  0.2313
   46ccc    C14 1984   0.060   5.086   2.245 -0.0927  0.2747 -0.9201
   46ccc    C15 1985   0.059   5.231   2.315  0.0248 -0.6525 -0.7727
   46ccc    H18 1986   0.160   5.047   2.268 -0.3818 -0.1428 -0.3490
   46ccc    H19 1987  -0.142   5.034   2.294 -0.0139  1.2874  0.6609
   46ccc    H20 1988  -0.035   5.284   2.295 -0.6559 -1.4916  0.1224
   46ccc     O1 1989   0.175   5.306   2.278  0.1295  0.2197 -0.6551
   46ccc     O6 1990  -0.031   4.860   2.254 -0.6447 -0.4241 -0.1317
   46ccc    C16 1991   0.001   5.132   2.674  0.0114 -0.2802 -0.2776
   46ccc    H21 1992   0.052   4.845   2.205 -0.7118  0.1713 -0.4381
   46ccc    H22 1993   0.090   4.994   2.077  0.2251 -0.1859  0.6609
   46ccc    H23 1994   0.096   5.081   2.695 -0.5355 -0.5479  1.8371
   46ccc    H24 1995  -0.077   5.072   2.723 -1.8869  0.6280 -2.0272
   46ccc     O7 1996   0.015   5.261   2.736 -0.0271  0.6704 -0.5219
   46ccc    H25 1997  -0.074   5.297   2.748 -0.4809 -1.2688  3.4795
   46ccc     O8 1998   0.072   5.221   2.456  0.2481  0.8441  0.1277
   46ccc    H26 1999   0.162   5.343   2.189 -0.6165  1.8715  0.1018
   46ccc    H27 2000   0.084   4.955   2.480 -0.0446 -1.4439 -0.9774
   46ccc     O9 2001  -0.109   4.902   2.529  0.0297 -0.0809 -0.0645
   46ccc    H28 2002  -0.096   4.813   2.493  0.4463 -0.2544  0.4997
   46ccc     N3 2003   0.046   5.083   2.101  0.1276  0.0542 -0.3589
   46ccc    C17 2004   0.483   5.938   2.017  0.3840 -0.6273  0.3972
   46ccc    C18 2005   0.580   5.825   2.041  0.6145 -0.2841  0.4722
   46ccc    H29 2006   0.424   5.963   2.106 -1.7655  1.0711 -1.3762
   46ccc    C19 2007   0.507   5.695   2.073 -0.2465 -0.0672 -0.0550
   46ccc    C20 2008   0.380   5.671   1.982  0.4570  0.7725 -0.1358
   46ccc    C21 2009   0.296   5.803   1.966  0.2322 -0.1550 -0.8374
   46ccc    H30 2010   0.419   5.638   1.885  0.2943  0.8504 -0.2294
   46ccc    H31 2011   0.466   5.722   2.171  1.4802  0.0012  0.6801
   46ccc    H32 2012   0.252   5.822   2.064  2.6129  2.7265 -0.1792
   46ccc    O10 2013   0.204   5.783   1.870 -0.4676  0.6596  0.2841
   46ccc    O11 2014   0.603   5.591   2.082  0.0256  0.1145  0.1751
   46ccc    C22 2015   0.544   6.063   1.964 -0.1494 -0.0851 -0.9999
   46ccc    H33 2016   0.657   5.576   2.002  1.7975  0.5557  1.2450
   46ccc    H34 2017   0.284   5.573   2.133 -1.2734  2.8905 -0.5046
   46ccc    H35 2018   0.597   6.103   2.051 -2.1676  0.5662 -0.0072
   46ccc    H36 2019   0.470   6.141   1.943  1.4434  1.2910 -1.6714
   46ccc    O12 2020   0.613   6.046   1.836 -0.5641 -0.1979  0.0302
   46ccc    H37 2021   0.558   6.025   1.758  0.1727  1.3537 -0.9681
   46ccc    O13 2022   0.386   5.904   1.918 -0.0431  0.1565  0.0508
   46ccc    H38 2023   0.204   5.867   1.821 -1.4594 -0.2091 -1.3321
   46ccc    H39 2024   0.625   5.806   1.943  0.1455 -0.1184  0.2221
   46ccc     O5 2025   0.676   5.866   2.141  0.2601 -0.4159 -0.3882
   46ccc    H40 2026   0.743   5.796   2.149 -0.4927 -0.9728  1.6045
   46ccc     N4 2027   0.307   5.553   2.036 -0.7523  0.1013  0.0948
   46ccc    H41 2028  -0.028   5.361   1.922  4.6553 -1.0390  0.1779
   47ccc     N1 2029  -0.614   6.235   1.913 -0.4098  0.3653 -0.2190
   47ccc     H4 2030  -0.649   6.318   1.866  0.8892  0.8418 -0.3838
   47ccc     C3 2031  -0.693   6.176   2.020 -0.3091 -0.0936  0.5572
   47ccc     H5 2032  -0.709   6.072   1.991  1.3165 -0.4612  0.8777
   47ccc     C4 2033  -0.827   6.245   2.018 -0.7745  0.2073  0.0370
   47ccc     H6 2034  -0.650   6.195   2.120  0.8401  1.2726 -0.1505
   47ccc     H7 2035  -0.871   6.237   1.918 -0.5841  1.6533 -0.1805
   47ccc     H8 2036  -0.819   6.351   2.043  1.3387 -0.1052  0.8472
   47ccc     N2 2037  -0.937   6.185   2.118 -0.6643 -0.3306 -0.7225
   47ccc     C5 2038  -1.073   6.246   2.092  0.1956  0.7700 -0.4505
   47ccc     C6 2039  -0.881   6.202   2.260  0.2014  0.2233  0.4201
   47ccc     H9 2040  -0.777   6.167   2.268  0.0739 -0.0837  0.7522
   47ccc     C7 2041  -0.955   6.152   2.370 -0.4868 -0.1859 -0.1707
   47ccc    H10 2042  -0.871   6.311   2.265  0.9060  0.1144  1.7606
   47ccc    H11 2043  -1.048   6.210   2.376 -0.3611  0.1315 -1.1854
   47ccc    H12 2044  -0.903   6.184   2.461 -0.0919  0.3626 -0.5882
   47ccc     C8 2045  -0.979   6.003   2.380 -0.4899  0.3856 -0.0076
   47ccc     O2 2046  -0.989   5.933   2.281 -0.0726 -0.2658  0.6152
   47ccc    H13 2047  -1.077   6.247   1.982  0.2435 -2.2690 -0.5525
   47ccc    H14 2048  -1.086   6.349   2.127 -0.2876 -0.5395  3.7838
   47ccc     C9 2049  -1.196   6.154   2.125  0.5634 -0.6996 -0.2887
   47ccc    H15 2050  -1.291   6.203   2.103  0.3971  0.3653  2.4239
   47ccc    H16 2051  -1.195   6.132   2.233  2.6265 -0.5224 -0.2280
   47ccc    C10 2052  -1.195   6.017   2.070 -0.5849  0.4459 -0.5465
   47ccc     O4 2053  -1.130   5.978   1.975 -0.1066 -0.4047  0.0379
   47ccc    C11 2054  -1.102   5.631   2.741  0.0961  0.1157 -0.1582
   47ccc    C12 2055  -1.198   5.676   2.626 -0.0480  0.0435 -0.2029
   47ccc    H17 2056  -1.115   5.693   2.831  0.3630  0.4895 -0.3792
   47ccc    C13 2057  -1.162   5.814   2.577 -0.5800 -1.0514  0.0542
   47ccc    C14 2058  -1.015   5.812   2.534 -0.3455 -1.0847  0.2693
   47ccc    C15 2059  -0.919   5.752   2.646  0.6684 -0.0574  0.9863
   47ccc    H18 2060  -1.018   5.751   2.443 -2.8512 -2.2114  1.0173
   47ccc    H19 2061  -1.165   5.889   2.657  0.6178 -0.6368 -0.2684
   47ccc    H20 2062  -0.900   5.829   2.722  2.6140  0.4042  0.1059
   47ccc     O1 2063  -0.791   5.727   2.592 -0.2912  0.0928  0.3957
   47ccc     O6 2064  -1.252   5.859   2.479  0.0940 -0.1484 -0.0322
   47ccc    C16 2065  -1.147   5.488   2.784  0.6085  0.2294  0.1015
   47ccc    H21 2066  -1.248   5.956   2.483 -2.9228  0.0438  0.9763
   47ccc    H22 2067  -0.984   6.009   2.583 -1.9997 -0.2818 -0.5480
   47ccc    H23 2068  -1.172   5.436   2.691 -2.6560  0.6053  0.6341
   47ccc    H24 2069  -1.233   5.482   2.853  0.2940 -0.1167 -0.3158
   47ccc     O7 2070  -1.042   5.420   2.846  0.4314  0.6320  0.0423
   47ccc    H25 2071  -0.972   5.487   2.854  3.0699 -1.7759 -1.1795
   47ccc     O8 2072  -0.968   5.629   2.692 -0.4211 -0.2061 -0.2461
   47ccc    H26 2073  -0.745   5.687   2.668 -0.4957  0.7970  0.9016
   47ccc    H27 2074  -1.197   5.606   2.543 -3.6665  2.1729 -2.2753
   47ccc     O9 2075  -1.331   5.684   2.687 -0.2208 -0.1129  0.3893
   47ccc    H28 2076  -1.392   5.651   2.618 -3.1391 -0.3153  2.8773
   47ccc     N3 2077  -0.971   5.950   2.501 -0.2959 -0.5294 -0.1332
   47ccc    C17 2078  -1.372   5.488   2.137 -0.0040 -0.3950 -0.3855
   47ccc    C18 2079  -1.439   5.592   2.043 -0.0175  0.0790  0.2621
   47ccc    H29 2080  -1.432   5.481   2.229  1.6802 -0.2847  0.7677
   47ccc    C19 2081  -1.425   5.738   2.084 -0.7205 -0.4968 -0.0127
   47ccc    C20 2082  -1.280   5.774   2.099 -1.2949 -0.2888  0.0329
   47ccc    C21 2083  -1.220   5.680   2.206 -0.4859  1.0397 -0.4364
   47ccc    H30 2084  -1.231   5.753   2.003  1.0312  2.6427  0.4338
   47ccc    H31 2085  -1.481   5.736   2.178 -2.0089 -0.3664 -0.7485
   47ccc    H32 2086  -1.259   5.685   2.309  0.4631  0.8637 -0.0533
   47ccc    O10 2087  -1.079   5.697   2.210 -0.2448 -0.0282 -0.0686
   47ccc    O11 2088  -1.490   5.832   1.993 -0.0740  0.0567  0.1325
   47ccc    C22 2089  -1.373   5.356   2.061  0.6006 -0.3524 -0.2172
   47ccc    H33 2090  -1.423   5.861   1.929  0.0119  1.6471  0.9225
   47ccc    H34 2091  -1.310   5.943   2.223  0.9976 -0.3844  0.3798
   47ccc    H35 2092  -1.345   5.360   1.955  4.4034 -0.9935  0.6290
   47ccc    H36 2093  -1.479   5.327   2.066  0.4746 -0.0860  5.1857
   47ccc    O12 2094  -1.293   5.250   2.122  0.4252  0.2334  0.3319
   47ccc    H37 2095  -1.360   5.195   2.166 -1.8511  1.9512 -0.7348
   47ccc    O13 2096  -1.234   5.547   2.160  0.6987  0.3841 -0.0568
   47ccc    H38 2097  -1.068   5.792   2.232 -1.5472 -0.0471  0.7358
   47ccc    H39 2098  -1.398   5.578   1.942 -0.4359 -1.4778  0.2749
   47ccc     O5 2099  -1.578   5.563   2.050  0.1859 -0.4086  0.1990
   47ccc    H40 2100  -1.607   5.642   2.002  0.9823 -0.3894 -0.2601
   47ccc     N4 2101  -1.258   5.920   2.138  0.1906 -0.0457 -0.2161
   47ccc    H41 2102  -0.936   6.087   2.087  1.2661 -0.1242 -1.4177
   48ccc     N1 2103  -0.689   5.223   2.724  0.0844 -0.2484  0.1015
   48ccc     H4 2104  -0.612   5.284   2.699 -0.2338 -1.0315 -3.2620
   48ccc     C3 2105  -0.679   5.135   2.840  0.1260 -0.0345  0.5815
   48ccc     H5 2106  -0.731   5.181   2.925  1.3546  0.3395  1.1542
   48ccc     C4 2107  -0.536   5.119   2.892 -0.7649  0.6727 -0.0021
   48ccc     H6 2108  -0.727   5.041   2.811 -0.5198  0.7373 -0.9778
   48ccc     H7 2109  -0.512   5.199   2.964  2.4711 -0.6028  0.5297
   48ccc     H8 2110  -0.451   5.117   2.823  1.3790 -0.8911  2.4788
   48ccc     N2 2111  -0.507   4.983   2.960 -0.0625  0.2504 -0.2660
   48ccc     C5 2112  -0.512   4.863   2.862  0.5137  0.1180 -0.4860
   48ccc     C6 2113  -0.610   4.969   3.078 -0.6122 -0.0530 -0.5313
   48ccc     H9 2114  -0.715   4.988   3.050 -1.7762 -3.2552  1.1440
   48ccc     C7 2115  -0.562   5.043   3.214 -0.4471 -0.0763  0.0330
   48ccc    H10 2116  -0.603   4.862   3.099 -1.0187  0.0271  0.0346
   48ccc    H11 2117  -0.455   5.023   3.227 -0.9171 -3.6792 -0.5963
   48ccc    H12 2118  -0.619   4.994   3.294 -2.5543 -0.1047 -1.4005
   48ccc     C8 2119  -0.587   5.191   3.232  0.6042 -0.4257  0.2349
   48ccc     O2 2120  -0.637   5.258   3.145 -0.3237 -0.0616 -0.6528
   48ccc    H13 2121  -0.612   4.858   2.817  0.2401  1.6347 -0.1181
   48ccc    H14 2122  -0.500   4.775   2.926  0.0822  0.3146 -0.1257
   48ccc     C9 2123  -0.410   4.861   2.747 -0.1033 -0.0591 -0.1591
   48ccc    H15 2124  -0.344   4.773   2.745  1.6093  1.1433  1.1618
   48ccc    H16 2125  -0.339   4.942   2.762  1.1536 -0.8765 -1.4156
   48ccc    C10 2126  -0.479   4.897   2.612  0.3303  0.6295 -0.3105
   48ccc     O4 2127  -0.595   4.906   2.595  0.6306  0.0177  0.8556
   48ccc    C11 2128  -0.676   5.636   3.403  0.1827  0.3512  0.4665
   48ccc    C12 2129  -0.733   5.532   3.502  0.3503 -0.0413  0.1421
   48ccc    H17 2130  -0.736   5.625   3.312 -0.3120 -1.7956  0.9960
   48ccc    C13 2131  -0.706   5.383   3.458  0.5808 -0.6317 -0.0301
   48ccc    C14 2132  -0.560   5.366   3.413  0.3154  0.2127  0.0970
   48ccc    C15 2133  -0.510   5.483   3.311 -0.0695 -0.4826 -0.2043
   48ccc    H18 2134  -0.494   5.372   3.501  1.8212 -1.2918 -0.8911
   48ccc    H19 2135  -0.773   5.371   3.372  1.0157  0.4929 -0.5497
   48ccc    H20 2136  -0.561   5.476   3.214 -0.7067  0.9016  0.0044
   48ccc     O1 2137  -0.366   5.475   3.304  0.2591 -0.1467 -0.0401
   48ccc     O6 2138  -0.737   5.285   3.564 -0.4568 -0.3331 -0.5016
   48ccc    C16 2139  -0.684   5.775   3.466  0.0071  0.3432 -0.3657
   48ccc    H21 2140  -0.834   5.275   3.568 -0.6415  0.5782 -1.8081
   48ccc    H22 2141  -0.498   5.172   3.424  1.3655  1.5987  0.5551
   48ccc    H23 2142  -0.668   5.765   3.574  0.1228 -1.4111 -0.5195
   48ccc    H24 2143  -0.785   5.816   3.454 -0.0019  0.5974  0.5223
   48ccc     O7 2144  -0.587   5.867   3.413 -0.0115 -0.0056  0.0117
   48ccc    H25 2145  -0.569   5.848   3.320  2.0148  2.9519 -0.3388
   48ccc     O8 2146  -0.540   5.609   3.378  0.4268  0.6037  0.3680
   48ccc    H26 2147  -0.333   5.542   3.242  0.6114 -0.4383 -0.1753
   48ccc    H27 2148  -0.682   5.544   3.598  0.6189 -0.7049  0.0832
   48ccc     O9 2149  -0.878   5.565   3.518  0.3330 -0.5860 -0.7505
   48ccc    H28 2150  -0.903   5.520   3.601 -2.7069 -0.9481 -1.7413
   48ccc     N3 2151  -0.541   5.233   3.355 -0.4561 -0.3582 -0.1263
   48ccc    C17 2152  -0.600   5.037   2.153 -0.1809 -0.1211  0.3860
   48ccc    C18 2153  -0.504   5.143   2.224  0.5701  0.2377  0.4170
   48ccc    H29 2154  -0.701   5.039   2.195 -0.4235 -2.8999  0.1619
   48ccc    C19 2155  -0.479   5.095   2.366 -0.1406 -0.2259  0.3439
   48ccc    C20 2156  -0.436   4.950   2.364 -0.3031 -0.3964  0.3970
   48ccc    C21 2157  -0.540   4.860   2.294 -1.0009 -0.2795  0.2483
   48ccc    H30 2158  -0.342   4.932   2.310  1.6335  1.5687  2.8846
   48ccc    H31 2159  -0.573   5.117   2.417 -0.2936  2.0824 -0.8018
   48ccc    H32 2160  -0.641   4.874   2.334 -1.3248 -1.6328 -0.0166
   48ccc    O10 2161  -0.494   4.717   2.299 -0.2154  0.0324  0.1658
   48ccc    O11 2162  -0.371   5.174   2.428  0.0850 -0.3480  0.0051
   48ccc    C22 2163  -0.631   5.073   2.005  0.3191  0.3131 -0.7096
   48ccc    H33 2164  -0.389   5.267   2.409 -0.4955 -0.8028 -1.8144
   48ccc    H34 2165  -0.297   4.933   2.532  0.4381 -1.7864  0.4245
   48ccc    H35 2166  -0.673   5.175   2.004 -1.1025 -0.2006  0.6813
   48ccc    H36 2167  -0.701   4.999   1.965  0.7423 -0.9019  0.7365
   48ccc    O12 2168  -0.518   5.076   1.915  0.3707  0.1119 -0.7351
   48ccc    H37 2169  -0.452   5.010   1.942 -0.6165 -1.0507 -1.0679
   48ccc    O13 2170  -0.542   4.902   2.157 -0.3392 -0.4292  0.2367
   48ccc    H38 2171  -0.565   4.665   2.257  1.6515 -3.0818  0.5507
   48ccc    H39 2172  -0.418   5.140   2.156  0.4143  0.6496  0.2009
   48ccc     O5 2173  -0.565   5.269   2.223 -0.5628  0.3821  0.2965
   48ccc    H40 2174  -0.500   5.333   2.256 -0.1738  0.3582 -0.4078
   48ccc     N4 2175  -0.394   4.914   2.507  0.1130  0.1477  0.0604
   48ccc    H41 2176  -0.415   4.979   3.006 -1.7125  0.8101  3.4076
   49ccc     N1 2177  -1.026   5.148   1.951  0.3284  0.0904  0.1389
   49ccc     H4 2178  -0.997   5.078   2.019 -1.0833  0.0106  0.6880
   49ccc     C3 2179  -1.125   5.102   1.854 -0.0365 -0.1285 -0.2953
   49ccc     H5 2180  -1.195   5.041   1.914 -0.4145  2.2327  1.8527
   49ccc     C4 2181  -1.075   5.009   1.741 -0.2632  1.0220  0.1111
   49ccc     H6 2182  -1.174   5.197   1.830  0.9643  0.3409 -0.4957
   49ccc     H7 2183  -1.159   5.002   1.671 -1.4687  3.3407  1.2138
   49ccc     H8 2184  -1.051   4.909   1.778 -2.7771 -0.1195 -1.0863
   49ccc     N2 2185  -0.957   5.071   1.666  0.4015 -0.7171 -0.1403
   49ccc     C5 2186  -0.987   5.100   1.522 -0.3013  0.3449  0.4321
   49ccc     C6 2187  -0.831   4.994   1.680 -0.3699  1.2747 -0.2752
   49ccc     H9 2188  -0.822   4.965   1.785  0.6032  0.3252 -0.5978
   49ccc     C7 2189  -0.695   5.065   1.634 -0.1173  0.6893 -0.3568
   49ccc    H10 2190  -0.854   4.897   1.634  1.1665  0.6530  0.2030
   49ccc    H11 2191  -0.681   5.077   1.526 -1.6673 -0.4365 -0.7152
   49ccc    H12 2192  -0.607   5.007   1.665 -0.8268  0.1165  0.6160
   49ccc     C8 2193  -0.685   5.208   1.697  0.7393 -0.0096 -0.2993
   49ccc     O2 2194  -0.762   5.259   1.779 -0.3060 -0.3107 -0.0982
   49ccc    H13 2195  -1.024   5.012   1.467  0.8566 -0.4596  0.9028
   49ccc    H14 2196  -0.894   5.139   1.479 -1.0721  0.8440 -0.8509
   49ccc     C9 2197  -1.098   5.208   1.494 -0.0806  0.0840  0.5085
   49ccc    H15 2198  -1.194   5.172   1.532 -0.6106 -0.6682 -1.3909
   49ccc    H16 2199  -1.114   5.212   1.385 -0.3472 -1.2160  0.4838
   49ccc    C10 2200  -1.054   5.352   1.533  0.3413  0.5919  0.2586
   49ccc     O4 2201  -0.941   5.378   1.573  0.7086 -0.3224  0.3915
   49ccc    C11 2202  -0.597   5.688   1.831  0.2075  0.1154 -0.3634
   49ccc    C12 2203  -0.477   5.596   1.876 -0.3231  0.5086  0.4113
   49ccc    H17 2204  -0.676   5.658   1.901  0.6064  0.4995  0.2655
   49ccc    C13 2205  -0.513   5.448   1.851  0.3721 -0.8700 -0.3095
   49ccc    C14 2206  -0.549   5.423   1.705 -0.3735  0.0131  0.2249
   49ccc    C15 2207  -0.667   5.516   1.665  0.2143 -0.8894 -0.0853
   49ccc    H18 2208  -0.467   5.455   1.639 -0.3089 -0.3849  0.1082
   49ccc    H19 2209  -0.601   5.424   1.912  0.1171 -0.6385 -0.5808
   49ccc    H20 2210  -0.748   5.476   1.727  1.8369 -2.0482  1.4256
   49ccc     O1 2211  -0.684   5.520   1.525 -0.9230  0.6500 -0.3423
   49ccc     O6 2212  -0.409   5.363   1.887 -0.1662 -0.2034  0.1274
   49ccc    C16 2213  -0.579   5.840   1.847  0.0998 -1.2350  0.7840
   49ccc    H21 2214  -0.441   5.271   1.882 -0.8863 -0.0234  1.1599
   49ccc    H22 2215  -0.497   5.245   1.611  0.8229  0.6191 -0.9085
   49ccc    H23 2216  -0.559   5.859   1.954  2.0697  1.5240  0.0505
   49ccc    H24 2217  -0.670   5.893   1.817  0.5984 -0.5797  0.3987
   49ccc     O7 2218  -0.470   5.884   1.765 -0.0163  0.6941  0.4824
   49ccc    H25 2219  -0.517   5.952   1.713  0.9405 -0.2191 -1.6904
   49ccc     O8 2220  -0.642   5.664   1.695  0.1642  0.1771 -0.1573
   49ccc    H26 2221  -0.694   5.432   1.485  1.0943  1.0218 -1.7864
   49ccc    H27 2222  -0.383   5.618   1.824  1.1667 -1.3786  2.0974
   49ccc     O9 2223  -0.465   5.616   2.015  0.0093  0.5836 -0.5866
   49ccc    H28 2224  -0.385   5.566   2.040 -0.6345 -0.7124 -1.0881
   49ccc     N3 2225  -0.577   5.283   1.662  0.7807  0.0264 -0.5326
   49ccc    C17 2226  -0.965   5.815   1.652 -0.1359 -0.7650 -0.1798
   49ccc    C18 2227  -1.036   5.825   1.516 -0.1336 -0.8039  0.5165
   49ccc    H29 2228  -0.869   5.763   1.642 -0.1296 -0.6328 -0.8125
   49ccc    C19 2229  -1.056   5.677   1.466 -0.3973 -0.2908  1.0415
   49ccc    C20 2230  -1.134   5.593   1.569 -0.6623 -0.0461 -0.3107
   49ccc    C21 2231  -1.086   5.608   1.715 -0.4723 -0.1071 -0.5300
   49ccc    H30 2232  -1.237   5.631   1.567 -0.8822 -0.6621 -1.9931
   49ccc    H31 2233  -0.958   5.632   1.446 -1.6026 -2.7627  0.3350
   49ccc    H32 2234  -0.995   5.554   1.743 -0.5316  1.0793  2.2803
   49ccc    O10 2235  -1.189   5.566   1.800  0.2632  0.0067  0.4408
   49ccc    O11 2236  -1.140   5.673   1.351 -0.2368  0.3535 -0.6669
   49ccc    C22 2237  -0.941   5.955   1.708  0.4001  0.4488  0.0007
   49ccc    H33 2238  -1.125   5.589   1.306 -1.2971  1.0699 -2.4864
   49ccc    H34 2239  -1.242   5.423   1.503  0.3730 -0.3922  1.0814
   49ccc    H35 2240  -1.036   6.009   1.709  0.8108  1.3814 -2.6180
   49ccc    H36 2241  -0.874   6.014   1.644  0.4238  2.2223  1.5690
   49ccc    O12 2242  -0.891   5.951   1.836 -0.1035  0.2689  0.4433
   49ccc    H37 2243  -0.970   5.939   1.891 -0.1741  2.3157  0.8811
   49ccc    O13 2244  -1.064   5.747   1.744 -0.6324  0.4205  0.0275
   49ccc    H38 2245  -1.143   5.495   1.848  1.6817  0.9792  0.5815
   49ccc    H39 2246  -1.137   5.866   1.523 -0.2630 -1.0902  0.3264
   49ccc     O5 2247  -0.966   5.898   1.414  0.2354 -0.1725 -0.3869
   49ccc    H40 2248  -1.034   5.904   1.345  0.4155 -0.6850 -0.6125
   49ccc     N4 2249  -1.146   5.448   1.526  0.4954 -0.3488  0.5323
   49ccc    H41 2250  -0.944   5.162   1.714 -1.7416 -0.4120 -0.0606
   50ccc     N1 2251   0.419   6.686   3.588 -0.6310 -0.4144  0.5995
   50ccc     H4 2252   0.428   6.741   3.673  1.3782  1.0615 -0.4937
   50ccc     C3 2253   0.389   6.748   3.454 -0.1780 -0.0430 -0.1533
   50ccc     H5 2254   0.459   6.830   3.439 -0.6436  0.4115  0.1000
   50ccc     C4 2255   0.246   6.794   3.438 -0.1266  0.4075  0.3568
   50ccc     H6 2256   0.411   6.672   3.378 -0.4589 -0.7434  0.4554
   50ccc     H7 2257   0.221   6.849   3.529 -0.2242  2.1424 -0.6811
   50ccc     H8 2258   0.177   6.709   3.438 -0.4514  0.6506 -0.9069
   50ccc     N2 2259   0.209   6.869   3.318  0.6922 -0.2529  0.2528
   50ccc     C5 2260   0.073   6.937   3.335  0.4536 -0.1623 -0.7847
   50ccc     C6 2261   0.210   6.774   3.197  0.1816  0.2665 -0.2361
   50ccc     H9 2262   0.308   6.725   3.187 -0.7993 -1.7878 -0.2082
   50ccc     C7 2263   0.182   6.837   3.057 -0.4424 -0.2108 -1.5442
   50ccc    H10 2264   0.134   6.696   3.208  1.4024 -0.7793  1.3608
   50ccc    H11 2265   0.241   6.928   3.043  0.1291 -0.1889  0.6540
   50ccc    H12 2266   0.078   6.871   3.056 -0.1703  0.6991 -0.6751
   50ccc     C8 2267   0.195   6.739   2.945 -0.1672 -0.2718 -0.2123
   50ccc     O2 2268   0.209   6.619   2.955  0.3426 -0.3825  0.4362
   50ccc    H13 2269  -0.014   6.870   3.336 -0.2530  0.7360 -0.1141
   50ccc    H14 2270   0.070   6.989   3.239  2.0075 -1.9429 -1.8777
   50ccc     C9 2271   0.064   7.039   3.448 -0.0595 -0.2049  0.5097
   50ccc    H15 2272   0.149   7.108   3.445 -0.9026  0.8489 -0.0173
   50ccc    H16 2273   0.077   6.993   3.547 -0.6017  3.0751  2.2236
   50ccc    C10 2274  -0.069   7.115   3.438  0.0815 -0.2990  0.3220
   50ccc     O4 2275  -0.180   7.067   3.428 -0.0449  0.3660 -0.5022
   50ccc    C11 2276   0.290   6.802   2.416  0.2956  0.3067 -0.1669
   50ccc    C12 2277   0.388   6.715   2.500 -0.4417  0.8115 -0.7457
   50ccc    H17 2278   0.314   6.906   2.441  0.4901 -0.0635  1.3010
   50ccc    C13 2279   0.367   6.753   2.648  0.1613 -0.3461  0.2797
   50ccc    C14 2280   0.222   6.742   2.695  0.5158  0.2024 -0.5462
   50ccc    C15 2281   0.124   6.801   2.578 -0.0197 -0.1378 -0.5880
   50ccc    H18 2282   0.200   6.635   2.705 -1.2855  0.5060 -0.8874
   50ccc    H19 2283   0.399   6.858   2.653 -0.9909  0.0576 -0.4748
   50ccc    H20 2284   0.125   6.908   2.601 -2.8190 -0.8842  4.5220
   50ccc     O1 2285  -0.007   6.750   2.604 -0.2511 -0.0174 -0.4843
   50ccc     O6 2286   0.444   6.668   2.728  0.6517  0.0332 -0.2022
   50ccc    C16 2287   0.291   6.778   2.263  0.4090  0.0836  0.2052
   50ccc    H21 2288   0.467   6.719   2.807 -0.1338  1.5714 -0.9112
   50ccc    H22 2289   0.198   6.905   2.825 -0.2036 -0.7560  3.2854
   50ccc    H23 2290   0.271   6.673   2.240  1.7598 -0.0646 -0.4034
   50ccc    H24 2291   0.392   6.803   2.229  1.8077 -2.0262  2.4617
   50ccc     O7 2292   0.193   6.866   2.198 -0.0144  0.4873 -0.3537
   50ccc    H25 2293   0.117   6.889   2.255 -0.3796 -5.2438  2.1672
   50ccc     O8 2294   0.155   6.762   2.447 -0.7656 -0.5625 -0.0496
   50ccc    H26 2295  -0.061   6.766   2.524  2.3510  0.9507 -2.1683
   50ccc    H27 2296   0.369   6.609   2.483 -0.3839  0.2307  2.2840
   50ccc     O9 2297   0.522   6.747   2.464  0.1094 -0.0809 -0.3089
   50ccc    H28 2298   0.549   6.664   2.420 -1.0089 -0.3317 -0.5479
   50ccc     N3 2299   0.201   6.803   2.827 -0.3992 -1.0024 -0.5508
   50ccc    C17 2300  -0.269   7.622   3.486 -0.2553 -0.9335  0.5116
   50ccc    C18 2301  -0.276   7.567   3.344 -0.1670  1.0312  0.9597
   50ccc    H29 2302  -0.169   7.666   3.499 -0.2727  0.1521 -2.2826
   50ccc    C19 2303  -0.165   7.456   3.328 -0.1082 -0.3208 -0.8340
   50ccc    C20 2304  -0.170   7.345   3.431  0.7036  0.5450 -0.2906
   50ccc    C21 2305  -0.181   7.408   3.576  0.0236 -0.6862  0.5632
   50ccc    H30 2306  -0.265   7.295   3.411 -0.3247  2.2105  0.2287
   50ccc    H31 2307  -0.065   7.500   3.332 -1.6476  3.5975 -1.0694
   50ccc    H32 2308  -0.086   7.451   3.607 -0.1259  1.2838 -1.4570
   50ccc    O10 2309  -0.232   7.311   3.666 -0.1474  0.2700  0.3010
   50ccc    O11 2310  -0.180   7.392   3.203 -0.2310 -0.0690  0.2502
   50ccc    C22 2311  -0.369   7.731   3.519  0.0457  0.1727  0.3779
   50ccc    H33 2312  -0.097   7.371   3.157 -0.8510  0.8285 -1.3524
   50ccc    H34 2313   0.039   7.292   3.415 -0.1098 -0.6022  0.1063
   50ccc    H35 2314  -0.313   7.821   3.488 -0.0133 -0.0951 -0.5582
   50ccc    H36 2315  -0.367   7.738   3.628  2.6111 -0.0387  0.4091
   50ccc    O12 2316  -0.494   7.719   3.445  0.0035 -0.5859 -0.7799
   50ccc    H37 2317  -0.528   7.636   3.482  3.3538 -1.5548  0.5123
   50ccc    O13 2318  -0.279   7.515   3.582  0.0644 -0.3698 -0.9066
   50ccc    H38 2319  -0.323   7.304   3.633  0.2504  0.8623 -0.9940
   50ccc    H39 2320  -0.374   7.520   3.328  0.6498 -0.1728 -0.9510
   50ccc     O5 2321  -0.259   7.674   3.250 -0.4905  0.3312  0.6216
   50ccc    H40 2322  -0.291   7.640   3.165 -0.5447  0.6293  0.5221
   50ccc     N4 2323  -0.055   7.253   3.426 -0.3902  0.1086  0.3127
   50ccc    H41 2324   0.280   6.941   3.303 -1.1692  1.4692 -0.8641
   51ccc     N1 2325   0.008   6.158   3.607  0.1456  0.1913 -0.5459
   51ccc     H4 2326  -0.049   6.165   3.690 -0.9120  1.5889 -1.3401
   51ccc     C3 2327  -0.034   6.070   3.500 -0.8268 -0.4350  0.2510
   51ccc     H5 2328   0.048   6.019   3.449  0.0117  0.2350  0.8867
   51ccc     C4 2329  -0.102   6.159   3.392 -0.0597  0.6701  0.4220
   51ccc     H6 2330  -0.107   5.993   3.525  1.1254 -3.3552 -2.3188
   51ccc     H7 2331  -0.192   6.208   3.431 -0.5731  0.6850 -0.7265
   51ccc     H8 2332  -0.140   6.086   3.318  1.0116 -0.7914  1.2489
   51ccc     N2 2333  -0.015   6.272   3.326 -0.5369  0.1461  0.1117
   51ccc     C5 2334  -0.112   6.370   3.265 -0.3755  0.1251 -0.1432
   51ccc     C6 2335   0.088   6.208   3.220 -0.2996 -0.4519  0.1076
   51ccc     H9 2336   0.149   6.290   3.180  0.9651 -0.4571  1.9340
   51ccc     C7 2337   0.028   6.136   3.096 -0.1231  0.6416  0.0264
   51ccc    H10 2338   0.157   6.136   3.264  0.9385 -0.1937 -1.2910
   51ccc    H11 2339  -0.027   6.209   3.034  0.9387  1.5927  0.1772
   51ccc    H12 2340  -0.037   6.054   3.129  2.8062 -1.6463  0.5290
   51ccc     C8 2341   0.132   6.063   3.014 -0.3356  0.5715  0.4737
   51ccc     O2 2342   0.209   5.986   3.056 -0.9706  0.3337 -0.2803
   51ccc    H13 2343  -0.176   6.382   3.353  1.4392 -3.2499  1.8540
   51ccc    H14 2344  -0.170   6.325   3.185 -1.1954  1.6292 -0.4296
   51ccc     C9 2345  -0.045   6.498   3.213 -0.1878  0.1066 -0.8066
   51ccc    H15 2346  -0.010   6.502   3.109  0.0896  3.1814 -0.6845
   51ccc    H16 2347   0.031   6.526   3.287  0.5618 -2.7395 -0.3854
   51ccc    C10 2348  -0.156   6.600   3.228 -0.4961  0.1766 -0.0925
   51ccc     O4 2349  -0.159   6.680   3.321 -0.3176  0.2014  0.4639
   51ccc    C11 2350   0.401   5.932   2.474 -0.4075 -0.8502 -0.2014
   51ccc    C12 2351   0.379   6.109   2.429 -0.8343 -0.0042 -0.0840
   51ccc    H17 2352   0.333   5.884   2.403 -2.3801  2.2237 -0.6214
   51ccc    C13 2353   0.313   6.226   2.555  0.8128 -0.4097 -0.2989
   51ccc    C14 2354   0.251   6.093   2.789 -1.0010  0.4160  0.0697
   51ccc    C15 2355   0.292   5.911   2.771  0.7614 -0.2573 -0.3012
   51ccc    H18 2356   0.318   6.102   2.875 -1.8777 -0.8915  0.9260
   51ccc    H19 2357   0.225   6.265   2.503  0.8775 -0.2137 -0.2626
   51ccc    H20 2358   0.197   5.863   2.796 -0.4505  1.4249 -1.5498
   51ccc     O1 2359   0.374   5.863   2.876 -0.2097  0.1277  0.3570
   51ccc     O6 2360   0.395   6.339   2.532  0.1860 -0.8525 -0.1827
   51ccc    C16 2361   0.538   5.879   2.437 -0.5798  0.3255 -0.1651
   51ccc    H21 2362   0.418   6.360   2.439  3.4732 -1.5499  0.3466
   51ccc    H22 2363   0.080   6.188   2.864  0.0568  0.4203 -0.4674
   51ccc    H23 2364   0.611   5.885   2.518 -1.4662 -0.9768  0.7722
   51ccc    H24 2365   0.568   5.933   2.346  1.2273 -2.0123 -1.0460
   51ccc     O7 2366   0.531   5.733   2.414  0.3713  0.0824 -0.3543
   51ccc    H25 2367   0.619   5.692   2.407 -0.2088 -0.9842 -2.0003
   51ccc     O8 2368   0.357   5.862   2.624  0.8491 -0.3741  0.2415
   51ccc    H26 2369   0.319   5.871   2.955 -1.4080 -0.0106 -0.4457
   51ccc    H27 2370   0.484   6.136   2.410 -0.9415 -0.3901 -1.3064
   51ccc     O9 2371   0.314   6.128   2.305 -0.2491  0.1494 -0.1105
   51ccc    H28 2372   0.335   6.216   2.268  4.9070 -0.8934 -0.3882
   51ccc     N3 2373   0.136   6.106   2.886 -0.7356  0.0406  0.1474
   51ccc    C17 2374  -0.414   6.484   2.765  0.1066 -0.5689 -1.0369
   51ccc    C18 2375  -0.268   6.539   2.755  0.0391  0.6351 -0.7804
   51ccc    H29 2376  -0.481   6.570   2.762  1.3912  0.6741  1.8889
   51ccc    C19 2377  -0.238   6.631   2.878  0.1309  0.0867  0.4984
   51ccc    C20 2378  -0.259   6.556   3.009 -1.0011 -0.1154  0.2036
   51ccc    C21 2379  -0.405   6.502   3.009  0.1714  0.3019  0.4124
   51ccc    H30 2380  -0.192   6.470   3.001 -0.1035  0.5636  0.3056
   51ccc    H31 2381  -0.311   6.713   2.870  1.0909  0.8417 -1.2011
   51ccc    H32 2382  -0.481   6.581   3.004  0.9417  0.9873 -1.3390
   51ccc    O10 2383  -0.426   6.416   3.116 -0.0089  0.0460 -0.9718
   51ccc    O11 2384  -0.105   6.669   2.853 -0.7684 -0.4940  0.3910
   51ccc    C22 2385  -0.443   6.377   2.660  0.1078  0.7923 -0.4574
   51ccc    H33 2386  -0.096   6.688   2.758  0.5317  0.5766  0.6954
   51ccc    H34 2387  -0.301   6.710   3.140 -0.2779 -0.5350  2.1777
   51ccc    H35 2388  -0.369   6.297   2.675 -0.3463  0.1140 -1.6618
   51ccc    H36 2389  -0.417   6.423   2.563  0.1928  0.9806 -0.3454
   51ccc    O12 2390  -0.579   6.330   2.656  0.2052 -0.2114  0.2525
   51ccc    H37 2391  -0.599   6.337   2.751  0.6802  1.2293  0.2700
   51ccc    O13 2392  -0.424   6.416   2.895  0.3814  0.3540 -0.0430
   51ccc    H38 2393  -0.482   6.345   3.079 -1.0022  0.7061 -0.7733
   51ccc    H39 2394  -0.193   6.458   2.757  2.0078  2.2739  2.7832
   51ccc     O5 2395  -0.266   6.621   2.640  0.8235  0.2811 -0.4945
   51ccc    H40 2396  -0.237   6.566   2.565 -0.1804  0.9262 -1.3904
   51ccc     N4 2397  -0.231   6.638   3.125  0.0737  0.1426  0.3004
   51ccc    H41 2398   0.034   6.320   3.402 -0.1414 -0.6818  0.3941
   52ccc     N1 2399   1.279   6.183   2.391  0.7131  0.6684  0.2921
   52ccc     H4 2400   1.357   6.121   2.378  0.0877 -0.2454  0.7947
   52ccc     C3 2401   1.189   6.192   2.278  0.3935  0.4516  0.2390
   52ccc     H5 2402   1.119   6.107   2.279 -0.8202  1.3726  2.6720
   52ccc     C4 2403   1.261   6.182   2.140 -0.0019 -0.0513 -0.0075
   52ccc     H6 2404   1.128   6.283   2.286  2.4086  1.7782  1.2698
   52ccc     H7 2405   1.321   6.090   2.141 -2.1152 -1.5309 -0.4401
   52ccc     H8 2406   1.332   6.265   2.133  0.9808 -0.5649  2.7672
   52ccc     N2 2407   1.165   6.187   2.019  0.6303  0.6230 -0.0418
   52ccc     C5 2408   1.088   6.054   2.002 -0.0842  1.0024  0.2032
   52ccc     C6 2409   1.249   6.216   1.892  0.3279  0.0025 -0.0586
   52ccc     H9 2410   1.303   6.308   1.919  1.6464 -1.0493  0.9764
   52ccc     C7 2411   1.172   6.233   1.756  0.0929  0.0715 -0.2560
   52ccc    H10 2412   1.319   6.132   1.884  1.9294  1.3807 -1.3245
   52ccc    H11 2413   1.097   6.155   1.737 -0.5037  0.4334  0.5342
   52ccc    H12 2414   1.248   6.225   1.678  1.4421  0.4470  0.9759
   52ccc     C8 2415   1.100   6.370   1.750 -0.2017  0.2210  0.4240
   52ccc     O2 2416   1.046   6.423   1.844 -0.2155  0.2100  0.1641
   52ccc    H13 2417   1.090   5.999   2.097  0.0593 -0.9350 -0.8749
   52ccc    H14 2418   1.138   5.987   1.931 -1.3853  4.0296 -3.9458
   52ccc     C9 2419   0.931   6.067   1.965 -0.4571 -0.3979 -0.6780
   52ccc    H15 2420   0.891   5.970   1.997  0.3248 -0.6647 -0.4711
   52ccc    H16 2421   0.904   6.075   1.859 -0.4258  1.2510 -0.5872
   52ccc    C10 2422   0.854   6.171   2.060 -0.6391  0.8569  0.5881
   52ccc     O4 2423   0.817   6.157   2.174  0.3766  0.2106 -0.0462
   52ccc    C11 2424   0.758   6.607   1.405 -0.1013 -0.1354 -0.0807
   52ccc    C12 2425   0.720   6.509   1.509 -0.0849  0.1313 -0.0177
   52ccc    H17 2426   0.769   6.559   1.308 -3.0214  0.6422 -0.8993
   52ccc    C13 2427   0.831   6.424   1.566  0.3803  0.4269 -0.5983
   52ccc    C14 2428   0.961   6.504   1.597  0.2118  0.9960 -0.6634
   52ccc    C15 2429   0.995   6.600   1.478  1.1282  0.1046 -0.7280
   52ccc    H18 2430   0.941   6.568   1.684 -0.5265 -0.3752  0.2113
   52ccc    H19 2431   0.859   6.358   1.482 -3.0114  0.9587 -2.3377
   52ccc    H20 2432   1.017   6.547   1.384 -2.4574 -2.4807 -0.3181
   52ccc     O1 2433   1.105   6.683   1.512  0.1580 -0.6753  0.5505
   52ccc     O6 2434   0.792   6.349   1.683 -0.1978  0.0685  0.1784
   52ccc    C16 2435   0.647   6.708   1.380  0.0936  0.5422 -0.7251
   52ccc    H21 2436   0.765   6.265   1.642 -0.0604  0.1560 -0.0941
   52ccc    H22 2437   1.108   6.371   1.540 -3.7925  0.5010 -2.3531
   52ccc    H23 2438   0.626   6.758   1.476  0.5385 -0.1648 -0.2529
   52ccc    H24 2439   0.554   6.659   1.349  0.1026  1.2948 -2.0199
   52ccc     O7 2440   0.687   6.786   1.272 -0.2834  0.4258 -0.0026
   52ccc    H25 2441   0.785   6.786   1.268 -0.3127  0.2223 -1.1157
   52ccc     O8 2442   0.879   6.678   1.447  0.7461 -0.0912 -0.0220
   52ccc    H26 2443   1.061   6.770   1.510  1.5267  0.0592  0.7456
   52ccc    H27 2444   0.675   6.557   1.597  0.3361  0.5082 -0.0044
   52ccc     O9 2445   0.632   6.423   1.442  0.6571 -0.1091  0.0875
   52ccc    H28 2446   0.596   6.359   1.505  1.8886  0.5605  1.5436
   52ccc     N3 2447   1.073   6.416   1.625  0.2774 -1.0050  0.4031
   52ccc    C17 2448   0.794   6.711   2.092 -0.2387 -0.0382  0.2170
   52ccc    C18 2449   0.680   6.645   2.014 -0.1201 -0.6350  0.1876
   52ccc    H29 2450   0.879   6.730   2.025  1.6306  2.9869  3.1554
   52ccc    C19 2451   0.722   6.511   1.950 -0.3614  1.1476 -0.0237
   52ccc    C20 2452   0.785   6.415   2.057  0.0232  0.0506  0.5274
   52ccc    C21 2453   0.896   6.500   2.131  0.6962 -0.3182 -0.2972
   52ccc    H30 2454   0.705   6.392   2.129  0.1261  1.4913  1.1417
   52ccc    H31 2455   0.788   6.537   1.866 -0.4057 -0.8721 -0.7439
   52ccc    H32 2456   0.970   6.534   2.057  2.0823 -1.6007  0.4503
   52ccc    O10 2457   0.955   6.431   2.231  0.3435  0.2686  0.4900
   52ccc    O11 2458   0.609   6.443   1.893 -0.3970 -0.5406 -0.7842
   52ccc    C22 2459   0.767   6.850   2.160  0.1657  0.5555 -0.7743
   52ccc    H33 2460   0.645   6.408   1.809 -0.2526  2.2648 -2.0058
   52ccc    H34 2461   0.850   6.288   1.895 -2.0506 -0.4778 -0.3756
   52ccc    H35 2462   0.694   6.844   2.242  1.5676  0.1120  0.4911
   52ccc    H36 2463   0.721   6.918   2.087 -0.2253 -0.1475 -1.1814
   52ccc    O12 2464   0.883   6.924   2.196 -0.2971  0.0017 -0.1689
   52ccc    H37 2465   0.876   7.019   2.178  0.9505  0.1742  0.1559
   52ccc    O13 2466   0.829   6.613   2.194 -0.4675  0.0603  0.0851
   52ccc    H38 2467   0.962   6.498   2.302 -1.0442  2.0123 -0.9299
   52ccc    H39 2468   0.592   6.619   2.075 -0.7259  0.6557 -0.0944
   52ccc     O5 2469   0.631   6.735   1.910  0.2211 -0.1775 -0.2995
   52ccc    H40 2470   0.708   6.752   1.852 -0.8787  0.3724 -1.6650
   52ccc     N4 2471   0.834   6.285   1.995 -0.0041 -0.1822 -0.0111
   52ccc    H41 2472   1.097   6.261   2.039  0.8855  0.5079  1.4028
   53ccc     N1 2473   1.172   6.782   2.909 -0.2339 -0.4197  1.0392
   53ccc     H4 2474   1.243   6.832   2.962 -0.5672 -0.5686  1.6377
   53ccc     C3 2475   1.076   6.864   2.839  0.6225 -0.0854  0.4230
   53ccc     H5 2476   1.083   6.965   2.880  1.1356 -0.3534  1.0078
   53ccc     C4 2477   0.928   6.815   2.844  0.2252 -0.2379 -0.3518
   53ccc     H6 2478   1.114   6.870   2.736 -0.0342 -3.3004 -0.1039
   53ccc     H7 2479   0.860   6.900   2.832  0.4284 -0.2577 -1.7705
   53ccc     H8 2480   0.908   6.779   2.946  0.0901 -2.2168 -1.0406
   53ccc     N2 2481   0.876   6.702   2.748 -0.3091 -0.1008 -0.3795
   53ccc     C5 2482   0.804   6.759   2.622 -0.2670 -0.9237  0.5835
   53ccc     C6 2483   0.786   6.605   2.825 -0.2852  0.2403 -0.0143
   53ccc     H9 2484   0.828   6.597   2.926 -1.2792  1.2528  0.4980
   53ccc     C7 2485   0.766   6.462   2.766  0.3364 -0.6362  0.5243
   53ccc    H10 2486   0.690   6.654   2.842 -0.6143 -0.2550 -0.4208
   53ccc    H11 2487   0.861   6.410   2.780  0.9436  0.2772 -0.1264
   53ccc    H12 2488   0.748   6.468   2.658  2.4185 -0.0419  0.1796
   53ccc     C8 2489   0.654   6.379   2.826 -0.0778 -0.0380  0.1313
   53ccc     O2 2490   0.621   6.385   2.945  0.2006 -0.1829  0.1095
   53ccc    H13 2491   0.719   6.819   2.656 -0.4944 -1.4653  0.9839
   53ccc    H14 2492   0.761   6.675   2.567  0.2410 -0.4616 -0.5541
   53ccc     C9 2493   0.891   6.840   2.529 -0.0768  0.2072 -0.2263
   53ccc    H15 2494   0.931   6.935   2.568  0.3470  0.0177 -0.1920
   53ccc    H16 2495   0.833   6.868   2.441  0.7355  0.0016 -0.8394
   53ccc    C10 2496   1.004   6.757   2.476 -0.2811  0.4845  0.5193
   53ccc     O4 2497   1.006   6.633   2.468  0.3267 -0.2710 -0.3938
   53ccc    C11 2498   0.081   6.169   2.632  0.4975 -0.6513  1.0975
   53ccc    C12 2499   0.194   6.034   2.578 -0.2385  0.5870 -0.0655
   53ccc    H17 2500   0.054   6.212   2.534 -0.7451 -1.6460  0.9750
   53ccc    C13 2501   0.444   6.085   2.669 -0.2452 -0.1942  0.3325
   53ccc    C14 2502   0.452   6.236   2.763 -0.2322  0.2394 -0.2480
   53ccc    C15 2503   0.303   6.339   2.785 -0.3517  0.5303  0.4097
   53ccc    H18 2504   0.478   6.203   2.865  1.3171  0.8657 -0.4104
   53ccc    H19 2505   0.522   6.106   2.595  0.7353 -2.1414  0.7514
   53ccc    H20 2506   0.340   6.437   2.752  0.5775 -0.5287 -1.8611
   53ccc     O1 2507   0.284   6.365   2.918  0.4826  0.4664  0.0915
   53ccc     O6 2508   0.547   5.989   2.727 -0.1241 -0.5977 -0.3150
   53ccc    C16 2509  -0.059   6.128   2.678 -0.1818 -0.0742 -0.9671
   53ccc    H21 2510   0.494   5.908   2.738  0.5707 -0.7520  2.6059
   53ccc    H22 2511   0.589   6.324   2.636 -0.2937 -0.0942  0.4272
   53ccc    H23 2512  -0.063   6.024   2.712 -0.4714 -0.7413 -2.9062
   53ccc    H24 2513  -0.130   6.112   2.596 -3.8656 -0.2537  2.0039
   53ccc     O7 2514  -0.105   6.217   2.785 -0.2255  0.0902 -0.0200
   53ccc    H25 2515  -0.194   6.188   2.811 -0.0078 -0.0718  0.5764
   53ccc     O8 2516   0.149   6.304   2.721  0.5756 -0.3474 -0.3726
   53ccc    H26 2517   0.246   6.454   2.929  0.0487  0.1183  1.7218
   53ccc    H27 2518   0.133   5.956   2.624 -0.9605 -0.8577 -3.2130
   53ccc     O9 2519   0.136   5.999   2.449  0.3587 -0.1515 -0.3556
   53ccc    H28 2520   0.188   6.047   2.382  0.5270 -0.6124 -0.5629
   53ccc     N3 2521   0.584   6.307   2.737  0.1323  0.1941  0.4978
   53ccc    C17 2522   1.390   6.552   2.255 -0.3751  0.1232  0.4960
   53ccc    C18 2523   1.309   6.630   2.149  0.2070  0.0793 -0.1909
   53ccc    H29 2524   1.326   6.465   2.271 -1.2013  0.2509 -1.7937
   53ccc    C19 2525   1.194   6.711   2.226  0.0158  0.2457 -0.1250
   53ccc    C20 2526   1.228   6.777   2.361 -0.6514 -0.0096 -0.6122
   53ccc    C21 2527   1.304   6.674   2.446 -0.4362 -0.1984 -0.0038
   53ccc    H30 2528   1.298   6.859   2.343  0.5616 -0.8866 -0.1034
   53ccc    H31 2529   1.128   6.626   2.250  1.0940 -0.3635  0.8122
   53ccc    H32 2530   1.242   6.591   2.481  1.0655 -0.4234  2.3487
   53ccc    O10 2531   1.361   6.731   2.562 -0.1070 -0.1007  0.1821
   53ccc    O11 2532   1.145   6.804   2.130 -0.0086 -0.3632 -0.0791
   53ccc    C22 2533   1.533   6.503   2.206  0.4752  0.2041  0.0626
   53ccc    H33 2534   1.055   6.820   2.163 -0.2690 -2.5326  0.4155
   53ccc    H34 2535   1.119   6.927   2.454  1.3285  0.0238  0.5448
   53ccc    H35 2536   1.608   6.584   2.205 -0.4300  1.0593 -0.6830
   53ccc    H36 2537   1.514   6.468   2.104 -0.7111 -1.5982  0.8751
   53ccc    O12 2538   1.578   6.406   2.295 -0.0183  0.2782 -0.3280
   53ccc    H37 2539   1.675   6.408   2.293  0.0543 -0.3870  0.9335
   53ccc    O13 2540   1.417   6.629   2.373  0.3395  0.3145  0.1491
   53ccc    H38 2541   1.433   6.781   2.519 -0.6598  0.1681 -0.4343
   53ccc    H39 2542   1.373   6.703   2.098 -0.9019  2.1093  1.1927
   53ccc     O5 2543   1.268   6.533   2.055  0.1613 -0.1795 -0.0140
   53ccc    H40 2544   1.220   6.581   1.985  1.1634  2.9744  1.2700
   53ccc     N4 2545   1.109   6.827   2.437 -0.0700  0.2306 -0.0212
   53ccc    H41 2546   0.960   6.648   2.724  0.6470  0.8335  0.8024
   54ccc     N1 2547   1.980   4.862   2.765 -0.7967 -0.8022 -0.0596
   54ccc     H4 2548   2.009   4.854   2.862 -1.3931 -0.3583  0.1608
   54ccc     C3 2549   2.035   4.775   2.664  0.2710 -0.0162  0.7543
   54ccc     H5 2550   2.018   4.815   2.563  0.0891 -2.0533 -0.0672
   54ccc     C4 2551   1.984   4.632   2.668  0.3422 -0.0508  0.0466
   54ccc     H6 2552   2.142   4.760   2.679  0.2984 -1.4097 -0.5532
   54ccc     H7 2553   1.875   4.636   2.657  0.5981  0.8422 -3.0143
   54ccc     H8 2554   2.000   4.584   2.765 -0.3803 -1.0462 -0.3053
   54ccc     N2 2555   2.025   4.528   2.564  0.5373 -0.3991 -0.3056
   54ccc     C5 2556   2.177   4.494   2.576  1.2453 -0.1675  0.0394
   54ccc     C6 2557   1.976   4.587   2.430 -0.8601  0.0369  1.1176
   54ccc     H9 2558   1.873   4.624   2.436 -1.6697 -1.7185 -0.5079
   54ccc     C7 2559   1.980   4.482   2.316  0.7268 -0.7361 -0.2453
   54ccc    H10 2560   2.044   4.666   2.399 -0.2644 -0.7256  0.4297
   54ccc    H11 2561   1.936   4.384   2.340 -1.0415 -0.0160 -0.3576
   54ccc    H12 2562   2.083   4.465   2.282  1.0114  1.1496 -0.4063
   54ccc     C8 2563   1.906   4.537   2.194 -0.2651  0.5888  0.2416
   54ccc     O2 2564   1.834   4.632   2.186 -0.4391 -0.1577 -0.2462
   54ccc    H13 2565   2.233   4.582   2.542  0.1970  0.0106 -1.3452
   54ccc    H14 2566   2.195   4.420   2.497 -2.1582 -0.8077 -0.2779
   54ccc     C9 2567   2.231   4.461   2.723  0.3638 -0.2000 -0.0809
   54ccc    H15 2568   2.163   4.399   2.782 -0.5201  1.6405  0.9269
   54ccc    H16 2569   2.237   4.556   2.779  0.2284  0.2497 -0.8192
   54ccc    C10 2570   2.374   4.403   2.721  0.1070  0.0847  0.3586
   54ccc     O4 2571   2.432   4.367   2.621  0.1830  0.0143  0.3379
   54ccc    C11 2572   1.936   4.348   1.584 -0.1722  0.6696 -0.7821
   54ccc    C12 2573   1.835   4.268   1.711 -0.5237  0.7084  0.2151
   54ccc    H17 2574   2.022   4.285   1.558 -1.3978 -1.2726 -0.3679
   54ccc    C13 2575   1.811   4.323   1.878 -0.6594 -0.0949  0.3578
   54ccc    C14 2576   1.865   4.482   1.951 -0.3753  0.8747 -0.4518
   54ccc    C15 2577   1.971   4.592   1.852  0.2413  0.7126 -0.9096
   54ccc    H18 2578   1.772   4.536   1.969 -0.5627  0.8805 -1.4160
   54ccc    H19 2579   1.865   4.244   1.932 -0.8549 -1.6363 -1.5629
   54ccc    H20 2580   2.063   4.592   1.913 -1.4061  1.7378  1.7720
   54ccc     O1 2581   1.929   4.722   1.895 -0.4836  0.0511  0.1473
   54ccc     O6 2582   1.682   4.300   1.910  0.3872 -0.6329 -0.6234
   54ccc    C16 2583   1.864   4.346   1.444 -0.5647  0.2235  0.4545
   54ccc    H21 2584   1.628   4.379   1.894  1.2516 -0.1261 -1.1182
   54ccc    H22 2585   1.976   4.373   2.099  0.2960  0.4166 -0.5748
   54ccc    H23 2586   1.754   4.352   1.448 -0.9640 -1.7798 -3.2890
   54ccc    H24 2587   1.879   4.246   1.404  0.2126  0.7208 -0.5441
   54ccc     O7 2588   1.920   4.450   1.365  0.2046  0.0178 -0.1367
   54ccc    H25 2589   1.951   4.400   1.287  2.8340 -1.4610  1.6992
   54ccc     O8 2590   2.015   4.503   1.632 -0.2290 -0.2546  0.0846
   54ccc    H26 2591   2.001   4.772   1.853  2.0896 -0.3083  3.6471
   54ccc    H27 2592   1.734   4.272   1.666 -0.5835 -1.6358  0.0290
   54ccc     O9 2593   1.869   4.123   1.710  0.4762  0.1349  0.0790
   54ccc    H28 2594   1.813   4.062   1.762 -0.5980 -0.4387 -1.6701
   54ccc     N3 2595   1.918   4.457   2.092 -0.3013  0.1024  0.4830
   54ccc    C17 2596   2.406   4.308   3.251 -0.3257  0.2445  0.2323
   54ccc    C18 2597   2.433   4.458   3.208  0.1283  0.9385  0.0787
   54ccc    H29 2598   2.505   4.261   3.252 -0.0826  0.7182 -0.7062
   54ccc    C19 2599   2.488   4.470   3.069 -0.0262  0.4182 -0.0401
   54ccc    C20 2600   2.393   4.400   2.970 -0.2751  0.3102  1.0991
   54ccc    C21 2601   2.378   4.252   3.018 -0.0601 -0.2812 -0.0643
   54ccc    H30 2602   2.305   4.466   2.976 -0.2618  0.3966  0.4467
   54ccc    H31 2603   2.579   4.411   3.080 -0.4110 -0.1910 -0.0959
   54ccc    H32 2604   2.479   4.208   3.016 -0.0739 -0.4301  1.3888
   54ccc    O10 2605   2.293   4.176   2.935 -0.1777 -0.0988  0.3291
   54ccc    O11 2606   2.518   4.608   3.038 -0.1465 -0.3396 -0.5498
   54ccc    C22 2607   2.339   4.284   3.394 -0.7894  0.0538  0.4063
   54ccc    H33 2608   2.576   4.617   2.960 -0.0574  0.9988 -0.3428
   54ccc    H34 2609   2.543   4.379   2.830  0.3305  0.3125  0.0352
   54ccc    H35 2610   2.403   4.338   3.466  2.8410 -1.7776 -1.1907
   54ccc    H36 2611   2.341   4.179   3.424 -1.1347 -0.1428 -0.2481
   54ccc    O12 2612   2.208   4.330   3.386  0.1105 -0.5199  0.0041
   54ccc    H37 2613   2.166   4.350   3.472  0.1389  0.2915 -0.1609
   54ccc    O13 2614   2.324   4.244   3.149 -0.0152 -0.4876  0.7623
   54ccc    H38 2615   2.296   4.091   2.981 -1.5611 -1.3171 -1.6671
   54ccc    H39 2616   2.342   4.516   3.190  0.1287  0.6523 -0.9372
   54ccc     O5 2617   2.526   4.521   3.299  0.4635  0.7232  0.6043
   54ccc    H40 2618   2.463   4.556   3.365 -1.3755 -0.9434 -0.1737
   54ccc     N4 2619   2.447   4.413   2.830  0.3160  0.2743 -0.3050
   54ccc    H41 2620   1.966   4.444   2.575 -1.7165  1.0250 -0.7479
   55ccc     N1 2621   2.445   5.380   2.776  0.0296  0.6726 -0.4227
   55ccc     H4 2622   2.455   5.294   2.723 -0.3852 -0.3660  1.1053
   55ccc     C3 2623   2.561   5.453   2.801 -0.2322 -0.5956 -0.1798
   55ccc     H5 2624   2.632   5.428   2.722  0.4373  1.1609 -0.1680
   55ccc     C4 2625   2.630   5.423   2.937 -0.7259 -0.1202  0.2386
   55ccc     H6 2626   2.545   5.561   2.796  0.6572 -0.4839 -0.7939
   55ccc     H7 2627   2.717   5.490   2.939  1.5763 -2.7333 -2.5777
   55ccc     H8 2628   2.662   5.318   2.935 -2.4370 -0.7095  1.4739
   55ccc     N2 2629   2.539   5.436   3.054 -0.1478  0.0612  0.2495
   55ccc     C5 2630   2.524   5.582   3.096 -0.5046 -0.1487  0.2532
   55ccc     C6 2631   2.574   5.343   3.166 -0.3813 -0.0492  0.1547
   55ccc     H9 2632   2.682   5.358   3.175 -0.6036  1.9486 -0.1297
   55ccc     C7 2633   2.541   5.191   3.148 -0.8821  0.1880  0.7349
   55ccc    H10 2634   2.522   5.377   3.256  1.2014  2.4951  0.1918
   55ccc    H11 2635   2.573   5.142   3.240 -0.3842 -3.5624 -1.2601
   55ccc    H12 2636   2.612   5.143   3.079 -0.8093  1.5409 -0.1838
   55ccc     C8 2637   2.403   5.138   3.119  0.3948 -0.5226  0.0249
   55ccc     O2 2638   2.306   5.215   3.108  0.4037 -0.3662 -0.7730
   55ccc    H13 2639   2.513   5.635   3.001  1.0160 -1.4281 -0.6947
   55ccc    H14 2640   2.619   5.618   3.140  0.3644 -2.2877  0.2531
   55ccc     C9 2641   2.400   5.629   3.179 -0.2130  0.7814 -0.3217
   55ccc    H15 2642   2.314   5.566   3.152  1.4486 -0.9371 -1.9267
   55ccc    H16 2643   2.374   5.730   3.146 -1.2337 -0.3509 -3.3489
   55ccc    C10 2644   2.414   5.624   3.331  0.0537  0.5716  0.5975
   55ccc     O4 2645   2.349   5.538   3.396  0.0002 -0.0438 -0.3757
   55ccc    C11 2646   2.128   4.671   3.095 -0.7835  0.1439 -0.5012
   55ccc    C12 2647   2.143   4.742   3.234 -0.1001 -0.1687  0.4433
   55ccc    H17 2648   2.198   4.586   3.087 -0.2841  0.6695 -2.2704
   55ccc    C13 2649   2.272   4.838   3.232  0.0835  0.3278  0.2715
   55ccc    C14 2650   2.277   4.928   3.103 -0.2857 -0.0295 -0.0694
   55ccc    C15 2651   2.274   4.836   2.978 -0.2396 -0.0686 -0.4573
   55ccc    H18 2652   2.188   4.990   3.118 -0.4079 -0.7107  2.3667
   55ccc    H19 2653   2.362   4.775   3.230 -0.2611 -0.1496 -0.5885
   55ccc    H20 2654   2.355   4.762   2.978 -1.3811 -1.4154  1.1486
   55ccc     O1 2655   2.259   4.905   2.855  0.1248  0.0508  0.2116
   55ccc     O6 2656   2.270   4.920   3.351 -0.2855  0.0708  0.2857
   55ccc    C16 2657   1.985   4.609   3.079 -0.6228  0.0647  0.1098
   55ccc    H21 2658   2.360   4.953   3.369 -0.2869 -0.1398  0.6974
   55ccc    H22 2659   2.481   4.945   3.110  0.4937  0.4347 -0.1616
   55ccc    H23 2660   1.913   4.683   3.044 -1.6870 -0.8274  0.3581
   55ccc    H24 2661   1.948   4.568   3.174 -0.0316  0.7818  0.6685
   55ccc     O7 2662   2.008   4.496   2.993 -0.4512  0.6083  0.0252
   55ccc    H25 2663   1.916   4.478   2.967 -0.3217 -0.6491  0.3886
   55ccc     O8 2664   2.147   4.760   2.989 -0.5954  0.2001  0.4743
   55ccc    H26 2665   2.331   4.969   2.844 -1.1739  1.2058 -3.1745
   55ccc    H27 2666   2.056   4.807   3.252 -1.2790 -2.0006  1.6781
   55ccc     O9 2667   2.159   4.653   3.340 -0.7502  0.4705  0.1042
   55ccc    H28 2668   2.224   4.687   3.405 -1.1218  0.2337  0.6031
   55ccc     N3 2669   2.400   5.007   3.107 -0.0274 -0.2158  0.1358
   55ccc    C17 2670   2.834   5.840   3.596 -0.1815  0.6027  0.6671
   55ccc    C18 2671   2.702   5.867   3.671 -0.1635 -0.5147 -0.1626
   55ccc    H29 2672   2.845   5.913   3.515  1.5321  1.1215  1.3218
   55ccc    C19 2673   2.575   5.848   3.582  0.6074 -0.0920 -0.0409
   55ccc    C20 2674   2.577   5.714   3.503  0.1055  0.4600 -0.0877
   55ccc    C21 2675   2.721   5.674   3.461 -0.6058  0.7003  0.2499
   55ccc    H30 2676   2.542   5.638   3.574 -1.0274  1.6754  0.7156
   55ccc    H31 2677   2.583   5.929   3.507  1.1874  0.2511  0.3836
   55ccc    H32 2678   2.748   5.739   3.377  0.4749 -1.0027 -0.7621
   55ccc    O10 2679   2.733   5.532   3.431 -0.4380  0.6478 -0.4353
   55ccc    O11 2680   2.452   5.845   3.660 -0.6337  0.3947  0.1021
   55ccc    C22 2681   2.952   5.866   3.695  0.6520  0.4797 -0.8194
   55ccc    H33 2682   2.373   5.833   3.604 -0.3449 -0.6685 -0.1002
   55ccc    H34 2683   2.532   5.787   3.320  1.4957 -0.9571 -0.1375
   55ccc    H35 2684   2.962   5.804   3.785  2.7373 -0.5314 -1.6708
   55ccc    H36 2685   2.954   5.970   3.727 -1.3720 -0.6126  3.5785
   55ccc    O12 2686   3.069   5.854   3.613  0.3086  0.7236  0.0413
   55ccc    H37 2687   3.026   5.828   3.530 -1.8122  0.9623  0.9937
   55ccc    O13 2688   2.821   5.702   3.561  0.2810 -0.4689 -0.3941
   55ccc    H38 2689   2.823   5.514   3.399  1.0888  0.5546  3.3979
   55ccc    H39 2690   2.701   5.800   3.758  1.3772 -1.0301 -0.5048
   55ccc     O5 2691   2.695   6.005   3.701  0.0553  0.2820  0.8490
   55ccc    H40 2692   2.652   6.005   3.788 -0.0907  1.0998  0.7810
   55ccc     N4 2693   2.486   5.727   3.387  0.0610  0.7410  0.4811
   55ccc    H41 2694   2.450   5.400   3.016 -0.1906 -0.3237  0.7060
   56ccc     N1 2695   2.704   4.298   1.701  0.7732 -0.4333 -0.8906
   56ccc     H4 2696   2.794   4.320   1.742  0.9114 -0.1984 -1.3076
   56ccc     C3 2697   2.665   4.162   1.653 -0.1697  0.0361 -0.3600
   56ccc     H5 2698   2.581   4.168   1.583  0.4747 -0.1601 -1.1771
   56ccc     C4 2699   2.629   4.073   1.775 -0.9175 -0.1723  0.3581
   56ccc     H6 2700   2.753   4.122   1.601 -0.0542 -0.2144  0.0238
   56ccc     H7 2701   2.710   4.081   1.848 -2.1332  0.3379  1.7191
   56ccc     H8 2702   2.627   3.966   1.749  1.4067 -0.3071  0.5602
   56ccc     N2 2703   2.497   4.104   1.836 -0.4711 -0.2962 -0.1054
   56ccc     C5 2704   2.497   4.049   1.981 -0.2763 -0.4984  0.0474
   56ccc     C6 2705   2.380   4.037   1.752  0.8470  0.1259 -0.0447
   56ccc     H9 2706   2.388   4.082   1.652 -0.8095 -0.7506 -0.6036
   56ccc     C7 2707   2.239   4.037   1.807  0.6801 -0.4230  0.4368
   56ccc    H10 2708   2.406   3.931   1.740  0.1098  0.2160 -3.9230
   56ccc    H11 2709   2.222   3.974   1.895 -0.2989  0.4516  0.8959
   56ccc    H12 2710   2.167   4.005   1.730 -2.3036  0.7411  2.5640
   56ccc     C8 2711   2.193   4.175   1.850 -0.0175  0.3300 -0.2631
   56ccc     O2 2712   2.241   4.238   1.943 -0.8559 -0.3179  0.1052
   56ccc    H13 2713   2.532   3.946   1.986  0.5869 -0.1691  1.1711
   56ccc    H14 2714   2.398   4.059   2.027 -0.3541 -0.5360 -0.1098
   56ccc     C9 2715   2.591   4.123   2.083 -0.0103 -0.2020 -0.2074
   56ccc    H15 2716   2.698   4.100   2.071  0.2182  0.9086 -0.3346
   56ccc    H16 2717   2.586   4.074   2.181 -0.2509 -0.9149 -0.5636
   56ccc    C10 2718   2.574   4.268   2.089  0.0538  0.3502 -0.0208
   56ccc     O4 2719   2.596   4.341   1.988  0.1100 -0.0425 -0.4891
   56ccc    C11 2720   2.041   4.735   1.643  0.1205  0.4171 -0.1568
   56ccc    C12 2721   1.869   4.681   1.642  0.4097 -0.7027 -0.3325
   56ccc    H17 2722   2.066   4.716   1.538 -0.1754  0.1446 -0.1831
   56ccc    C13 2723   1.817   4.518   1.711  0.4940  0.2335 -0.0546
   56ccc    C14 2724   2.047   4.383   1.806  0.3184 -0.0151  0.2446
   56ccc    C15 2725   2.193   4.494   1.776 -0.1453  0.3705  0.0553
   56ccc    H18 2726   2.052   4.375   1.915 -1.8040 -2.7717  0.2254
   56ccc    H19 2727   1.767   4.482   1.620 -0.9378  3.9939 -0.9154
   56ccc    H20 2728   2.247   4.443   1.695  1.0844  0.6064  0.7040
   56ccc     O1 2729   2.261   4.492   1.902  0.0661 -0.1817 -0.5128
   56ccc     O6 2730   1.680   4.532   1.764  0.1926 -0.4510 -0.0834
   56ccc    C16 2731   2.058   4.887   1.651  0.0945 -0.2884 -0.2179
   56ccc    H21 2732   1.634   4.606   1.722 -0.4206 -0.7202  0.1130
   56ccc    H22 2733   2.035   4.191   1.719 -1.1664 -0.1657  0.7313
   56ccc    H23 2734   1.988   4.934   1.581  0.0923 -0.3000 -0.2232
   56ccc    H24 2735   2.164   4.903   1.628  0.5883 -2.4681  0.2970
   56ccc     O7 2736   2.059   4.932   1.788 -0.1541  0.7811 -0.0589
   56ccc    H25 2737   2.004   5.012   1.781 -1.3215  0.0172  0.1182
   56ccc     O8 2738   2.171   4.653   1.725  0.1005  0.1278  0.5248
   56ccc    H26 2739   2.280   4.398   1.917  1.7810  0.2117 -0.0248
   56ccc    H27 2740   1.802   4.758   1.682 -0.8021 -1.0202 -1.6692
   56ccc     O9 2741   1.836   4.685   1.500  0.4122 -0.4907  0.0118
   56ccc    H28 2742   1.881   4.608   1.461  1.6463  0.1010  0.2174
   56ccc     N3 2743   2.097   4.241   1.782  0.4820  0.0430 -0.9536
   56ccc    C17 2744   2.502   4.670   2.441 -0.8033  0.3651 -0.6488
   56ccc    C18 2745   2.651   4.642   2.406 -0.0648 -0.1323  0.8486
   56ccc    H29 2746   2.474   4.613   2.530  1.1725  0.2294 -0.0625
   56ccc    C19 2747   2.670   4.506   2.342 -0.1792 -0.0120  0.0031
   56ccc    C20 2748   2.557   4.453   2.251 -0.5405 -0.2555  0.5044
   56ccc    C21 2749   2.416   4.493   2.298 -0.3925 -0.1581 -0.0478
   56ccc    H30 2750   2.565   4.516   2.161 -1.2350  1.5767  1.6804
   56ccc    H31 2751   2.692   4.434   2.422  1.8301  1.3686  0.7786
   56ccc    H32 2752   2.385   4.438   2.387 -0.9084  0.0234 -0.1063
   56ccc    O10 2753   2.319   4.476   2.199 -0.1845 -0.5033 -0.0879
   56ccc    O11 2754   2.781   4.516   2.259 -0.6959  0.9060  0.3733
   56ccc    C22 2755   2.470   4.823   2.475 -0.2816  0.6460  0.0015
   56ccc    H33 2756   2.858   4.559   2.301 -1.1273  2.6350 -0.5003
   56ccc    H34 2757   2.522   4.239   2.276 -0.8218 -0.8140 -1.2897
   56ccc    H35 2758   2.476   4.881   2.382  0.6042 -1.1972 -1.1526
   56ccc    H36 2759   2.545   4.859   2.546 -1.5158  0.7771  1.2676
   56ccc    O12 2760   2.337   4.828   2.532  0.0032  0.5807 -0.0412
   56ccc    H37 2761   2.325   4.923   2.550  0.1275  0.0871  3.4164
   56ccc    O13 2762   2.419   4.637   2.333 -0.1608  0.2737  0.1842
   56ccc    H38 2763   2.299   4.565   2.165  0.6042 -0.1801  0.2640
   56ccc    H39 2764   2.678   4.718   2.332 -0.0267 -0.8827  0.0740
   56ccc     O5 2765   2.738   4.664   2.516  0.3262  0.5093  0.2223
   56ccc    H40 2766   2.829   4.659   2.483  0.6354  1.0657  0.9632
   56ccc     N4 2767   2.560   4.307   2.210  0.5573 -0.5821 -0.3155
   56ccc    H41 2768   2.486   4.205   1.846 -1.4395 -0.4607  0.6349
   57ccc     N1 2769   2.888   5.058   2.004 -0.6038  0.3080 -0.5061
   57ccc     H4 2770   2.959   5.027   2.069  0.2160  1.1185 -0.9908
   57ccc     C3 2771   2.899   5.196   1.947 -0.5201  0.3451 -0.4165
   57ccc     H5 2772   2.807   5.254   1.933  0.2923  1.3337 -2.0529
   57ccc     C4 2773   2.966   5.189   1.808 -0.2202 -0.0635  0.1525
   57ccc     H6 2774   2.962   5.254   2.015 -1.0944  0.7737 -0.2345
   57ccc     H7 2775   3.067   5.150   1.828 -0.3836 -0.7046 -0.2256
   57ccc     H8 2776   2.993   5.291   1.779  0.1158  0.2335  1.4473
   57ccc     N2 2777   2.886   5.119   1.698  0.5782  0.3853 -0.0568
   57ccc     C5 2778   2.983   5.053   1.592 -0.3463 -0.3086 -0.5497
   57ccc     C6 2779   2.787   5.217   1.636  0.7919  0.6835 -0.0655
   57ccc     H9 2780   2.732   5.245   1.727  0.3059  1.8187 -0.6997
   57ccc     C7 2781   2.682   5.169   1.528 -0.4631 -0.2125 -0.7273
   57ccc    H10 2782   2.847   5.306   1.611  0.4097  1.1921  0.7755
   57ccc    H11 2783   2.617   5.090   1.567 -0.8909  0.3589 -0.2672
   57ccc    H12 2784   2.735   5.145   1.435  0.4178 -1.3400  0.0380
   57ccc     C8 2785   2.573   5.272   1.493  0.2257  0.3644 -0.0848
   57ccc     O2 2786   2.538   5.370   1.555 -0.0334 -1.0078  0.0386
   57ccc    H13 2787   3.041   5.140   1.558 -0.7490  1.0994  2.0354
   57ccc    H14 2788   2.919   5.011   1.514 -0.6732 -1.3166  0.2514
   57ccc     C9 2789   3.078   4.943   1.651 -0.2057  0.5515 -0.2629
   57ccc    H15 2790   3.135   4.969   1.741  0.5903  0.1736 -0.6463
   57ccc    H16 2791   3.149   4.911   1.573  1.1943  0.8639  0.8467
   57ccc    C10 2792   3.007   4.817   1.695  0.0878  0.8989 -0.7802
   57ccc     O4 2793   2.884   4.808   1.703  0.3201 -0.4190  0.2424
   57ccc    C11 2794   2.219   5.370   1.112 -0.4394  0.0001  0.1112
   57ccc    C12 2795   2.167   5.308   1.242  0.8710  0.6930  0.0893
   57ccc    H17 2796   2.242   5.291   1.040 -2.2155 -0.6299  0.1939
   57ccc    C13 2797   2.283   5.232   1.315 -0.3946  0.6162 -0.3820
   57ccc    C14 2798   2.405   5.319   1.316  0.6285 -0.7399  0.1923
   57ccc    C15 2799   2.447   5.371   1.179  0.1985  0.0223  0.1052
   57ccc    H18 2800   2.385   5.411   1.373  1.2714 -0.8359  0.5871
   57ccc    H19 2801   2.305   5.143   1.255  0.1010  1.8210 -2.0675
   57ccc    H20 2802   2.462   5.287   1.110  0.4154  0.3705 -0.2760
   57ccc     O1 2803   2.545   5.466   1.187 -0.1505  0.2015  0.4876
   57ccc     O6 2804   2.239   5.205   1.446 -0.2610  0.4481  0.4312
   57ccc    C16 2805   2.122   5.467   1.055  1.2512 -0.0094 -0.2528
   57ccc    H21 2806   2.144   5.187   1.440 -0.4622  1.1316  1.3974
   57ccc    H22 2807   2.541   5.172   1.312  1.5046  0.9335 -0.8728
   57ccc    H23 2808   2.094   5.546   1.126 -0.8541 -0.7133 -0.2351
   57ccc    H24 2809   2.026   5.418   1.033 -0.7186  3.0448  0.8606
   57ccc     O7 2810   2.173   5.521   0.929  0.0925 -0.6468 -0.6085
   57ccc    H25 2811   2.237   5.589   0.957 -2.5929  1.9266 -0.1708
   57ccc     O8 2812   2.338   5.445   1.130 -0.0639  0.3959 -0.1891
   57ccc    H26 2813   2.609   5.432   1.252  1.1393  0.6644 -0.4806
   57ccc    H27 2814   2.114   5.382   1.304 -0.1643 -0.7333  0.9876
   57ccc     O9 2815   2.073   5.203   1.200 -0.4423  0.2703 -0.1087
   57ccc    H28 2816   1.991   5.256   1.202 -1.5551 -1.2466 -2.1353
   57ccc     N3 2817   2.513   5.248   1.375  0.4424 -0.3517  0.2660
   57ccc    C17 2818   3.081   4.317   1.880  0.0077 -0.0948 -0.1409
   57ccc    C18 2819   3.089   4.416   1.993  0.3291  0.4505 -0.0913
   57ccc    H29 2820   3.179   4.304   1.832 -0.0394  2.1172 -0.9338
   57ccc    C19 2821   3.143   4.554   1.936 -0.9348  0.3657  0.4327
   57ccc    C20 2822   3.052   4.606   1.819 -0.2095 -0.1781  0.5614
   57ccc    C21 2823   3.038   4.497   1.717 -0.1894  0.5640  0.1277
   57ccc    H30 2824   2.949   4.624   1.851 -1.3022 -1.4525 -1.9046
   57ccc    H31 2825   3.241   4.545   1.889 -0.7210  0.3705  0.8711
   57ccc    H32 2826   3.138   4.468   1.683 -0.3169 -0.7295  0.8155
   57ccc    O10 2827   2.951   4.523   1.609 -0.0938 -0.1465 -0.1892
   57ccc    O11 2828   3.158   4.650   2.037 -0.1304  0.3046  0.0344
   57ccc    C22 2829   3.028   4.176   1.923  0.1581 -0.2285  0.5874
   57ccc    H33 2830   3.226   4.715   2.015  0.8975 -0.8164 -0.1820
   57ccc    H34 2831   3.191   4.745   1.751 -0.1057 -1.5400  0.0528
   57ccc    H35 2832   3.120   4.116   1.928  0.7565  0.7300  1.6058
   57ccc    H36 2833   2.979   4.125   1.839 -0.3049  0.6036  0.3452
   57ccc    O12 2834   2.947   4.171   2.043  0.3593 -0.7388  0.3473
   57ccc    H37 2835   2.988   4.105   2.102  0.0047 -0.9020  0.4129
   57ccc    O13 2836   2.985   4.382   1.785 -0.4920  0.3868 -0.1170
   57ccc    H38 2837   2.983   4.601   1.559 -3.1711  0.0556 -2.1378
   57ccc    H39 2838   2.989   4.426   2.037  0.7688 -1.5956  1.5293
   57ccc     O5 2839   3.177   4.370   2.092 -0.2693 -0.0242  0.4618
   57ccc    H40 2840   3.188   4.434   2.165 -0.7134 -2.4466  2.7713
   57ccc     N4 2841   3.090   4.737   1.762 -0.1408  0.0821  1.2632
   57ccc    H41 2842   2.837   5.037   1.737  1.2708 -0.9435 -1.8322
   58ccc     N1 2843   0.786   3.086   2.596 -0.0848 -0.5363 -0.0165
   58ccc     H4 2844   0.713   3.122   2.536  0.3182 -1.1335 -0.8893
   58ccc     C3 2845   0.838   2.950   2.578  0.3726 -0.6433 -0.3113
   58ccc     H5 2846   0.947   2.955   2.575  0.4165 -1.1861  0.1985
   58ccc     C4 2847   0.774   2.894   2.454 -0.2473 -0.1973  0.3146
   58ccc     H6 2848   0.809   2.886   2.663 -0.8218  0.4106  0.1133
   58ccc     H7 2849   0.763   2.967   2.373 -0.0272  0.1843  0.6275
   58ccc     H8 2850   0.670   2.863   2.472 -0.0764 -1.0091 -0.0482
   58ccc     N2 2851   0.835   2.759   2.409  0.2161 -0.2221  0.4185
   58ccc     C5 2852   0.971   2.793   2.345 -0.2337  0.2053  0.0529
   58ccc     C6 2853   0.748   2.687   2.308  0.4909  0.2591  0.4411
   58ccc     H9 2854   0.730   2.758   2.226  3.7313 -1.4546 -1.9872
   58ccc     C7 2855   0.616   2.618   2.349  0.0207  0.2474 -0.5153
   58ccc    H10 2856   0.811   2.605   2.271 -0.9717 -0.9080  0.4629
   58ccc    H11 2857   0.568   2.565   2.266  0.3380 -1.0831  0.1215
   58ccc    H12 2858   0.535   2.681   2.388 -0.5887 -0.5913 -0.4032
   58ccc     C8 2859   0.652   2.515   2.455 -0.0975 -0.4501 -0.2736
   58ccc     O2 2860   0.700   2.402   2.439 -0.8918  0.2708 -0.2460
   58ccc    H13 2861   1.024   2.870   2.401  1.9865 -0.4697 -1.0144
   58ccc    H14 2862   0.949   2.836   2.246 -0.1287  3.1882  1.2286
   58ccc     C9 2863   1.071   2.676   2.327  0.5364 -0.2667 -0.2370
   58ccc    H15 2864   1.153   2.714   2.265  1.1638 -0.5875  0.3774
   58ccc    H16 2865   1.032   2.587   2.277  3.7362 -2.0428  0.1854
   58ccc    C10 2866   1.142   2.616   2.451  0.1502 -0.2236 -0.2158
   58ccc     O4 2867   1.146   2.663   2.566  0.3912  0.6430  0.3977
   58ccc    C11 2868   0.827   2.326   2.874  0.0485  0.6093 -0.2354
   58ccc    C12 2869   0.893   2.459   2.838 -0.0882  0.6254  0.3378
   58ccc    H17 2870   0.867   2.256   2.800  0.8773 -1.0177  1.6320
   58ccc    C13 2871   0.843   2.512   2.699  0.5402  0.2559 -0.6981
   58ccc    C14 2872   0.694   2.512   2.704  0.6270 -0.1167  0.0912
   58ccc    C15 2873   0.634   2.376   2.740  0.1584 -0.1536 -1.3779
   58ccc    H18 2874   0.666   2.583   2.782 -2.4872 -1.2754  0.1818
   58ccc    H19 2875   0.874   2.436   2.625  1.3523 -1.4019  1.2598
   58ccc    H20 2876   0.647   2.295   2.668 -0.5581 -1.6891  0.1483
   58ccc     O1 2877   0.500   2.381   2.778 -0.1650 -0.2799 -0.2427
   58ccc     O6 2878   0.889   2.641   2.677  0.9631  0.0713  0.0661
   58ccc    C16 2879   0.865   2.264   3.012  0.5448  0.7520  0.0031
   58ccc    H21 2880   0.987   2.645   2.678  0.9691 -0.0278  1.1732
   58ccc    H22 2881   0.600   2.661   2.588 -0.7595 -0.8747 -0.4204
   58ccc    H23 2882   0.974   2.256   3.013  0.4489 -0.7962  0.1282
   58ccc    H24 2883   0.823   2.166   3.035  2.0378  0.5301  2.1630
   58ccc     O7 2884   0.830   2.345   3.120  0.3504  0.1322 -0.0465
   58ccc    H25 2885   0.863   2.303   3.201 -0.5662 -2.7780 -1.0723
   58ccc     O8 2886   0.686   2.336   2.866 -0.3196 -0.1720  0.0929
   58ccc    H26 2887   0.493   2.304   2.837 -0.8893  1.1403  1.6207
   58ccc    H27 2888   0.871   2.533   2.915 -0.6918  0.1699  0.6108
   58ccc     O9 2889   1.041   2.439   2.837 -0.0728  0.3562  0.0954
   58ccc    H28 2890   1.077   2.505   2.898 -0.8906  1.6475 -0.7744
   58ccc     N3 2891   0.644   2.569   2.577  0.5233 -0.3011 -0.2840
   58ccc    C17 2892   1.637   2.316   2.714  0.6110 -0.7112  0.2531
   58ccc    C18 2893   1.605   2.261   2.521 -0.3256  0.2829 -0.1514
   58ccc    H29 2894   1.624   2.239   2.791  1.7858 -0.5401  0.6511
   58ccc    C19 2895   1.470   2.347   2.413  0.0050 -0.8217 -0.9604
   58ccc    C20 2896   1.362   2.500   2.488  0.2505  0.5129 -0.1363
   58ccc    C21 2897   1.379   2.537   2.683 -0.3119  0.2549  0.1981
   58ccc    H30 2898   1.393   2.598   2.450  1.6517  1.2199  2.5506
   58ccc    H31 2899   1.398   2.267   2.392 -1.3648 -0.3160  1.4713
   58ccc    H32 2900   1.292   2.503   2.741  0.6180 -1.2099  0.8175
   58ccc    O10 2901   1.366   2.671   2.735  0.3831 -0.1887  0.1077
   58ccc    O11 2902   1.525   2.383   2.292  0.0952  0.2143  0.2584
   58ccc    C22 2903   1.784   2.364   2.743 -0.2043  0.7225  0.1443
   58ccc    H33 2904   1.599   2.323   2.273 -0.3742 -0.3620  0.2132
   58ccc    H34 2905   1.252   2.526   2.319  0.4379 -1.1044 -0.5866
   58ccc    H35 2906   1.829   2.424   2.663  0.9030 -0.5357 -0.2182
   58ccc    H36 2907   1.850   2.276   2.744  0.3104  1.0729 -1.0563
   58ccc    O12 2908   1.789   2.432   2.863 -0.7334 -0.5936 -0.1271
   58ccc    H37 2909   1.743   2.388   2.936  0.1482  0.0631  0.8622
   58ccc    O13 2910   1.523   2.451   2.780  0.1919  0.1207  0.6310
   58ccc    H38 2911   1.286   2.711   2.697 -0.9429 -0.0051  2.8350
   58ccc    H39 2912   1.698   2.290   2.469  0.5789  0.1995  1.3636
   58ccc     O5 2913   1.600   2.120   2.504 -0.1634 -0.0009  0.2924
   58ccc    H40 2914   1.614   2.093   2.411  0.9091 -0.1895  0.4906
   58ccc     N4 2915   1.232   2.525   2.419 -0.3518  0.5150 -0.7008
   58ccc    H41 2916   0.849   2.691   2.485  2.9946 -0.6480 -0.3739
   59ccc     N1 2917   1.131   3.046   3.003  0.2942 -0.2586  0.0661
   59ccc     H4 2918   1.054   2.986   3.028 -0.4314 -0.6929 -2.9041
   59ccc     C3 2919   1.257   2.995   2.943  0.4882  0.0923 -0.4065
   59ccc     H5 2920   1.223   2.938   2.855  2.7379 -0.2507 -1.1124
   59ccc     C4 2921   1.351   2.908   3.027 -0.6101  0.4534 -0.5314
   59ccc     H6 2922   1.322   3.073   2.900  2.6150 -1.4309 -0.0962
   59ccc     H7 2923   1.288   2.823   3.056 -0.2414 -0.1108 -1.3332
   59ccc     H8 2924   1.379   2.963   3.117 -1.4395  4.0645 -2.2806
   59ccc     N2 2925   1.475   2.850   2.957  0.4498 -0.7892  0.1407
   59ccc     C5 2926   1.566   2.775   3.051  0.4020 -0.1217  0.0117
   59ccc     C6 2927   1.559   2.958   2.889  1.0137  0.1141 -0.3230
   59ccc     H9 2928   1.646   2.902   2.852  0.0571 -0.9693 -1.0084
   59ccc     C7 2929   1.603   3.082   2.975 -0.0678  0.2261 -0.8694
   59ccc    H10 2930   1.504   2.979   2.796  0.5774 -1.6627 -0.5142
   59ccc    H11 2931   1.667   3.049   3.057  1.0541 -1.2113 -2.2684
   59ccc    H12 2932   1.522   3.151   3.003  0.4887  0.8376 -0.7663
   59ccc     C8 2933   1.683   3.177   2.892  0.0198  0.0309  0.5547
   59ccc     O2 2934   1.678   3.185   2.771 -0.4956  0.2958 -0.3856
   59ccc    H13 2935   1.603   2.847   3.125  2.0178  0.3441 -1.1899
   59ccc    H14 2936   1.653   2.745   2.992  0.7176  1.7452 -0.5542
   59ccc     C9 2937   1.505   2.652   3.120  0.7250 -0.0150  0.0240
   59ccc    H15 2938   1.448   2.588   3.051 -1.0614  0.4992  0.9613
   59ccc    H16 2939   1.439   2.680   3.202 -0.5133 -0.6929 -0.7134
   59ccc    C10 2940   1.614   2.561   3.183  0.5321 -0.5832 -0.1641
   59ccc     O4 2941   1.724   2.550   3.134 -0.0508 -0.0836 -0.1944
   59ccc    C11 2942   1.787   3.709   2.922 -0.9965 -0.1733 -0.4879
   59ccc    C12 2943   1.914   3.619   2.924  0.2067 -0.3544 -0.1051
   59ccc    H17 2944   1.775   3.730   3.029 -1.0898  3.1826 -1.0659
   59ccc    C13 2945   1.907   3.469   2.979 -0.0164 -0.1640  0.4025
   59ccc    C14 2946   1.783   3.410   2.912 -0.2163  0.0722  0.2912
   59ccc    C15 2947   1.661   3.499   2.935  0.6931  0.1224  0.2899
   59ccc    H18 2948   1.813   3.404   2.807  0.0684 -1.9491  0.4603
   59ccc    H19 2949   1.895   3.477   3.087 -0.5177 -2.7122  0.5964
   59ccc    H20 2950   1.639   3.505   3.042  0.2743  1.6829  0.1385
   59ccc     O1 2951   1.553   3.442   2.868  0.0419  0.7563 -0.1070
   59ccc     O6 2952   2.029   3.400   2.943  0.8059  0.1622 -0.1519
   59ccc    C16 2953   1.791   3.837   2.827 -0.0215 -0.4139 -0.5808
   59ccc    H21 2954   2.005   3.318   2.990 -0.8197 -0.1467 -1.4171
   59ccc    H22 2955   1.743   3.272   3.057  0.4191 -0.9197 -0.2425
   59ccc    H23 2956   1.792   3.815   2.719  2.1193  0.6394 -0.8214
   59ccc    H24 2957   1.888   3.881   2.853 -0.1021 -0.4227 -0.2683
   59ccc     O7 2958   1.685   3.920   2.860  0.6863  0.1122 -0.1601
   59ccc    H25 2959   1.720   3.984   2.924  0.7454  0.9822 -1.0376
   59ccc     O8 2960   1.680   3.629   2.875  0.4845  0.7077  0.2613
   59ccc    H26 2961   1.474   3.490   2.899  0.0395  0.7004 -0.0276
   59ccc    H27 2962   1.952   3.617   2.821 -0.2560 -1.3180 -0.2693
   59ccc     O9 2963   2.011   3.691   3.005 -0.3265  0.5911 -0.0940
   59ccc    H28 2964   2.097   3.646   3.010  0.5176  2.2442  1.8432
   59ccc     N3 2965   1.757   3.272   2.956 -0.0772  0.0816 -0.3196
   59ccc    C17 2966   1.308   2.355   3.590  0.3362 -0.1688  0.1291
   59ccc    C18 2967   1.351   2.506   3.584 -0.0392 -0.2302  0.1066
   59ccc    H29 2968   1.385   2.298   3.643  0.9053  0.1120 -0.3799
   59ccc    C19 2969   1.471   2.541   3.494 -0.1672 -0.6292  0.3034
   59ccc    C20 2970   1.466   2.460   3.364 -0.1801 -0.1616 -0.0244
   59ccc    C21 2971   1.435   2.315   3.379  0.1298 -0.0222 -0.1811
   59ccc    H30 2972   1.386   2.495   3.297 -0.3605  1.4947  1.0103
   59ccc    H31 2973   1.559   2.506   3.549  0.3623 -1.2100 -0.8925
   59ccc    H32 2974   1.508   2.267   3.445 -1.5181  0.1712  1.8704
   59ccc    O10 2975   1.428   2.248   3.247 -0.2206 -0.3298  0.2972
   59ccc    O11 2976   1.475   2.688   3.468  0.1052  0.0202 -0.1376
   59ccc    C22 2977   1.169   2.321   3.652  0.4254 -0.5742  0.3611
   59ccc    H33 2978   1.565   2.706   3.435  0.7965 -1.0580  1.0836
   59ccc    H34 2979   1.657   2.426   3.336 -1.6391 -1.6760  1.9857
   59ccc    H35 2980   1.166   2.351   3.758 -1.7110  1.3443 -0.1753
   59ccc    H36 2981   1.156   2.213   3.651 -0.8265 -0.4289  0.4354
   59ccc    O12 2982   1.060   2.392   3.588  0.5234 -0.2552  0.1178
   59ccc    H37 2983   1.063   2.389   3.491 -2.6032 -0.9325 -0.0509
   59ccc    O13 2984   1.310   2.311   3.452  0.2146 -0.0976 -0.4765
   59ccc    H38 2985   1.375   2.172   3.278 -0.5217 -0.9109 -1.5105
   59ccc    H39 2986   1.260   2.561   3.555  0.2545  1.4921  2.1822
   59ccc     O5 2987   1.380   2.539   3.720 -0.0298 -0.0834  0.1435
   59ccc    H40 2988   1.355   2.633   3.723  1.9901  0.5489 -1.1917
   59ccc     N4 2989   1.586   2.480   3.287  0.2713 -0.5171  0.3361
   59ccc    H41 2990   1.441   2.785   2.884 -0.9973  1.9090 -1.7245
   60ccc     N1 2991   2.458   3.243   2.459 -0.3062  0.3144  0.0073
   60ccc     H4 2992   2.408   3.277   2.378  1.1297  1.8238 -0.2972
   60ccc     C3 2993   2.568   3.317   2.518  0.2371  0.5427 -0.4244
   60ccc     H5 2994   2.617   3.263   2.600 -0.4257  0.4415 -0.0861
   60ccc     C4 2995   2.528   3.463   2.563 -0.2515 -0.5418 -0.4463
   60ccc     H6 2996   2.648   3.326   2.444  0.8124 -0.4618  0.0592
   60ccc     H7 2997   2.490   3.519   2.476 -0.0892  0.5859  0.1940
   60ccc     H8 2998   2.618   3.516   2.596 -0.4156 -1.7486  2.1934
   60ccc     N2 2999   2.430   3.467   2.684 -0.2174  0.5061  0.1003
   60ccc     C5 3000   2.360   3.606   2.696 -0.4947  0.5471  0.1943
   60ccc     C6 3001   2.494   3.426   2.823  0.0647 -0.1120  0.1003
   60ccc     H9 3002   2.579   3.357   2.815  0.0253 -0.0039 -1.6727
   60ccc     C7 3003   2.389   3.366   2.927  0.4604  0.8181 -0.0317
   60ccc    H10 3004   2.543   3.511   2.872  0.4830  0.8150 -1.8125
   60ccc    H11 3005   2.327   3.435   2.984  2.0340  2.0415  0.2702
   60ccc    H12 3006   2.449   3.316   3.004  1.6067 -0.0551 -1.4238
   60ccc     C8 3007   2.298   3.254   2.868  0.0451  0.1343 -0.3696
   60ccc     O2 3008   2.273   3.230   2.750 -0.6176  0.2337 -0.3368
   60ccc    H13 3009   2.430   3.690   2.707 -1.0223  0.8061  1.8497
   60ccc    H14 3010   2.295   3.597   2.783 -2.4707  0.0848 -1.2708
   60ccc     C9 3011   2.291   3.654   2.564 -0.4354  0.1378  0.3866
   60ccc    H15 3012   2.250   3.566   2.513 -1.6401 -1.0561  3.2129
   60ccc    H16 3013   2.367   3.694   2.495 -0.6061 -1.0237 -0.5152
   60ccc    C10 3014   2.187   3.755   2.583  0.4711 -0.0289 -0.1237
   60ccc     O4 3015   2.098   3.753   2.665  0.5345  0.2879  0.1522
   60ccc    C11 3016   2.067   2.802   3.030  0.4337  0.4798 -0.4638
   60ccc    C12 3017   1.976   2.924   3.041 -0.6371 -0.3460  0.0220
   60ccc    H17 3018   2.108   2.781   3.129  1.2737  0.0057 -0.8978
   60ccc    C13 3019   2.058   3.050   3.074  0.2848 -0.0700  0.7030
   60ccc    C14 3020   2.153   3.072   2.955 -0.0942 -0.2227 -0.2648
   60ccc    C15 3021   2.243   2.950   2.943  0.0822 -0.2227 -0.1231
   60ccc    H18 3022   2.085   3.070   2.869 -2.8870  0.4367  1.7787
   60ccc    H19 3023   2.130   3.035   3.156  0.4856 -1.7804  0.2443
   60ccc    H20 3024   2.303   2.938   3.034 -0.5358  1.1840  0.5095
   60ccc     O1 3025   2.323   2.943   2.826  0.6212 -0.2093  0.6113
   60ccc     O6 3026   1.983   3.172   3.105 -0.0620  0.2562  0.0800
   60ccc    C16 3027   1.990   2.674   2.985  0.0332 -0.1979 -0.6538
   60ccc    H21 3028   1.913   3.147   3.168  0.2088  0.9067  0.6532
   60ccc    H22 3029   2.264   3.215   3.060  1.7659  0.1761 -1.0808
   60ccc    H23 3030   1.931   2.650   3.075  0.6587 -1.1552 -0.4951
   60ccc    H24 3031   2.064   2.594   2.980  0.5967  0.1933  0.8506
   60ccc     O7 3032   1.915   2.686   2.871  0.0031 -0.1931  0.0587
   60ccc    H25 3033   1.869   2.600   2.867  0.2845 -0.3119 -2.1264
   60ccc     O8 3034   2.163   2.826   2.927 -0.3396 -0.8865 -0.2476
   60ccc    H26 3035   2.410   2.967   2.862 -0.2333  0.7683  2.1404
   60ccc    H27 3036   1.917   2.951   2.952  0.5066  0.7018 -0.4472
   60ccc     O9 3037   1.882   2.898   3.154 -0.0610 -0.3331  0.1691
   60ccc    H28 3038   1.935   2.869   3.231  0.9105  1.5579  0.2646
   60ccc     N3 3039   2.240   3.189   2.964  0.1341 -0.0588 -0.6446
   60ccc    C17 3040   1.895   4.126   2.611 -0.0264  0.9115  0.6322
   60ccc    C18 3041   2.035   4.170   2.658  0.1127 -0.6603 -0.3833
   60ccc    H29 3042   1.874   4.041   2.678  0.9735  0.3728  0.2770
   60ccc    C19 3043   2.136   4.056   2.633 -0.1411  0.0084  0.1497
   60ccc    C20 3044   2.115   3.975   2.499 -0.2449 -0.1648  0.2146
   60ccc    C21 3045   1.966   3.956   2.464  0.4568  0.3832 -0.0403
   60ccc    H30 3046   2.159   4.039   2.422  1.2529  0.6715  1.6987
   60ccc    H31 3047   2.131   3.991   2.721 -0.9261  1.1577  0.9771
   60ccc    H32 3048   1.922   3.881   2.531  0.8683 -0.5457 -0.7895
   60ccc    O10 3049   1.951   3.921   2.329 -0.4330  0.1424 -0.4084
   60ccc    O11 3050   2.272   4.107   2.639 -0.0696  0.2012  0.1526
   60ccc    C22 3051   1.782   4.229   2.629  0.1954  0.4036  0.2124
   60ccc    H33 3052   2.322   4.052   2.702 -1.4144  1.3111  2.3509
   60ccc    H34 3053   2.253   3.850   2.414  0.4005  0.1979  0.0716
   60ccc    H35 3054   1.779   4.272   2.730 -1.2518  3.7122 -1.1151
   60ccc    H36 3055   1.684   4.183   2.613  0.2098  0.1825  0.7224
   60ccc    O12 3056   1.800   4.345   2.557 -0.6128 -0.1599  0.8027
   60ccc    H37 3057   1.712   4.387   2.549  0.4173  1.8324 -1.6212
   60ccc    O13 3058   1.895   4.083   2.475  0.2007  0.2631 -0.0766
   60ccc    H38 3059   2.009   3.847   2.303 -0.8898 -0.0103 -1.0182
   60ccc    H39 3060   2.062   4.254   2.592 -0.7096 -1.0466 -1.2296
   60ccc     O5 3061   2.024   4.205   2.796 -0.2755 -0.2474 -0.0911
   60ccc    H40 3062   2.112   4.191   2.835 -1.6212  0.0071  3.3746
   60ccc     N4 3063   2.192   3.856   2.496 -0.5082  0.2503 -0.5921
   60ccc    H41 3064   2.359   3.395   2.666 -0.0081  0.5899 -1.0953
   61ccc     N1 3065   1.762   2.671   2.565 -0.1532  0.1613  0.1582
   61ccc     H4 3066   1.820   2.598   2.526  1.6125  1.1510  0.8228
   61ccc     C3 3067   1.638   2.630   2.624  0.7475 -0.4122 -0.2280
   61ccc     H5 3068   1.665   2.623   2.730  2.5456 -0.5253 -0.6672
   61ccc     C4 3069   1.580   2.495   2.563 -0.4079  0.5166  0.2262
   61ccc     H6 3070   1.563   2.709   2.609  1.2798  0.5729  1.8560
   61ccc     H7 3071   1.683   2.464   2.544  0.0719 -0.2970  3.5761
   61ccc     H8 3072   1.573   2.540   2.463 -1.2084  0.6444  0.3280
   61ccc     N2 3073   1.407   2.309   2.638  0.0229 -0.4100  0.2920
   61ccc     C5 3074   1.419   2.175   2.723  0.1187  0.1419 -0.4142
   61ccc     C6 3075   1.248   2.290   2.612 -0.0163 -0.1572 -0.7724
   61ccc     H9 3076   1.212   2.250   2.708  2.6424  0.5216  0.6288
   61ccc     C7 3077   1.185   2.196   2.499  0.5896  0.2346 -0.4704
   61ccc    H10 3078   1.190   2.383   2.604 -0.6867 -0.7371 -3.5693
   61ccc    H11 3079   1.205   2.089   2.511 -0.9979  0.1398  1.8515
   61ccc    H12 3080   1.209   2.207   2.392  1.9479  1.1939 -0.0986
   61ccc     C8 3081   1.037   2.207   2.489 -0.1932 -0.0752  0.4446
   61ccc     O2 3082   0.986   2.315   2.478 -0.1946 -0.3954 -0.2219
   61ccc    H13 3083   1.513   2.119   2.718  0.0169 -1.4435  6.3391
   61ccc    H14 3084   1.363   2.092   2.678  1.7641 -0.0892 -2.1546
   61ccc     C9 3085   1.388   2.180   2.876  1.0802 -0.1053 -0.9253
   61ccc    H15 3086   1.282   2.198   2.899  1.0022  1.6579 -2.4737
   61ccc    H16 3087   1.445   2.258   2.928  0.3649 -0.2892  0.1801
   61ccc    C10 3088   1.425   2.042   2.946  0.7134 -0.5747  0.5401
   61ccc     O4 3089   1.520   1.977   2.912  0.1174 -0.6183  0.1718
   61ccc    C11 3090   0.547   2.030   2.460  0.1806  1.3615  0.0539
   61ccc    C12 3091   0.609   2.001   2.602  0.0068  0.1722 -0.0792
   61ccc    H17 3092   0.553   1.942   2.395 -0.4913  0.6068  0.9776
   61ccc    C13 3093   0.761   1.993   2.606 -0.2821 -0.6916  0.1945
   61ccc    C14 3094   0.823   2.102   2.505 -0.2412  0.0495 -0.1149
   61ccc    C15 3095   0.763   2.099   2.359  0.5897  0.2657 -0.2967
   61ccc    H18 3096   0.797   2.197   2.555  0.6715 -0.2092  0.8881
   61ccc    H19 3097   0.798   1.893   2.583 -0.6311 -0.3715 -2.0471
   61ccc    H20 3098   0.774   1.999   2.316 -0.9028  0.7905 -2.0107
   61ccc     O1 3099   0.816   2.195   2.272  0.2029 -0.6800 -0.1111
   61ccc     O6 3100   0.800   2.017   2.746 -0.7295  0.0268 -0.1252
   61ccc    C16 3101   0.395   2.063   2.467  0.1480  0.4126  0.2778
   61ccc    H21 3102   0.858   1.946   2.777  3.0503  2.0375 -1.8918
   61ccc    H22 3103   1.002   2.016   2.558  0.1916  0.5176  0.1592
   61ccc    H23 3104   0.333   1.974   2.483  0.1117  0.6978  1.8636
   61ccc    H24 3105   0.363   2.095   2.367  0.6628 -0.7133 -0.2755
   61ccc     O7 3106   0.358   2.152   2.581  0.1600 -0.7589  0.0341
   61ccc    H25 3107   0.272   2.182   2.547  0.5510  0.4516  0.0503
   61ccc     O8 3108   0.619   2.125   2.382 -0.3384  0.2985 -0.2900
   61ccc    H26 3109   0.815   2.273   2.330  0.9646 -0.8627  0.1658
   61ccc    H27 3110   0.576   2.091   2.654  0.3369 -0.6552  1.6361
   61ccc     O9 3111   0.567   1.878   2.661 -0.3200 -0.2108  0.3433
   61ccc    H28 3112   0.484   1.903   2.706 -0.2736  0.3569  0.1222
   61ccc     N3 3113   0.968   2.098   2.508 -0.0550  0.3679  0.0803
   61ccc    C17 3114   0.959   1.835   3.054 -0.8245 -0.1174 -0.2065
   61ccc    C18 3115   1.010   1.906   3.186  0.7339  0.2001 -0.1746
   61ccc    H29 3116   0.999   1.734   3.058  1.4881  0.7786  0.9294
   61ccc    C19 3117   1.162   1.930   3.181  0.0792  0.1362 -0.6601
   61ccc    C20 3118   1.205   1.993   3.048 -0.0790  0.2549  0.4983
   61ccc    C21 3119   1.144   1.909   2.933  0.5346 -0.2359 -0.5070
   61ccc    H30 3120   1.160   2.091   3.034 -0.0174 -0.1166 -3.0553
   61ccc    H31 3121   1.214   1.836   3.204  0.1763  0.0808 -1.0944
   61ccc    H32 3122   1.180   1.805   2.939  0.7471 -0.1132  0.6224
   61ccc    O10 3123   1.176   1.968   2.808  0.2260  0.9678  0.1249
   61ccc    O11 3124   1.187   2.031   3.287 -0.4263  1.0279 -0.0590
   61ccc    C22 3125   0.807   1.809   3.051  0.5098 -0.1875  0.0794
   61ccc    H33 3126   1.176   1.978   3.368  0.9483 -3.5733 -2.5456
   61ccc    H34 3127   1.390   1.907   3.084  0.5143  1.0453  0.5886
   61ccc    H35 3128   0.760   1.907   3.043  0.8530 -0.0143  0.1876
   61ccc    H36 3129   0.777   1.768   3.148 -0.3063  3.2698  1.4069
   61ccc    O12 3130   0.764   1.723   2.941 -0.4540  0.1201 -1.4862
   61ccc    H37 3131   0.667   1.716   2.949 -0.2895 -1.5555 -0.4686
   61ccc    O13 3132   1.002   1.903   2.940  0.4457  0.4017  0.5296
   61ccc    H38 3133   1.125   1.917   2.744 -0.7567  1.4625  0.4933
   61ccc    H39 3134   0.966   2.006   3.194  3.0344  1.2605  0.0347
   61ccc     O5 3135   0.978   1.828   3.302 -0.1842 -0.8495  0.6060
   61ccc    H40 3136   0.902   1.871   3.346  0.1426 -1.1326  1.4576
   61ccc     N4 3137   1.353   1.994   3.045 -0.1333  0.3591 -0.3547
   61ccc    H41 3138   1.393   2.362   2.725 -2.1618  0.2809 -0.4187
   62SOL     OW 3139   4.386   7.481   3.208  0.5151  0.4579  0.0291
   62SOL    HW1 3140   4.376   7.390   3.178 -1.1777  0.4426  0.5300
   62SOL    HW2 3141   4.351   7.481   3.297 -2.7852  2.2003 -1.0798
   63SOL     OW 3142   2.224   2.719   1.151 -0.1474  0.1805  0.2604
   63SOL    HW1 3143   2.149   2.711   1.092  0.4724  1.7017 -0.8237
   63SOL    HW2 3144   2.296   2.678   1.104  0.2939  1.1691  0.0279
   64SOL     OW 3145   4.589   2.362   2.146 -0.4029 -0.2062  0.2297
   64SOL    HW1 3146   4.632   2.291   2.194 -0.6594 -1.3248 -1.1063
   64SOL    HW2 3147   4.636   2.441   2.172  1.0008 -1.0935  0.4970
   65SOL     OW 3148   3.333   3.691   5.189 -0.4560 -0.2008  0.1002
   65SOL    HW1 3149   3.386   3.771   5.184 -0.4497 -0.2898 -1.6233
   65SOL    HW2 3150   3.265   3.712   5.254 -1.1274  1.6260 -1.1225
   66SOL     OW 3151   6.527   7.621   6.618 -0.4477  0.8111  0.0602
   66SOL    HW1 3152   6.601   7.563   6.603 -0.6662  0.6262 -0.3309
   66SOL    HW2 3153   6.491   7.592   6.702 -0.3068  0.6511  0.0659
   67SOL     OW 3154   4.777   2.373   5.515  0.1883 -0.2522 -0.8119
   67SOL    HW1 3155   4.766   2.315   5.590 -1.1860 -1.4021 -1.8302
   67SOL    HW2 3156   4.820   2.451   5.550 -1.2329 -0.3506  1.3400
   68SOL     OW 3157   2.923   2.016   1.172  0.3608  0.5191 -0.4676
   68SOL    HW1 3158   2.955   2.101   1.144 -1.6881  1.3040 -0.5734
   68SOL    HW2 3159   2.852   1.995   1.111 -0.0775 -0.6173  0.3900
   69SOL     OW 3160   4.851   7.599   6.097  0.1364  0.2144 -0.1990
   69SOL    HW1 3161   4.915   7.659   6.058  0.4477 -0.2679 -0.4433
   69SOL    HW2 3162   4.767   7.624   6.058  0.2061  0.7285 -0.0193
   70SOL     OW 3163   1.898   7.419   3.210  0.1287  0.2332 -0.0764
   70SOL    HW1 3164   1.937   7.471   3.140  1.8297  1.2378  1.5234
   70SOL    HW2 3165   1.959   7.427   3.283 -0.8764 -1.9052  1.1026
   71SOL     OW 3166   1.713   1.241   0.753  0.5250 -0.3893 -0.4941
   71SOL    HW1 3167   1.721   1.213   0.662  1.3264 -1.7418 -0.0433
   71SOL    HW2 3168   1.763   1.322   0.758  1.1539 -0.7280 -1.0864
   72SOL     OW 3169   2.307   7.453   7.892  0.0335  0.1832 -0.1383
   72SOL    HW1 3170   2.241   7.445   7.960  0.6657 -3.0695  0.2393
   72SOL    HW2 3171   2.263   7.502   7.822 -1.1886  2.0740  1.8462
   73SOL     OW 3172   5.996   6.772   0.036 -0.0608 -0.2147  0.3875
   73SOL    HW1 3173   6.048   6.692   0.044 -0.9205 -1.0117 -1.2976
   73SOL    HW2 3174   5.908   6.746   0.066 -0.7852 -0.4620 -1.7706
   74SOL     OW 3175   4.268   1.854   3.997 -0.2368  0.1657  0.0905
   74SOL    HW1 3176   4.190   1.807   4.030 -0.1248 -0.1550 -0.0982
   74SOL    HW2 3177   4.317   1.788   3.950 -0.9876  0.8727 -1.7755
   75SOL     OW 3178   3.417   5.070   2.780 -0.0479 -0.0168 -0.5709
   75SOL    HW1 3179   3.486   5.013   2.815 -1.5611 -1.4643  0.1911
   75SOL    HW2 3180   3.463   5.131   2.723  1.8183 -1.1489 -0.3565
   76SOL     OW 3181   1.416   5.103   2.189  0.1842 -0.1143  0.2171
   76SOL    HW1 3182   1.389   5.144   2.107 -0.6401  1.6305  1.3105
   76SOL    HW2 3183   1.347   5.039   2.207  0.6680 -0.9410 -0.6899
   77SOL     OW 3184   5.844   3.083   8.058  1.0112 -0.2088  0.2143
   77SOL    HW1 3185   5.934   3.118   8.060  0.5477  1.5211 -2.7721
   77SOL    HW2 3186   5.789   3.159   8.078  0.1343 -0.8887  0.4487
   78SOL     OW 3187   7.245   5.506   0.527  0.2646  0.1235  0.7093
   78SOL    HW1 3188   7.273   5.553   0.606 -0.5223  1.4989  0.1956
   78SOL    HW2 3189   7.150   5.516   0.527 -0.0328 -2.1946  1.0079
   79SOL     OW 3190   5.215   3.481   5.295  0.0723 -0.3168  0.4491
   79SOL    HW1 3191   5.236   3.445   5.381 -2.8978  0.5370  1.6818
   79SOL    HW2 3192   5.234   3.575   5.303  1.9227 -0.5540 -0.6561
   80SOL     OW 3193   3.556   3.851   5.126  0.4035 -0.2803 -0.5128
   80SOL    HW1 3194   3.533   3.901   5.047  1.3832 -0.3448 -0.8497
   80SOL    HW2 3195   3.613   3.781   5.094  0.0736 -0.8609  0.1357
   81SOL     OW 3196   4.619   7.805   3.178 -0.3178 -0.6723  0.1820
   81SOL    HW1 3197   4.573   7.739   3.126 -0.6489 -1.3709  1.3118
   81SOL    HW2 3198   4.557   7.828   3.247  0.0313  0.3870  0.1620
   82SOL     OW 3199   1.121   1.723   1.282  0.2209 -0.2597  0.4121
   82SOL    HW1 3200   1.065   1.696   1.355 -1.8122 -0.0921 -0.9929
   82SOL    HW2 3201   1.066   1.782   1.231  0.8206 -1.9088 -2.3377
   83SOL     OW 3202   4.062   3.604   3.008  0.5171 -0.0222  0.2960
   83SOL    HW1 3203   3.976   3.590   3.046  1.2964 -0.5419  1.9608
   83SOL    HW2 3204   4.045   3.616   2.914 -1.1133 -2.7817  0.1318
   84SOL     OW 3205   0.750   4.951   4.342  0.0826 -0.2069 -0.8829
   84SOL    HW1 3206   0.766   5.011   4.415 -0.2098  0.8314 -1.6528
   84SOL    HW2 3207   0.679   4.896   4.372 -0.4177  0.5762 -0.5864
   85SOL     OW 3208   3.633   7.286   5.070 -0.7597 -0.2008 -0.4096
   85SOL    HW1 3209   3.601   7.210   5.022 -0.1659 -0.7973  0.1146
   85SOL    HW2 3210   3.712   7.312   5.023 -1.1329  0.2881 -0.7701
   86SOL     OW 3211   4.233   5.339   3.257 -0.0983 -0.3758 -0.0312
   86SOL    HW1 3212   4.169   5.398   3.297 -0.5595  1.1215 -2.7584
   86SOL    HW2 3213   4.203   5.252   3.282 -2.2342  0.3524  0.1998
   87SOL     OW 3214   3.233   5.506   2.962 -0.1617 -0.2217 -0.2797
   87SOL    HW1 3215   3.319   5.530   2.928  0.4368 -2.1772 -0.3163
   87SOL    HW2 3216   3.239   5.411   2.977 -2.0989 -0.2987  0.3472
   88SOL     OW 3217   0.189   7.431   2.351  0.1616 -0.2125 -0.0291
   88SOL    HW1 3218   0.234   7.348   2.336 -0.1114 -0.8013  2.0705
   88SOL    HW2 3219   0.193   7.476   2.267  2.6763 -1.1881 -0.5102
   89SOL     OW 3220   2.032   3.141   4.487 -0.3403  0.2232 -0.0406
   89SOL    HW1 3221   2.125   3.135   4.464 -0.8204 -0.2851 -2.0340
   89SOL    HW2 3222   2.020   3.075   4.555  0.6034 -0.2322 -0.2995
   90SOL     OW 3223   4.774   2.408   6.842  0.0767 -0.5249 -0.2099
   90SOL    HW1 3224   4.710   2.447   6.783  0.8866 -0.4984 -1.0860
   90SOL    HW2 3225   4.837   2.364   6.785  1.1431 -0.0883  0.5816
   91SOL     OW 3226   6.869   2.060   5.104 -0.0094  0.0488  0.1029
   91SOL    HW1 3227   6.954   2.088   5.138  1.0616 -1.9043 -0.7476
   91SOL    HW2 3228   6.821   2.141   5.088  1.2104  1.1545  1.7816
   92SOL     OW 3229   0.890   3.854   7.060 -0.3291  0.0831  0.4203
   92SOL    HW1 3230   0.805   3.899   7.061 -1.2501 -1.5577 -0.5460
   92SOL    HW2 3231   0.885   3.792   7.132  0.9932  1.5153  1.8339
   93SOL     OW 3232   4.044   5.668   2.585  0.2392  0.3149  0.3733
   93SOL    HW1 3233   4.116   5.637   2.530  0.6112  0.6095  0.6811
   93SOL    HW2 3234   4.085   5.685   2.670 -0.4534 -0.7310  0.9296
   94SOL     OW 3235   6.023   1.468   3.344 -0.2164 -0.1401  0.1777
   94SOL    HW1 3236   6.025   1.563   3.337 -0.0428 -0.2026 -0.7631
   94SOL    HW2 3237   5.968   1.450   3.421  0.2272  0.7204  0.7015
   95SOL     OW 3238   6.075   7.331   3.492 -0.4541  0.2237  0.5702
   95SOL    HW1 3239   6.110   7.411   3.531  0.1790  0.5659 -0.6641
   95SOL    HW2 3240   6.087   7.264   3.559  0.4484  0.8337  1.0255
   96SOL     OW 3241   1.412   6.380   3.207  0.4420 -0.2884  0.3881
   96SOL    HW1 3242   1.318   6.374   3.219  0.2538  0.1043 -0.7355
   96SOL    HW2 3243   1.449   6.319   3.271 -0.6408 -1.6387 -0.2187
   97SOL     OW 3244   6.950   5.938   0.315 -0.6520 -0.1829  0.0457
   97SOL    HW1 3245   6.870   5.960   0.363  0.1376  0.1313  1.2784
   97SOL    HW2 3246   6.979   5.855   0.352  0.1046  0.1833  0.3090
   98SOL     OW 3247   3.998   7.275   0.498 -0.4782 -0.4608 -0.1703
   98SOL    HW1 3248   4.048   7.324   0.433  1.8576 -1.3648  0.8128
   98SOL    HW2 3249   3.992   7.334   0.573 -1.5775 -0.0889 -0.5323
   99SOL     OW 3250   6.571   7.335   6.583  0.4334 -0.2750 -0.0715
   99SOL    HW1 3251   6.622   7.263   6.621 -0.5385 -1.1907 -0.4612
   99SOL    HW2 3252   6.537   7.383   6.659  2.4890  0.8544  0.2134
  100SOL     OW 3253   0.106   0.599   6.462 -0.5592 -0.1327  0.0763
  100SOL    HW1 3254   0.109   0.590   6.367  1.1533  0.4406  0.0391
  100SOL    HW2 3255   0.013   0.611   6.482 -0.9517 -0.2605 -1.5108
  101SOL     OW 3256   2.640   0.830   6.309 -0.2058 -0.2337  0.4843
  101SOL    HW1 3257   2.561   0.860   6.354 -2.2358 -2.0862 -1.5738
  101SOL    HW2 3258   2.625   0.853   6.217  1.2465 -1.4139 -0.0921
  102SOL     OW 3259   6.674   1.176   7.006 -0.3660 -0.2437 -0.2671
  102SOL    HW1 3260   6.627   1.123   7.072 -1.3802 -0.9141 -1.4827
  102SOL    HW2 3261   6.657   1.266   7.033 -1.2223 -0.4948  0.1044
  103SOL     OW 3262   4.305   3.178   7.801 -0.7065 -0.1468 -0.3944
  103SOL    HW1 3263   4.341   3.258   7.841  0.0545 -0.9142  0.5071
  103SOL    HW2 3264   4.366   3.158   7.729 -0.5351 -0.2666 -0.2166
  104SOL     OW 3265   5.268   1.286   5.826  0.0721 -0.3378 -0.3294
  104SOL    HW1 3266   5.216   1.223   5.776  0.0050 -0.5758  0.0329
  104SOL    HW2 3267   5.310   1.341   5.760 -0.9326  0.0992 -0.6226
  105SOL     OW 3268   6.434   7.337   5.295 -0.0014  0.1671  0.2501
  105SOL    HW1 3269   6.451   7.428   5.271  0.1195 -0.0578 -0.5288
  105SOL    HW2 3270   6.349   7.339   5.339 -0.1882  0.5928 -0.1282
  106SOL     OW 3271   5.783   3.190   3.210 -0.4110  0.1063 -0.2214
  106SOL    HW1 3272   5.694   3.155   3.205 -0.6896  0.5232  1.3775
  106SOL    HW2 3273   5.774   3.273   3.257  1.0576 -0.9500  2.1362
  107SOL     OW 3274   2.031   2.877   3.786 -0.2758  0.4765  0.1239
  107SOL    HW1 3275   1.997   2.895   3.873  1.9997  2.2245  0.7284
  107SOL    HW2 3276   2.000   2.789   3.766  0.1797 -0.5092  3.2383
  108SOL     OW 3277   7.886   3.481   5.425 -0.7293  0.6085 -0.1474
  108SOL    HW1 3278   7.951   3.426   5.381 -0.1931  0.4178  0.8436
  108SOL    HW2 3279   7.807   3.428   5.426 -0.9371  0.8593 -1.4074
  109SOL     OW 3280   3.341   4.841   6.803 -0.1224 -0.1819 -0.0125
  109SOL    HW1 3281   3.387   4.784   6.864 -2.8990 -1.5426  0.9590
  109SOL    HW2 3282   3.312   4.916   6.855 -1.6587 -0.8724  0.1762
  110SOL     OW 3283   5.091   1.843   6.489 -0.2624  0.0282 -0.3901
  110SOL    HW1 3284   5.170   1.814   6.535 -0.6746 -0.9213 -0.2559
  110SOL    HW2 3285   5.028   1.859   6.560 -0.9948 -1.7225 -0.5983
  111SOL     OW 3286   5.792   1.294   0.598 -0.4971 -0.3398 -0.2812
  111SOL    HW1 3287   5.848   1.361   0.560 -0.2973  0.0601  0.6764
  111SOL    HW2 3288   5.848   1.249   0.662 -1.4113  0.4622  1.1234
  112SOL     OW 3289   7.107   2.983   5.686 -0.0390  0.4414  0.4241
  112SOL    HW1 3290   7.022   3.026   5.695 -0.6374 -0.6855  0.4446
  112SOL    HW2 3291   7.090   2.892   5.713  1.1314  0.1594  0.2544
  113SOL     OW 3292   2.556   5.104   0.976  0.1417  0.8273 -0.1558
  113SOL    HW1 3293   2.609   5.025   0.987  0.6238  1.1183 -0.3553
  113SOL    HW2 3294   2.466   5.074   0.989  0.1784 -0.0679 -1.6901
  114SOL     OW 3295   5.802   7.562   5.459 -0.1398  0.1761  0.2788
  114SOL    HW1 3296   5.836   7.552   5.549 -1.0511 -0.9633  0.5248
  114SOL    HW2 3297   5.727   7.502   5.455 -1.6978  2.0793 -0.4714
  115SOL     OW 3298   0.848   4.109   7.399 -0.0778 -0.4845  0.1166
  115SOL    HW1 3299   0.832   4.033   7.453  2.1069 -0.5496  0.7739
  115SOL    HW2 3300   0.830   4.184   7.456 -0.8122 -0.5143 -0.0709
  116SOL     OW 3301   7.071   3.048   7.196 -0.4932 -0.0556 -0.4736
  116SOL    HW1 3302   7.068   2.967   7.145  2.3011  1.3018 -3.1052
  116SOL    HW2 3303   7.145   3.036   7.256  0.0452  0.5689 -0.9981
  117SOL     OW 3304   6.582   0.701   3.979 -0.2667  0.0852 -0.9378
  117SOL    HW1 3305   6.503   0.681   4.028  0.1378  2.1273  0.6590
  117SOL    HW2 3306   6.603   0.619   3.934 -0.3402 -2.1384  2.7211
  118SOL     OW 3307   2.400   2.816   3.510 -0.2478  0.0555 -0.2393
  118SOL    HW1 3308   2.389   2.728   3.546  0.0846  0.9687  2.2899
  118SOL    HW2 3309   2.477   2.851   3.555 -1.1818  2.1340 -0.1541
  119SOL     OW 3310   0.737   6.587   4.774  0.2609  0.4185  0.3445
  119SOL    HW1 3311   0.727   6.505   4.823 -1.0717  1.0548  1.1714
  119SOL    HW2 3312   0.816   6.627   4.811  0.1251  0.1696  0.9100
  120SOL     OW 3313   5.981   0.151   5.514 -0.0112  0.9218  0.0294
  120SOL    HW1 3314   6.047   0.204   5.559  1.0448  0.9016 -1.4318
  120SOL    HW2 3315   6.028   0.109   5.443 -1.1718 -0.7567  0.1870
  121SOL     OW 3316   7.182   2.759   0.714 -0.6958  0.0694  0.4308
  121SOL    HW1 3317   7.204   2.674   0.676 -0.9349  0.4420 -0.5865
  121SOL    HW2 3318   7.266   2.805   0.721 -0.4515 -0.5546  1.7917
  122SOL     OW 3319   6.148   2.337   4.094 -0.3624  0.2219 -0.0758
  122SOL    HW1 3320   6.159   2.431   4.085 -0.4810  0.1535 -1.1665
  122SOL    HW2 3321   6.228   2.306   4.136 -1.8374  1.2247  3.8935
  123SOL     OW 3322   6.950   0.464   2.156  0.2564  0.5835  0.2061
  123SOL    HW1 3323   6.887   0.416   2.211  1.0486  0.0287  0.6547
  123SOL    HW2 3324   6.899   0.535   2.117 -0.7265 -0.0554  0.2896
  124SOL     OW 3325   0.174   7.027   0.006  0.3774  0.4076 -0.4765
  124SOL    HW1 3326   0.124   6.974   0.068 -0.0552  1.1886 -0.1505
  124SOL    HW2 3327   0.252   6.975  -0.012 -1.0561 -1.3674 -1.8775
  125SOL     OW 3328   8.110   3.110   6.677 -0.1646 -0.1414  0.4023
  125SOL    HW1 3329   8.167   3.155   6.615 -0.2165 -1.4624 -0.6515
  125SOL    HW2 3330   8.057   3.052   6.623 -1.4550 -0.0485  1.5303
  126SOL     OW 3331   6.044   1.267   5.730 -0.5872  0.0314 -0.3879
  126SOL    HW1 3332   6.098   1.203   5.776 -1.1850 -0.0681  0.1915
  126SOL    HW2 3333   6.100   1.300   5.659 -0.0577 -0.6647 -0.3022
  127SOL     OW 3334   5.907   5.027   5.707  0.0122 -0.1802  0.3393
  127SOL    HW1 3335   5.951   5.067   5.633 -0.3607  2.2033  1.3322
  127SOL    HW2 3336   5.977   5.005   5.768  0.2783 -1.7744 -0.4686
  128SOL     OW 3337   6.868   6.494   1.152 -0.1620  0.0649  0.2105
  128SOL    HW1 3338   6.821   6.560   1.102  0.5234  0.7772  0.4843
  128SOL    HW2 3339   6.918   6.445   1.087 -0.0431  0.3398  0.0971
  129SOL     OW 3340   0.559   0.093   0.414 -0.0528 -0.3514 -0.6791
  129SOL    HW1 3341   0.586   0.166   0.471 -0.3531 -2.1714  1.9881
  129SOL    HW2 3342   0.464   0.102   0.408 -0.2752 -1.2437  0.8637
  130SOL     OW 3343   4.697   4.569   6.424  0.3683  0.4505 -0.3700
  130SOL    HW1 3344   4.776   4.615   6.453  1.0938 -0.1327 -1.3391
  130SOL    HW2 3345   4.652   4.632   6.368 -1.0588  1.5955  1.8920
  131SOL     OW 3346   0.538   4.982   5.703 -0.5204 -0.1830 -0.1826
  131SOL    HW1 3347   0.561   5.015   5.617 -0.2158  0.8598  0.2818
  131SOL    HW2 3348   0.447   5.008   5.716 -0.2943  0.4403  0.1662
  132SOL     OW 3349   2.242   7.013   0.327 -0.3704 -0.2411  0.2679
  132SOL    HW1 3350   2.324   6.969   0.301 -0.7350 -1.9223  1.7690
  132SOL    HW2 3351   2.224   7.073   0.255  1.1501 -1.2585 -1.0464
  133SOL     OW 3352   3.982   6.597   6.236 -0.0514  0.1210 -0.1651
  133SOL    HW1 3353   4.038   6.672   6.217  0.4720 -0.0594  0.6434
  133SOL    HW2 3354   4.042   6.525   6.257 -0.5543 -0.4425 -0.6084
  134SOL     OW 3355   4.151   7.164   6.848  0.0759  0.8879  0.4113
  134SOL    HW1 3356   4.084   7.166   6.781  1.4548  0.5399 -1.0391
  134SOL    HW2 3357   4.109   7.122   6.923 -0.8504 -0.8239 -0.9907
  135SOL     OW 3358   2.683   4.751   7.428  0.4428 -0.3130 -0.2857
  135SOL    HW1 3359   2.751   4.737   7.363  0.9869  0.2238  0.1601
  135SOL    HW2 3360   2.605   4.775   7.377  1.1380  1.1711 -0.6884
  136SOL     OW 3361   3.336   2.882   0.695  0.4778 -0.0002 -0.1624
  136SOL    HW1 3362   3.380   2.797   0.698  1.8829  0.6647 -0.9196
  136SOL    HW2 3363   3.392   2.936   0.639 -1.0459  1.0579 -0.7198
  137SOL     OW 3364   4.910   6.393   7.512 -0.8436 -0.5257  0.7035
  137SOL    HW1 3365   4.853   6.350   7.449  1.5576 -1.1798 -1.1724
  137SOL    HW2 3366   4.942   6.471   7.466  0.1603 -0.4500  1.5024
  138SOL     OW 3367   5.715   4.919   2.545 -0.0342  0.1414 -0.3352
  138SOL    HW1 3368   5.645   4.864   2.580 -0.8769 -0.3877 -2.6402
  138SOL    HW2 3369   5.679   5.007   2.543  0.5008  0.4310  1.2521
  139SOL     OW 3370   1.285   3.722   0.208  0.0280 -0.8662  0.4336
  139SOL    HW1 3371   1.200   3.725   0.163 -0.0174 -0.8540  0.5183
  139SOL    HW2 3372   1.320   3.636   0.187 -0.5398 -1.3430  1.3526
  140SOL     OW 3373   3.102   0.138   7.823 -0.1668  0.1740 -0.1497
  140SOL    HW1 3374   3.180   0.185   7.792 -0.7591  0.1001 -1.8373
  140SOL    HW2 3375   3.106   0.054   7.778 -1.8567  0.6428 -1.2720
  141SOL     OW 3376   5.281   7.069   5.260  0.0355  0.4038 -0.0425
  141SOL    HW1 3377   5.253   7.133   5.326 -2.1612  0.0550 -0.5657
  141SOL    HW2 3378   5.240   6.987   5.288 -1.2704  0.3300 -1.9780
  142SOL     OW 3379   1.423   3.081   0.271 -0.1087  0.4914 -0.4316
  142SOL    HW1 3380   1.339   3.128   0.272 -0.1923  0.3482  0.9413
  142SOL    HW2 3381   1.407   3.001   0.321 -0.0312 -1.2000 -2.9160
  143SOL     OW 3382   1.664   7.266   6.228  0.2868 -0.5303  0.4825
  143SOL    HW1 3383   1.596   7.245   6.293  0.2092 -1.7276  0.0415
  143SOL    HW2 3384   1.742   7.285   6.281  0.1156 -1.0776  0.9487
  144SOL     OW 3385   2.827   5.688   7.098  0.5742 -0.4182  0.1748
  144SOL    HW1 3386   2.866   5.753   7.155  0.8987  0.0403 -0.5559
  144SOL    HW2 3387   2.896   5.624   7.083  1.1330  0.4563 -1.2148
  145SOL     OW 3388   4.091   5.936   0.523  0.5717  0.3671 -0.1792
  145SOL    HW1 3389   4.064   6.006   0.582  1.3841 -0.0910  0.7707
  145SOL    HW2 3390   4.130   5.981   0.448  0.6786  0.9487  0.2159
  146SOL     OW 3391   6.880   2.508   6.638  0.5120  0.0486  0.5870
  146SOL    HW1 3392   6.841   2.444   6.579  1.3558  2.0375 -2.3581
  146SOL    HW2 3393   6.963   2.468   6.665  1.0539 -0.1544 -1.2364
  147SOL     OW 3394   3.165   0.032   0.039 -0.0876  0.0975 -0.0459
  147SOL    HW1 3395   3.251  -0.008   0.026  0.4139  1.0924  0.1172
  147SOL    HW2 3396   3.104  -0.026  -0.006  0.6924 -0.5283 -0.3120
  148SOL     OW 3397   7.187   5.997   7.414  0.2616 -0.0700  0.1932
  148SOL    HW1 3398   7.211   5.918   7.365 -1.9921 -1.1583  0.7330
  148SOL    HW2 3399   7.110   6.032   7.369  0.0180  0.6775  1.1381
  149SOL     OW 3400   5.405   2.577   5.707  0.0896  0.4672  0.8950
  149SOL    HW1 3401   5.475   2.514   5.724  0.1611  0.2898 -0.0198
  149SOL    HW2 3402   5.448   2.663   5.714 -0.0064  0.4317  2.1351
  150SOL     OW 3403   5.025   3.981   7.163  0.0029  0.5592 -0.4310
  150SOL    HW1 3404   5.058   3.998   7.251  3.2813  0.4382 -1.4901
  150SOL    HW2 3405   4.950   4.039   7.153 -0.3835  0.6491  2.3783
  151SOL     OW 3406   3.551   4.150   2.624 -0.7259 -0.1408  0.0099
  151SOL    HW1 3407   3.548   4.055   2.639 -1.0204 -0.2013 -0.4194
  151SOL    HW2 3408   3.624   4.162   2.563 -0.3759 -0.0379  0.4479
  152SOL     OW 3409   1.982   1.685   5.055  0.7445 -0.2191  0.1817
  152SOL    HW1 3410   2.033   1.603   5.058 -1.4448 -1.6303  1.9927
  152SOL    HW2 3411   1.932   1.679   4.974 -0.4397 -1.4095  0.9630
  153SOL     OW 3412   1.830   8.007   2.962  0.4542  0.1121 -0.4492
  153SOL    HW1 3413   1.820   7.966   2.876  2.3421 -1.1668 -0.1344
  153SOL    HW2 3414   1.759   7.970   3.014  0.3334 -0.4542 -1.0023
  154SOL     OW 3415   6.340   1.030   7.774  0.0175 -0.5815  0.1204
  154SOL    HW1 3416   6.425   1.055   7.809  0.2160 -1.4073  0.2501
  154SOL    HW2 3417   6.353   1.025   7.679 -0.2021  0.4433  0.0212
  155SOL     OW 3418   1.752   7.371   5.331  0.2105 -0.4310  0.0066
  155SOL    HW1 3419   1.795   7.423   5.263  0.4263 -0.7383 -0.0952
  155SOL    HW2 3420   1.799   7.287   5.330 -1.2735 -1.2831 -1.0428
  156SOL     OW 3421   4.523   4.473   7.311 -0.1565 -0.4313  0.0126
  156SOL    HW1 3422   4.453   4.453   7.372  0.5571 -1.1627  0.6106
  156SOL    HW2 3423   4.486   4.540   7.254 -1.0927 -0.2796  0.7670
  157SOL     OW 3424   4.603   4.057   3.845 -0.2667  0.8849 -0.3459
  157SOL    HW1 3425   4.618   4.123   3.777 -0.5534 -1.4279 -2.8025
  157SOL    HW2 3426   4.690   4.036   3.878 -0.1797  2.4768  0.5371
  158SOL     OW 3427   1.919   6.346   4.259  0.2422 -0.0087 -0.0267
  158SOL    HW1 3428   1.991   6.302   4.213  0.1100 -0.0246 -0.2195
  158SOL    HW2 3429   1.952   6.434   4.278 -0.6120  0.9078 -2.4581
  159SOL     OW 3430   3.425   3.951   0.209  0.0243  0.2536 -0.3428
  159SOL    HW1 3431   3.430   4.046   0.194 -1.7285  0.5530  0.5913
  159SOL    HW2 3432   3.376   3.917   0.134 -0.4970  0.3005 -0.0277
  160SOL     OW 3433   1.295   4.797   7.009  0.2608 -0.3752  0.1200
  160SOL    HW1 3434   1.383   4.807   6.975 -0.6076  0.3396 -2.1281
  160SOL    HW2 3435   1.291   4.853   7.087  2.0940 -1.3750  0.9808
  161SOL     OW 3436   7.538   6.627   5.569  0.1016 -0.3258  0.1431
  161SOL    HW1 3437   7.490   6.572   5.631 -0.0640  1.4178  1.6166
  161SOL    HW2 3438   7.621   6.581   5.555  0.3725 -0.4881  2.0929
  162SOL     OW 3439   6.129   3.816   6.899  0.1291  0.0684  0.1210
  162SOL    HW1 3440   6.162   3.753   6.836 -2.0021 -1.5127  0.4642
  162SOL    HW2 3441   6.192   3.888   6.896  3.2572 -2.4234  0.4117
  163SOL     OW 3442   5.626   3.116   2.150  0.2170 -0.3175 -0.2300
  163SOL    HW1 3443   5.554   3.093   2.091 -1.2061 -0.1103  1.3382
  163SOL    HW2 3444   5.635   3.211   2.140 -0.5852 -0.1559  0.4461
  164SOL     OW 3445   6.103   7.734   0.310  0.2041  0.9883 -0.3458
  164SOL    HW1 3446   6.197   7.748   0.322  0.3641 -0.5038  0.3822
  164SOL    HW2 3447   6.083   7.658   0.365 -0.9864 -0.0949 -2.1718
  165SOL     OW 3448   2.927   6.968   5.041 -0.2052  0.7278  0.2450
  165SOL    HW1 3449   2.938   6.875   5.024 -1.4212  0.3702  1.2374
  165SOL    HW2 3450   2.972   6.983   5.124  0.1191  1.0570  0.0122
  166SOL     OW 3451   5.942   7.918   1.751 -0.3292  0.3188 -0.0739
  166SOL    HW1 3452   5.992   7.935   1.671 -1.5135  0.4871 -0.8129
  166SOL    HW2 3453   5.954   7.996   1.805  0.9631 -0.0439  0.1859
  167SOL     OW 3454   6.679   5.704   4.751  0.0522  0.1844 -0.1012
  167SOL    HW1 3455   6.636   5.786   4.727 -1.4728 -0.8244 -0.9484
  167SOL    HW2 3456   6.761   5.705   4.701  0.2546  1.3554  0.2152
  168SOL     OW 3457   1.160   5.865   8.135 -0.3898  0.0162 -0.0333
  168SOL    HW1 3458   1.135   5.957   8.147 -1.5410 -0.1042 -1.1742
  168SOL    HW2 3459   1.088   5.816   8.175 -0.3740 -0.3656 -0.4598
  169SOL     OW 3460   6.649   6.614   6.215  0.6023 -0.0139  0.0565
  169SOL    HW1 3461   6.615   6.586   6.300  1.2164  1.8221  0.9661
  169SOL    HW2 3462   6.722   6.554   6.198 -0.6426 -1.5495 -0.0934
  170SOL     OW 3463   0.390   5.662   3.108  0.2377  0.2924 -0.3070
  170SOL    HW1 3464   0.311   5.647   3.055  0.4325 -0.9806 -0.2705
  170SOL    HW2 3465   0.370   5.622   3.193  1.8775 -2.5629 -1.1400
  171SOL     OW 3466   6.718   1.946   0.576  0.5928 -0.1722  0.6875
  171SOL    HW1 3467   6.693   2.032   0.541 -2.4095 -0.5575  1.5875
  171SOL    HW2 3468   6.793   1.919   0.523  0.2849  2.0586 -1.0332
  172SOL     OW 3469   5.505   4.644   4.400  0.1188  0.2278  0.2735
  172SOL    HW1 3470   5.462   4.613   4.320  0.0843  0.4744  0.1976
  172SOL    HW2 3471   5.447   4.615   4.471 -0.8912  1.7187  0.1077
  173SOL     OW 3472   0.455   0.168   0.130 -0.4602  0.1783  0.1533
  173SOL    HW1 3473   0.481   0.100   0.192 -2.0746 -0.5530  0.0970
  173SOL    HW2 3474   0.515   0.241   0.147  0.4317 -0.7465  1.1614
  174SOL     OW 3475   7.835   6.805   3.955  0.2873 -0.0579  0.2555
  174SOL    HW1 3476   7.787   6.766   4.028  0.0901 -0.3405 -0.0249
  174SOL    HW2 3477   7.785   6.883   3.933  1.3061  1.0266  1.5724
  175SOL     OW 3478   2.211   3.472   1.495 -0.1080 -0.2249 -0.1487
  175SOL    HW1 3479   2.282   3.477   1.431 -0.3627 -0.8588 -0.4906
  175SOL    HW2 3480   2.215   3.555   1.542 -0.2614  0.4877 -1.3543
  176SOL     OW 3481   5.656   4.588   7.144  0.1765  0.5419 -0.2433
  176SOL    HW1 3482   5.661   4.559   7.235  2.9092  1.2544 -0.1014
  176SOL    HW2 3483   5.593   4.660   7.146  0.3817  0.7195  1.1320
  177SOL     OW 3484   1.168   7.032   5.769  0.1368 -0.1496  0.1115
  177SOL    HW1 3485   1.075   7.026   5.788  0.1966 -0.2110  0.3879
  177SOL    HW2 3486   1.175   7.103   5.705 -0.2701 -1.1687 -1.0998
  178SOL     OW 3487   1.287   5.421   5.335  0.0968 -0.0254 -0.1164
  178SOL    HW1 3488   1.204   5.378   5.357  0.5311 -1.3965 -1.0142
  178SOL    HW2 3489   1.353   5.368   5.380  0.5174  0.8636  0.3245
  179SOL     OW 3490   2.890   3.273   4.323  0.0506  1.0781 -0.1068
  179SOL    HW1 3491   2.929   3.186   4.316 -2.0081  0.1173 -0.3080
  179SOL    HW2 3492   2.893   3.308   4.233 -1.5941  0.0468 -0.5985
  180SOL     OW 3493   7.718   7.512   6.104 -0.0978 -0.5439 -0.1282
  180SOL    HW1 3494   7.701   7.471   6.188  1.8697 -1.7058 -0.2287
  180SOL    HW2 3495   7.766   7.592   6.126  0.5645 -0.9321 -0.1195
  181SOL     OW 3496   6.708   7.183   6.292 -0.3038  0.1470  0.4986
  181SOL    HW1 3497   6.798   7.174   6.260  0.0547  1.6875  1.0131
  181SOL    HW2 3498   6.666   7.100   6.268  1.0784 -0.3605 -0.2834
  182SOL     OW 3499   3.624   3.049   2.475 -0.8298 -0.0362 -0.3545
  182SOL    HW1 3500   3.672   2.969   2.453 -0.8984 -0.3329  0.5242
  182SOL    HW2 3501   3.588   3.079   2.391 -0.6801 -0.8444 -0.7212
  183SOL     OW 3502   6.274   1.146   0.789  0.3655  0.2687  0.1605
  183SOL    HW1 3503   6.207   1.213   0.799  1.7604  1.8242 -0.5846
  183SOL    HW2 3504   6.301   1.124   0.878  0.4465  1.2868  0.3932
  184SOL     OW 3505   1.953   1.814   7.587 -0.6045  0.5376 -0.2159
  184SOL    HW1 3506   2.002   1.884   7.544 -1.0578  1.9801  1.4955
  184SOL    HW2 3507   2.019   1.763   7.633 -0.3626  0.3059 -0.8057
  185SOL     OW 3508   0.979   6.673   4.213 -0.8540 -0.4456  0.1347
  185SOL    HW1 3509   0.916   6.620   4.262 -2.9229  1.2126 -0.5250
  185SOL    HW2 3510   0.954   6.763   4.234  0.5940  0.2761 -1.0839
  186SOL     OW 3511   6.402   6.531   2.340  0.1747 -0.0876 -0.4561
  186SOL    HW1 3512   6.313   6.509   2.314 -0.1117 -0.2173  0.5822
  186SOL    HW2 3513   6.393   6.564   2.430  0.9024  1.9142 -1.0684
  187SOL     OW 3514   4.952   1.669   2.187 -0.1972 -0.2938 -0.6265
  187SOL    HW1 3515   4.874   1.688   2.135 -1.7369  1.9449  2.2016
  187SOL    HW2 3516   4.945   1.727   2.263  2.6225 -2.2890  1.3656
  188SOL     OW 3517   4.618   3.343   7.815  0.6847 -0.0724 -0.6430
  188SOL    HW1 3518   4.546   3.369   7.872  1.2624 -2.0853  1.1608
  188SOL    HW2 3519   4.666   3.424   7.798 -0.3516  0.8246  0.5509
  189SOL     OW 3520   4.398   7.458   0.044 -0.2110  0.4181  0.6488
  189SOL    HW1 3521   4.480   7.441   0.090  0.4445 -1.2954 -1.0482
  189SOL    HW2 3522   4.407   7.547   0.010  0.9358  0.2461  0.4891
  190SOL     OW 3523   3.772   2.913   0.711 -0.1888  0.0779 -0.2040
  190SOL    HW1 3524   3.823   2.831   0.710 -2.7833 -1.6552 -0.2806
  190SOL    HW2 3525   3.745   2.922   0.803  0.3638  1.0635 -0.1313
  191SOL     OW 3526   6.423   7.980   6.936  0.3761  0.0876 -0.3590
  191SOL    HW1 3527   6.387   7.892   6.926 -0.1342  0.1853  0.4371
  191SOL    HW2 3528   6.389   8.029   6.861  0.6482 -0.3921 -0.7915
  192SOL     OW 3529   7.824   4.773   0.677  0.3002  0.7940 -0.6637
  192SOL    HW1 3530   7.895   4.736   0.625  0.3233  0.5351 -0.4504
  192SOL    HW2 3531   7.746   4.762   0.623 -0.0801 -1.5044  0.2202
  193SOL     OW 3532   8.115   3.541   6.489  0.0482  0.0191 -0.2232
  193SOL    HW1 3533   8.122   3.609   6.555  0.0045  0.4753 -0.6842
  193SOL    HW2 3534   8.022   3.541   6.465 -0.8085 -2.7223  2.4112
  194SOL     OW 3535   5.319   6.732   2.823 -0.1949 -0.3454 -0.3808
  194SOL    HW1 3536   5.407   6.719   2.858 -0.5862  1.5672  1.5297
  194SOL    HW2 3537   5.263   6.676   2.877 -0.1727 -1.9973 -1.9556
  195SOL     OW 3538   5.867   6.678   1.699  0.3987  0.0973 -0.3245
  195SOL    HW1 3539   5.776   6.647   1.692  0.5275 -0.9338  1.7590
  195SOL    HW2 3540   5.859   6.772   1.713 -0.3981 -0.0599  0.3670
  196SOL     OW 3541   6.169   2.084   4.229  0.0811  0.0938 -0.1117
  196SOL    HW1 3542   6.256   2.105   4.193 -0.5889  0.9913 -1.2923
  196SOL    HW2 3543   6.117   2.162   4.212 -0.9350 -0.3837  0.7087
  197SOL     OW 3544   7.833   1.151   4.615 -0.6549 -0.5696  0.2250
  197SOL    HW1 3545   7.778   1.165   4.693 -1.1862  1.1032 -0.4072
  197SOL    HW2 3546   7.782   1.092   4.560 -0.7855 -0.8569  0.6518
  198SOL     OW 3547   2.279   3.236   1.605  0.1596 -0.5516 -0.5249
  198SOL    HW1 3548   2.335   3.238   1.527 -0.1419  0.4895 -0.7201
  198SOL    HW2 3549   2.210   3.299   1.587 -0.1962 -0.6645  0.3861
  199SOL     OW 3550   4.138   3.458   3.732  0.5179 -0.4584 -0.1557
  199SOL    HW1 3551   4.068   3.469   3.797 -1.0498  1.4388 -2.0191
  199SOL    HW2 3552   4.218   3.480   3.779 -0.8075  3.4238  0.6627
  200SOL     OW 3553   3.199   3.626   7.486 -0.1807 -0.3653 -0.1586
  200SOL    HW1 3554   3.179   3.682   7.411 -0.9276  0.2092  0.4507
  200SOL    HW2 3555   3.117   3.623   7.536  0.8511  1.0204  1.7654
  201SOL     OW 3556   2.195   0.283   6.432 -0.5227  0.3390  0.0864
  201SOL    HW1 3557   2.141   0.234   6.495  0.8822 -1.3806  0.0085
  201SOL    HW2 3558   2.276   0.302   6.480  0.6076 -1.0760 -1.1846
  202SOL     OW 3559   2.683   4.005   7.472 -0.7072  0.1243  0.0646
  202SOL    HW1 3560   2.603   4.056   7.484 -0.6406  0.1471  0.4281
  202SOL    HW2 3561   2.741   4.062   7.422 -1.2490 -0.2348 -0.9923
  203SOL     OW 3562   1.456   3.695   6.002 -0.2459 -0.1057  0.2588
  203SOL    HW1 3563   1.545   3.716   5.974 -0.8209  0.5826 -1.1315
  203SOL    HW2 3564   1.400   3.751   5.948 -1.5298 -0.5422  1.0971
  204SOL     OW 3565   5.679   2.086   0.351 -0.1703 -0.9522  0.1727
  204SOL    HW1 3566   5.593   2.058   0.321 -0.0420 -1.2470  0.0720
  204SOL    HW2 3567   5.668   2.101   0.445 -1.1272  2.0761 -0.3173
  205SOL     OW 3568   1.935   0.110   1.055  0.2048 -0.0246  0.1241
  205SOL    HW1 3569   2.015   0.061   1.034 -0.3846 -0.5852 -0.9076
  205SOL    HW2 3570   1.864   0.057   1.017 -0.5278  1.1620 -0.2173
  206SOL     OW 3571   0.139   7.998   3.199 -0.1788 -0.2970 -0.3891
  206SOL    HW1 3572   0.086   7.918   3.194 -0.3871 -0.1539 -0.4919
  206SOL    HW2 3573   0.230   7.967   3.193 -0.2809 -0.4630 -1.2482
  207SOL     OW 3574   5.962   1.205   7.465 -0.2315  0.6139 -0.5705
  207SOL    HW1 3575   5.892   1.145   7.491 -1.8329  3.4764  2.4757
  207SOL    HW2 3576   5.931   1.246   7.385 -0.6358 -0.2451 -0.8645
  208SOL     OW 3577   1.643   2.240   7.490 -0.6490 -0.1528  0.0619
  208SOL    HW1 3578   1.557   2.235   7.532 -0.4756 -1.3894  0.3039
  208SOL    HW2 3579   1.696   2.176   7.537 -0.1381 -0.7713 -1.3230
  209SOL     OW 3580   5.702   0.903   7.093 -1.0266  0.7943 -0.1573
  209SOL    HW1 3581   5.681   0.996   7.089 -0.8881  0.8041 -0.8827
  209SOL    HW2 3582   5.637   0.861   7.036  0.4411  0.7498 -1.8752
  210SOL     OW 3583   1.820   0.149   1.770  0.2908 -0.1823 -0.0201
  210SOL    HW1 3584   1.892   0.118   1.716  0.3453  0.1740 -0.1555
  210SOL    HW2 3585   1.776   0.070   1.800  1.1040 -0.4253  0.5607
  211SOL     OW 3586   6.595   7.785   5.265 -0.1236  0.1650 -0.2501
  211SOL    HW1 3587   6.561   7.841   5.195  0.0916  0.6211  0.0077
  211SOL    HW2 3588   6.606   7.844   5.339  0.2465 -0.1919 -0.0189
  212SOL     OW 3589   5.056   1.226   4.766 -0.0930 -0.1712  0.1705
  212SOL    HW1 3590   5.101   1.180   4.838  0.4599  0.6237  0.3462
  212SOL    HW2 3591   5.094   1.188   4.687  1.3544  0.8884  0.3136
  213SOL     OW 3592   3.025   0.536   5.584 -0.1186 -0.6852 -0.5185
  213SOL    HW1 3593   3.024   0.445   5.555  1.0462 -0.0086 -2.9930
  213SOL    HW2 3594   2.932   0.560   5.590 -0.4311 -1.7972 -0.6335
  214SOL     OW 3595   7.687   2.663   5.687  0.1067  0.0456 -0.3869
  214SOL    HW1 3596   7.649   2.576   5.677 -0.6428  0.1793  0.9895
  214SOL    HW2 3597   7.628   2.708   5.748  0.4396  1.5505 -1.1387
  215SOL     OW 3598   1.576   7.141   2.113  0.1301  0.6124  0.3202
  215SOL    HW1 3599   1.523   7.194   2.173 -0.1892  0.1812  0.4251
  215SOL    HW2 3600   1.574   7.053   2.151 -0.2188  0.2952 -0.4094
  216SOL     OW 3601   7.307   7.614   7.548 -0.2527 -0.5261 -0.0100
  216SOL    HW1 3602   7.308   7.704   7.514 -0.0872 -0.1854  0.8615
  216SOL    HW2 3603   7.228   7.575   7.510  0.3332 -0.4228 -1.4018
  217SOL     OW 3604   2.182   3.627   0.791  0.1544  0.5605  0.4920
  217SOL    HW1 3605   2.180   3.604   0.698  0.9856  1.1381  0.3294
  217SOL    HW2 3606   2.098   3.670   0.807 -1.3923 -2.3035  0.7594
  218SOL     OW 3607   6.150   0.995   5.774  0.5722 -0.4148 -0.5220
  218SOL    HW1 3608   6.150   0.943   5.854  1.0053 -0.5965 -0.6407
  218SOL    HW2 3609   6.240   0.990   5.741  0.7654  0.8171 -0.2646
  219SOL     OW 3610   3.112   1.366   2.013  0.1719  0.2074 -0.4184
  219SOL    HW1 3611   3.094   1.417   1.934 -1.0026  2.3899  1.1521
  219SOL    HW2 3612   3.171   1.421   2.065  1.1405 -1.2973  0.1646
  220SOL     OW 3613   6.801   3.491   8.026 -0.3175  0.2609  0.3213
  220SOL    HW1 3614   6.759   3.577   8.025 -1.4891 -0.2520  1.8844
  220SOL    HW2 3615   6.894   3.511   8.033 -0.6309  1.4227  1.5931
  221SOL     OW 3616   5.762   0.437   5.019  0.0957 -0.1530  0.5560
  221SOL    HW1 3617   5.788   0.396   5.102  2.8418 -0.0129 -0.1158
  221SOL    HW2 3618   5.674   0.405   5.002 -1.0866  0.7356  4.0833
  222SOL     OW 3619   7.081   7.188   7.037 -0.3446  0.6299 -0.1046
  222SOL    HW1 3620   7.090   7.093   7.045 -2.5340  0.4050  0.4599
  222SOL    HW2 3621   7.066   7.202   6.943 -1.4203  0.2291 -0.0085
  223SOL     OW 3622   1.441   7.552   7.309  0.3447 -1.1364  0.0039
  223SOL    HW1 3623   1.496   7.619   7.349  0.4236 -1.4118  0.3622
  223SOL    HW2 3624   1.412   7.498   7.383  0.3333 -1.5332 -0.2875
  224SOL     OW 3625   0.808   3.883   1.871  0.3915 -0.2824  0.2331
  224SOL    HW1 3626   0.778   3.893   1.781  1.2751 -0.1299 -0.0598
  224SOL    HW2 3627   0.877   3.949   1.881 -0.9462  0.9791  1.6190
  225SOL     OW 3628   0.108   4.613   6.912  0.4433  0.2060 -0.0238
  225SOL    HW1 3629   0.101   4.597   7.007  0.4638  1.0050  0.1180
  225SOL    HW2 3630   0.025   4.581   6.877  0.0139  0.8148  0.4027
  226SOL     OW 3631   3.888   3.181   1.336 -1.0878 -0.0303  0.9587
  226SOL    HW1 3632   3.878   3.276   1.328 -1.0317 -0.0404  0.7507
  226SOL    HW2 3633   3.883   3.164   1.430 -1.6842  0.1118  0.9514
  227SOL     OW 3634   3.333   7.174   2.000 -0.6785 -0.0194 -0.1788
  227SOL    HW1 3635   3.407   7.176   1.940 -0.2074  0.3232  0.4005
  227SOL    HW2 3636   3.347   7.250   2.057 -0.7535 -0.7161  0.7859
  228SOL     OW 3637   0.761   3.793   5.288 -0.1848 -0.5410 -0.0900
  228SOL    HW1 3638   0.730   3.856   5.222 -2.2453  0.3028  1.5749
  228SOL    HW2 3639   0.856   3.799   5.283 -0.3077  1.4080 -1.2193
  229SOL     OW 3640   7.717   7.056   4.145 -0.5210  0.4735 -0.5425
  229SOL    HW1 3641   7.638   7.011   4.174 -0.1003  0.8948  1.4147
  229SOL    HW2 3642   7.714   7.052   4.049 -1.5916 -1.7540 -0.4659
  230SOL     OW 3643   0.070   7.138   1.528 -0.0444 -0.0295 -0.4134
  230SOL    HW1 3644   0.021   7.187   1.462  1.0967  1.0059 -0.5181
  230SOL    HW2 3645   0.019   7.148   1.608 -1.1894 -0.9007 -0.9931
  231SOL     OW 3646   3.890   4.087   2.076  0.0824 -0.3016 -0.2904
  231SOL    HW1 3647   3.835   4.161   2.051 -0.9305 -0.6385  0.8870
  231SOL    HW2 3648   3.832   4.028   2.123  1.2971 -0.9838  0.4115
  232SOL     OW 3649   4.276   2.836   1.836 -0.7020 -0.6992  0.8206
  232SOL    HW1 3650   4.351   2.892   1.818 -0.9874  0.2193  2.3313
  232SOL    HW2 3651   4.250   2.803   1.750  0.0219  0.7627  0.0042
  233SOL     OW 3652   1.185   6.393   4.359 -0.6845 -0.1992 -0.1627
  233SOL    HW1 3653   1.152   6.313   4.319  0.6872 -0.5140 -0.7402
  233SOL    HW2 3654   1.231   6.437   4.287 -0.3030  0.4552  0.4760
  234SOL     OW 3655   2.257   0.391   1.292  0.1731  0.4711  0.4375
  234SOL    HW1 3656   2.196   0.431   1.354 -0.6647  0.6697 -0.4875
  234SOL    HW2 3657   2.320   0.345   1.347 -1.0373 -0.0787  1.4242
  235SOL     OW 3658   1.309   7.747   6.184 -0.4968 -0.1883  0.4142
  235SOL    HW1 3659   1.338   7.791   6.264 -0.5929 -0.7800  0.7850
  235SOL    HW2 3660   1.297   7.817   6.121 -0.2636  0.2744  0.8729
  236SOL     OW 3661   4.642   7.266   0.495 -0.2260 -0.5356  0.1942
  236SOL    HW1 3662   4.719   7.324   0.492 -0.7674  0.1856  0.1533
  236SOL    HW2 3663   4.653   7.209   0.418  0.3302 -0.5264  0.2597
  237SOL     OW 3664   7.445   6.960   4.198  0.1736 -0.0156 -0.2119
  237SOL    HW1 3665   7.465   6.893   4.263  1.9377  1.3470  0.7397
  237SOL    HW2 3666   7.416   6.910   4.121 -0.7199 -1.7298  1.1589
  238SOL     OW 3667   0.357   5.351   0.966 -0.0637  0.0685 -0.3073
  238SOL    HW1 3668   0.436   5.300   0.950  0.4919  0.2127  1.6564
  238SOL    HW2 3669   0.287   5.300   0.927  0.6103 -1.6684  0.6431
  239SOL     OW 3670   1.253   2.738   5.929  0.2887  0.0968 -0.1949
  239SOL    HW1 3671   1.246   2.661   5.872  1.5254  0.3502 -0.7169
  239SOL    HW2 3672   1.289   2.703   6.011 -1.0906 -0.1962  0.3157
  240SOL     OW 3673   5.238   7.619   6.687 -0.1857  0.0526  0.0923
  240SOL    HW1 3674   5.229   7.677   6.763  2.3635 -2.7930  2.8166
  240SOL    HW2 3675   5.186   7.542   6.709  2.6675 -1.9453  0.3129
  241SOL     OW 3676   5.386   3.521   1.895 -0.3975 -0.4291 -0.1420
  241SOL    HW1 3677   5.393   3.548   1.804 -0.6904 -0.1199 -0.0737
  241SOL    HW2 3678   5.395   3.602   1.945  0.3216 -0.6741  0.1253
  242SOL     OW 3679   5.311   7.890   3.413 -0.1462  0.3916  0.1131
  242SOL    HW1 3680   5.325   7.981   3.389  0.1439  0.4142  0.3643
  242SOL    HW2 3681   5.253   7.856   3.345  1.4587  0.1940 -1.2337
  243SOL     OW 3682   3.241   0.934   0.672  0.0947  0.4055 -0.5745
  243SOL    HW1 3683   3.224   1.025   0.646  1.5675  1.0630  0.6034
  243SOL    HW2 3684   3.168   0.884   0.634 -1.2700  2.2015 -0.4670
  244SOL     OW 3685   1.515   0.998   3.465 -0.1161 -0.3414 -0.1162
  244SOL    HW1 3686   1.478   0.913   3.442 -1.3326 -0.7441  2.8433
  244SOL    HW2 3687   1.600   0.977   3.503 -0.2107 -0.1946  0.1767
  245SOL     OW 3688   3.258   4.508   6.517  0.1576  0.1345 -0.0550
  245SOL    HW1 3689   3.223   4.428   6.556 -0.2852 -0.4430 -1.5735
  245SOL    HW2 3690   3.227   4.578   6.575  2.4056 -0.8712  2.5768
  246SOL     OW 3691   6.675   7.802   6.316  0.1598 -0.1168  0.0371
  246SOL    HW1 3692   6.659   7.745   6.241 -0.6928  0.5051 -0.2752
  246SOL    HW2 3693   6.598   7.789   6.372 -0.1794  0.9176 -0.1730
  247SOL     OW 3694   5.212   5.366   5.331  0.5218 -0.3313 -0.0913
  247SOL    HW1 3695   5.174   5.450   5.305  1.2716 -0.1848 -0.7541
  247SOL    HW2 3696   5.265   5.385   5.408  2.7466  0.3344 -1.7053
  248SOL     OW 3697   7.379   4.593   2.811 -0.4638 -0.3260  0.3987
  248SOL    HW1 3698   7.472   4.571   2.800 -0.5793 -0.5966 -0.0275
  248SOL    HW2 3699   7.341   4.584   2.724 -0.3929  2.1597  0.0442
  249SOL     OW 3700   4.341   3.983   5.452  0.6336  0.3655 -0.3295
  249SOL    HW1 3701   4.317   3.899   5.490 -0.8599 -0.1946 -2.3591
  249SOL    HW2 3702   4.408   3.963   5.388  1.5252  0.9934  0.3772
  250SOL     OW 3703   7.088   0.889   2.657  0.1423 -0.6813 -0.6226
  250SOL    HW1 3704   7.159   0.870   2.719  0.5220  1.0740 -0.4816
  250SOL    HW2 3705   7.013   0.908   2.713  0.1503 -0.3529 -0.7237
  251SOL     OW 3706   1.388   5.957   7.852  0.4639 -0.6590 -0.3386
  251SOL    HW1 3707   1.388   5.949   7.757 -3.5841  0.8964 -0.6883
  251SOL    HW2 3708   1.326   5.890   7.882  0.3894 -0.0106  1.0368
  252SOL     OW 3709   3.775   4.111   2.394 -0.1790 -0.3570  0.3784
  252SOL    HW1 3710   3.863   4.148   2.391  0.4297 -1.7652 -1.2012
  252SOL    HW2 3711   3.785   4.029   2.442 -0.5391 -0.7094 -0.1331
  253SOL     OW 3712   7.288   7.667   2.211  0.2810 -0.3428  0.8483
  253SOL    HW1 3713   7.327   7.609   2.146  0.0117 -0.0925  0.4611
  253SOL    HW2 3714   7.200   7.684   2.178  0.2482  0.0348  1.1261
  254SOL     OW 3715   0.784   5.512   5.068 -0.1348 -0.5408 -0.2486
  254SOL    HW1 3716   0.803   5.586   5.126  0.8236 -0.6604 -0.4050
  254SOL    HW2 3717   0.850   5.518   4.999 -1.8984  0.2825 -2.0052
  255SOL     OW 3718   2.949   1.343   3.863 -0.0027  0.3880  0.3026
  255SOL    HW1 3719   2.875   1.382   3.816  0.4153 -0.0157 -0.7147
  255SOL    HW2 3720   2.912   1.264   3.903 -0.6134  1.2746  1.5556
  256SOL     OW 3721   0.720   5.178   1.150 -0.2188 -0.0786 -0.1430
  256SOL    HW1 3722   0.787   5.171   1.081  0.5491 -1.2216  0.6756
  256SOL    HW2 3723   0.694   5.270   1.148  3.8074  1.3376  1.6791
  257SOL     OW 3724   6.640   2.725   7.276  0.3089 -0.1503  0.3518
  257SOL    HW1 3725   6.598   2.663   7.335 -0.7784  1.5168  1.3885
  257SOL    HW2 3726   6.586   2.804   7.280  2.1936  1.2491 -0.1340
  258SOL     OW 3727   2.129   2.678   4.136  0.5277  0.0817 -0.0613
  258SOL    HW1 3728   2.162   2.702   4.049 -0.2418  1.2792 -0.0524
  258SOL    HW2 3729   2.131   2.760   4.186 -0.3646 -0.2869  0.6071
  259SOL     OW 3730   3.893   0.715   2.786  0.0267 -0.4026 -0.2235
  259SOL    HW1 3731   3.914   0.773   2.859 -0.6495  1.5710 -1.4756
  259SOL    HW2 3732   3.819   0.663   2.817 -0.8413  1.0427  0.2577
  260SOL     OW 3733   7.888   4.971   7.922  0.2650 -0.0446 -0.2452
  260SOL    HW1 3734   7.980   4.992   7.941  0.7829 -0.7988 -1.7634
  260SOL    HW2 3735   7.866   4.902   7.984  0.1822  1.2720  1.2438
  261SOL     OW 3736   4.457   2.163   4.115 -0.1551  0.2157  0.2400
  261SOL    HW1 3737   4.379   2.117   4.146 -0.1241  0.7502  1.1272
  261SOL    HW2 3738   4.438   2.255   4.130  0.7429  0.3376  0.6853
  262SOL     OW 3739   1.677   1.214   1.845 -0.4570  0.8389  0.2851
  262SOL    HW1 3740   1.699   1.175   1.929 -0.4177  0.4288  0.0901
  262SOL    HW2 3741   1.601   1.165   1.815 -1.2977  1.8678  0.6884
  263SOL     OW 3742   2.724   0.968   6.598  0.5105  0.0599 -0.9617
  263SOL    HW1 3743   2.645   1.006   6.637 -0.7895 -0.3597 -3.0225
  263SOL    HW2 3744   2.695   0.883   6.563  2.5805 -1.4265  0.7022
  264SOL     OW 3745   2.713   1.149   7.633 -0.9481  0.1431 -0.1929
  264SOL    HW1 3746   2.680   1.239   7.629 -1.8632 -0.1811 -0.3167
  264SOL    HW2 3747   2.637   1.097   7.661 -1.0572 -0.8893 -2.2391
  265SOL     OW 3748   5.856   4.254   6.837 -0.2600 -0.4597 -0.9360
  265SOL    HW1 3749   5.784   4.220   6.785 -0.4526  0.8573 -1.5747
  265SOL    HW2 3750   5.823   4.336   6.874  0.5867 -0.3208 -0.4444
  266SOL     OW 3751   8.108   5.699   5.191 -0.5413  0.3036  0.3872
  266SOL    HW1 3752   8.124   5.713   5.284  2.0604  1.7645 -0.1790
  266SOL    HW2 3753   8.014   5.712   5.180 -1.1796 -1.5026  3.0149
  267SOL     OW 3754   0.269   4.640   5.129 -0.5455  0.3397 -0.0508
  267SOL    HW1 3755   0.293   4.628   5.037  0.1601 -0.5443  0.2352
  267SOL    HW2 3756   0.323   4.714   5.159  0.8247 -0.7057  0.1925
  268SOL     OW 3757   7.036   7.506   1.452 -0.0828 -0.2070 -0.6677
  268SOL    HW1 3758   7.054   7.412   1.445  0.8995 -0.0055 -1.0552
  268SOL    HW2 3759   6.951   7.511   1.496  0.9443 -1.2422  1.6376
  269SOL     OW 3760   5.508   2.215   6.794 -0.1494  0.0239 -0.5188
  269SOL    HW1 3761   5.576   2.218   6.862  0.4021 -4.4474 -0.5911
  269SOL    HW2 3762   5.444   2.280   6.822  0.8389 -0.4117  3.3952
  270SOL     OW 3763   0.119   5.139   5.581  0.9131 -0.1495  0.1885
  270SOL    HW1 3764   0.025   5.130   5.566  0.8816 -0.4762  0.5731
  270SOL    HW2 3765   0.150   5.193   5.508  0.7268 -1.5424 -0.9579
  271SOL     OW 3766   4.933   2.213   2.704  0.1733 -0.0433 -0.0620
  271SOL    HW1 3767   5.013   2.246   2.746  0.5182 -2.0670  0.9690
  271SOL    HW2 3768   4.863   2.265   2.743  0.6561 -0.7435  1.8502
  272SOL     OW 3769   0.519   5.194   0.661 -0.3375  0.1730  0.1648
  272SOL    HW1 3770   0.612   5.193   0.639 -0.7037 -1.4814 -1.6044
  272SOL    HW2 3771   0.508   5.117   0.718 -0.6777  0.1820  0.1105
  273SOL     OW 3772   6.016   6.704   3.141 -0.2557  0.5314 -0.5878
  273SOL    HW1 3773   6.013   6.616   3.103  0.6053 -0.0568  0.6150
  273SOL    HW2 3774   6.105   6.734   3.122 -0.0977  0.5692  0.1999
  274SOL     OW 3775   1.749   5.455   6.999 -0.3378 -0.3280  0.1693
  274SOL    HW1 3776   1.824   5.464   7.058 -1.3094  0.2043  1.3674
  274SOL    HW2 3777   1.757   5.366   6.964  1.9792  0.3857 -1.3666
  275SOL     OW 3778   2.456   1.396   6.007  0.2411  0.1177 -0.6114
  275SOL    HW1 3779   2.474   1.448   6.085  2.0949  0.3909 -1.1735
  275SOL    HW2 3780   2.534   1.342   5.995 -0.9930 -1.6836 -0.9482
  276SOL     OW 3781   3.043   1.319   2.308 -0.0728 -0.3611  0.0600
  276SOL    HW1 3782   3.130   1.319   2.268  0.7269 -2.8912  1.5556
  276SOL    HW2 3783   2.983   1.319   2.234  1.2415 -0.4950 -1.0466
  277SOL     OW 3784   4.604   5.851   4.780  0.6385 -0.2029  0.3399
  277SOL    HW1 3785   4.577   5.931   4.825 -0.1205 -1.2326  1.8310
  277SOL    HW2 3786   4.521   5.808   4.756  1.0276 -0.5841 -0.3583
  278SOL     OW 3787   6.169   6.605   2.901  0.0415 -0.2233 -0.8159
  278SOL    HW1 3788   6.221   6.587   2.823  0.6310 -0.5997 -0.3419
  278SOL    HW2 3789   6.232   6.629   2.968 -0.4244 -0.2836 -0.3432
  279SOL     OW 3790   5.447   4.756   0.054  1.0496 -0.0864  0.2046
  279SOL    HW1 3791   5.408   4.752   0.142  2.1656  0.7878  0.7591
  279SOL    HW2 3792   5.383   4.711  -0.002 -0.0836  0.0672  1.3152
  280SOL     OW 3793   3.001   7.912   3.244  0.0348 -0.3736 -0.0044
  280SOL    HW1 3794   3.051   7.963   3.308  2.1004 -0.1607 -1.6560
  280SOL    HW2 3795   2.925   7.966   3.224  0.3082  0.3833  0.9285
  281SOL     OW 3796   5.911   7.922   0.833  0.0984 -0.2162 -0.1776
  281SOL    HW1 3797   5.986   7.945   0.888  0.3070 -0.3493 -0.4052
  281SOL    HW2 3798   5.896   8.001   0.781  2.1465 -1.2069 -2.4886
  282SOL     OW 3799   0.897   7.761   6.961  0.3548 -0.1605 -0.0850
  282SOL    HW1 3800   0.882   7.788   7.051  1.0468  0.5640 -0.1738
  282SOL    HW2 3801   0.810   7.737   6.928 -0.1919  1.2614  0.2372
  283SOL     OW 3802   0.843   4.293   3.211 -0.3085 -0.1383 -0.2341
  283SOL    HW1 3803   0.921   4.318   3.161 -0.2975  0.5710  0.1271
  283SOL    HW2 3804   0.859   4.202   3.237  1.1816  0.5011  1.2797
  284SOL     OW 3805   1.556   7.052   0.047  0.2662 -0.4387 -0.0033
  284SOL    HW1 3806   1.638   7.005   0.030  0.2971  0.0285 -1.2711
  284SOL    HW2 3807   1.522   7.013   0.127  1.6470 -0.7483  0.4611
  285SOL     OW 3808   4.385   4.988   2.730 -0.2105 -0.3574 -0.2857
  285SOL    HW1 3809   4.439   4.985   2.651  0.6369  0.1217  0.2633
  285SOL    HW2 3810   4.367   4.896   2.750 -1.3250 -0.4572 -1.6181
  286SOL     OW 3811   3.649   6.917   7.516  0.1781 -0.5237  0.2359
  286SOL    HW1 3812   3.587   6.989   7.524  0.4224 -0.4797  2.0400
  286SOL    HW2 3813   3.654   6.900   7.422 -1.1739  0.6723 -0.0799
  287SOL     OW 3814   5.135   3.829   5.587  0.2674  0.8603 -1.1834
  287SOL    HW1 3815   5.203   3.878   5.633 -0.1710 -0.1267  0.6176
  287SOL    HW2 3816   5.105   3.764   5.650 -2.3509  1.2515 -1.8821
  288SOL     OW 3817   2.085   3.174   7.492 -1.0316  0.3776 -1.0898
  288SOL    HW1 3818   2.111   3.100   7.547 -1.6886  0.2840 -0.8871
  288SOL    HW2 3819   2.104   3.251   7.545 -0.0788  0.3718 -1.4152
  289SOL     OW 3820   4.603   5.313   6.106 -0.2891  0.6345 -0.6523
  289SOL    HW1 3821   4.678   5.324   6.048 -0.0093  2.9869  0.0614
  289SOL    HW2 3822   4.534   5.366   6.067 -2.1219 -2.4314 -1.9664
  290SOL     OW 3823   4.980   3.639   5.056  0.1659  0.0809  0.1321
  290SOL    HW1 3824   4.976   3.545   5.040 -0.2017 -0.1143  1.2983
  290SOL    HW2 3825   5.031   3.673   4.982 -0.2765 -0.9320 -0.6731
  291SOL     OW 3826   6.613   1.447   6.012  0.4090 -0.1806 -0.3113
  291SOL    HW1 3827   6.618   1.543   6.016  0.8448 -0.2407  1.0357
  291SOL    HW2 3828   6.645   1.425   5.924  2.7921  0.7809  0.2328
  292SOL     OW 3829   6.150   4.279   6.274  0.0121  0.9858 -0.3405
  292SOL    HW1 3830   6.228   4.333   6.260  0.5907 -0.1249 -1.5908
  292SOL    HW2 3831   6.076   4.336   6.252  0.5153  1.7513 -0.0722
  293SOL     OW 3832   3.369   3.435   2.066 -0.4460  0.4471  0.2664
  293SOL    HW1 3833   3.385   3.448   2.160  0.3601  0.0182  0.1954
  293SOL    HW2 3834   3.302   3.367   2.063 -0.7222  0.7046  0.5350
  294SOL     OW 3835   5.582   0.574   6.454 -0.0982 -0.1932  0.2422
  294SOL    HW1 3836   5.657   0.537   6.500 -1.9393 -1.5339  2.3957
  294SOL    HW2 3837   5.568   0.659   6.497  0.2978  0.1546 -0.3081
  295SOL     OW 3838   6.597   5.745   1.639  0.2130  0.0362 -0.0088
  295SOL    HW1 3839   6.674   5.771   1.690  0.6652 -0.3497 -0.4793
  295SOL    HW2 3840   6.609   5.787   1.554  1.0602 -1.7982 -0.8490
  296SOL     OW 3841   3.678   5.660   1.343  0.2610  0.4308  0.1742
  296SOL    HW1 3842   3.629   5.596   1.293 -0.4657  0.2901  1.0428
  296SOL    HW2 3843   3.641   5.656   1.431  1.3177  0.8632  0.6642
  297SOL     OW 3844   2.334   1.299   4.966 -0.0780 -0.1341 -0.0124
  297SOL    HW1 3845   2.336   1.204   4.958  2.8140 -0.0588 -1.4243
  297SOL    HW2 3846   2.360   1.316   5.056 -1.8461 -0.6205  0.6402
  298SOL     OW 3847   0.750   7.983   7.444  0.2461  0.0608 -0.0883
  298SOL    HW1 3848   0.784   7.897   7.468 -0.3380 -0.1850 -0.1484
  298SOL    HW2 3849   0.677   7.965   7.385 -0.1660  0.5832  0.2546
  299SOL     OW 3850   3.948   0.223   1.822  0.6553  0.2473 -0.7252
  299SOL    HW1 3851   3.954   0.300   1.766 -0.9570  1.4636  0.6672
  299SOL    HW2 3852   3.950   0.258   1.911 -0.8206 -1.2398 -0.0573
  300SOL     OW 3853   8.038   6.263   0.731 -0.5337 -0.4956 -0.4196
  300SOL    HW1 3854   8.120   6.240   0.774 -0.6074 -0.0426 -0.0344
  300SOL    HW2 3855   8.057   6.254   0.637  0.4875  1.2326 -0.4353
  301SOL     OW 3856   5.293   0.558   1.896  0.5431 -0.5268 -0.1666
  301SOL    HW1 3857   5.370   0.614   1.898 -0.0382  0.2906 -0.2336
  301SOL    HW2 3858   5.324   0.476   1.856  1.6419 -0.6684  0.9137
  302SOL     OW 3859   5.816   3.730   7.204 -0.0403 -0.5347  0.2890
  302SOL    HW1 3860   5.797   3.658   7.145  1.3240 -1.5862  1.0736
  302SOL    HW2 3861   5.792   3.697   7.291  0.4379  0.0120  0.6365
  303SOL     OW 3862   1.558   1.246   5.136  0.2498 -0.6427  0.5164
  303SOL    HW1 3863   1.486   1.202   5.182  0.0070  0.0688  0.8369
  303SOL    HW2 3864   1.568   1.197   5.055 -0.9121 -0.4768  0.2560
  304SOL     OW 3865   5.895   2.697   3.105 -0.7640 -0.3105 -0.0367
  304SOL    HW1 3866   5.948   2.745   3.169 -0.7058 -0.7756  0.2635
  304SOL    HW2 3867   5.816   2.750   3.095 -0.4673  0.1239 -0.1061
  305SOL     OW 3868   5.609   6.702   0.885 -0.3325  0.0887  0.4592
  305SOL    HW1 3869   5.683   6.753   0.917  2.1926 -2.0302 -1.5256
  305SOL    HW2 3870   5.601   6.630   0.947 -0.3304 -0.0176  0.3363
  306SOL     OW 3871   6.875   0.367   4.854  0.2997  0.4173  0.2780
  306SOL    HW1 3872   6.958   0.321   4.841 -0.6246 -0.9530 -0.9401
  306SOL    HW2 3873   6.827   0.355   4.773 -0.5042  2.5203  0.3734
  307SOL     OW 3874   4.446   0.839   7.629  0.7915  0.0079  0.6011
  307SOL    HW1 3875   4.401   0.757   7.612  3.6365 -1.6478  0.3742
  307SOL    HW2 3876   4.387   0.906   7.594 -0.7078 -2.0786 -1.1798
  308SOL     OW 3877   4.539   0.817   2.191  0.5113 -0.0872  0.6680
  308SOL    HW1 3878   4.572   0.730   2.212 -0.2126 -0.1836  1.4838
  308SOL    HW2 3879   4.537   0.863   2.275 -0.7697  0.1183  0.5567
  309SOL     OW 3880   3.121   0.807   3.575  0.0525 -0.3619 -0.4405
  309SOL    HW1 3881   3.040   0.858   3.571 -0.6845 -1.4486 -0.1173
  309SOL    HW2 3882   3.112   0.754   3.654  1.7336  0.4948  0.3781
  310SOL     OW 3883   2.294   5.686   7.586  0.2145  0.0353 -0.1301
  310SOL    HW1 3884   2.269   5.774   7.614 -1.0259 -0.5092  0.5239
  310SOL    HW2 3885   2.381   5.698   7.547 -0.8780  1.9377 -2.1919
  311SOL     OW 3886   3.498   0.271   3.581  0.4706 -0.7031  0.3217
  311SOL    HW1 3887   3.485   0.356   3.624  3.7465 -0.9979  2.1981
  311SOL    HW2 3888   3.457   0.208   3.641 -2.2011 -0.5911 -1.2000
  312SOL     OW 3889   6.800   7.507   4.842 -0.6083  0.5432 -0.2628
  312SOL    HW1 3890   6.781   7.434   4.901 -0.0979  0.5816 -0.0479
  312SOL    HW2 3891   6.872   7.554   4.885  1.5362 -0.8592 -2.0984
  313SOL     OW 3892   1.418   5.986   3.802 -0.2408 -0.3957  0.1128
  313SOL    HW1 3893   1.395   6.072   3.767 -0.0204 -1.0114 -1.6755
  313SOL    HW2 3894   1.346   5.965   3.861 -0.2651  1.0331  0.6287
  314SOL     OW 3895   3.214   8.090   3.964 -0.8263  0.1527  0.7151
  314SOL    HW1 3896   3.216   8.113   4.057  0.4112 -1.6989  1.2270
  314SOL    HW2 3897   3.148   8.021   3.958 -0.6498  0.0138  0.3208
  315SOL     OW 3898   2.288   6.612   6.000  0.2919 -0.3351  0.6176
  315SOL    HW1 3899   2.247   6.667   6.067  0.7680 -0.2617  0.8570
  315SOL    HW2 3900   2.374   6.590   6.037  0.6096 -0.1923 -0.0254
  316SOL     OW 3901   7.076   0.113   6.972 -0.5981  0.0580  0.3116
  316SOL    HW1 3902   7.009   0.073   7.027 -2.1776  2.8124  0.5495
  316SOL    HW2 3903   7.030   0.180   6.922  1.7788  1.3232 -0.3282
  317SOL     OW 3904   1.019   0.968   4.934 -0.2686  0.3788 -0.0104
  317SOL    HW1 3905   0.979   0.946   4.850  1.3889 -1.5235 -0.3746
  317SOL    HW2 3906   0.980   0.907   4.996 -2.0596  2.2744  0.8493
  318SOL     OW 3907   0.073   0.867   2.464 -0.3560  0.4255  0.2119
  318SOL    HW1 3908  -0.014   0.861   2.427  0.2816  0.7315 -1.4013
  318SOL    HW2 3909   0.127   0.810   2.410  0.4012  0.0031  1.3744
  319SOL     OW 3910   3.844   4.040   7.154 -0.3515 -0.1102  0.4995
  319SOL    HW1 3911   3.763   4.031   7.104  0.2981 -1.0121 -0.4360
  319SOL    HW2 3912   3.895   4.105   7.106 -0.1047 -0.2964  0.5059
  320SOL     OW 3913   1.266   1.512   2.637 -0.2054 -0.2603  0.3447
  320SOL    HW1 3914   1.171   1.512   2.652 -0.0779  0.5494  1.2480
  320SOL    HW2 3915   1.303   1.543   2.719  0.7799  0.4602 -0.3477
  321SOL     OW 3916   4.871   5.475   0.340  0.0366 -0.5275  0.3224
  321SOL    HW1 3917   4.775   5.479   0.347  0.1500  1.3353  1.5872
  321SOL    HW2 3918   4.895   5.393   0.382 -0.9186 -0.1428  1.6920
  322SOL     OW 3919   7.866   0.970   3.177  0.2473 -0.4936  0.3568
  322SOL    HW1 3920   7.898   1.032   3.242 -1.3395  1.4396 -0.5686
  322SOL    HW2 3921   7.825   0.900   3.228 -0.3372  0.6123  1.4513
  323SOL     OW 3922   3.751   5.313   2.989 -0.2911  0.6636 -0.2505
  323SOL    HW1 3923   3.743   5.218   2.999 -0.2940  0.6856 -0.0432
  323SOL    HW2 3924   3.831   5.325   2.938 -0.7391  0.5117 -1.0100
  324SOL     OW 3925   4.867   0.281   4.034 -0.1666 -0.0652  0.3895
  324SOL    HW1 3926   4.789   0.284   3.978  1.9505 -1.1430 -2.9418
  324SOL    HW2 3927   4.936   0.320   3.980  2.4797 -2.8136  1.4949
  325SOL     OW 3928   6.320   4.177   7.421 -0.2837 -0.3049 -0.0478
  325SOL    HW1 3929   6.244   4.220   7.383 -0.4760 -1.0965 -0.5850
  325SOL    HW2 3930   6.286   4.097   7.461  0.1716 -0.3394  0.2888
  326SOL     OW 3931   2.112   2.513   0.119  0.4517  0.4546 -0.1709
  326SOL    HW1 3932   2.139   2.454   0.189 -0.4474 -0.7252 -0.7810
  326SOL    HW2 3933   2.021   2.534   0.139  1.0039  2.3475  0.4987
  327SOL     OW 3934   7.407   0.918   2.375  0.1285  0.0067  0.0506
  327SOL    HW1 3935   7.320   0.954   2.360  0.0183  0.0234  0.6954
  327SOL    HW2 3936   7.394   0.823   2.375  0.3496 -0.0414 -1.2316
  328SOL     OW 3937   0.169   2.221   4.877 -0.0293 -0.4722  0.6366
  328SOL    HW1 3938   0.085   2.257   4.907  0.2343 -0.5207  1.4687
  328SOL    HW2 3939   0.235   2.276   4.921  0.3793 -1.6021  1.4876
  329SOL     OW 3940   6.876   3.738   3.850  0.8061  0.4809 -0.0306
  329SOL    HW1 3941   6.790   3.700   3.870 -0.0035  1.5525 -1.2720
  329SOL    HW2 3942   6.928   3.665   3.818 -0.5187  0.2296 -1.7907
  330SOL     OW 3943   2.091   3.724   6.202  0.0046  0.3911  0.3146
  330SOL    HW1 3944   2.152   3.669   6.250  0.9949  0.2174 -1.1142
  330SOL    HW2 3945   2.019   3.738   6.264  1.2446  0.2249  1.8675
  331SOL     OW 3946   7.603   5.925   5.063 -0.2957 -0.3867 -0.2821
  331SOL    HW1 3947   7.620   6.011   5.102 -2.2137  0.0162 -0.2495
  331SOL    HW2 3948   7.546   5.881   5.126  1.2864 -2.0519  0.0877
  332SOL     OW 3949   7.935   1.605   0.423  0.6002 -0.1153  0.1475
  332SOL    HW1 3950   7.904   1.540   0.487 -0.0705 -0.7186 -0.7417
  332SOL    HW2 3951   7.922   1.689   0.466  0.2858 -0.5089  0.8536
  333SOL     OW 3952   1.558   5.613   5.740  0.4757  0.1487 -0.0797
  333SOL    HW1 3953   1.505   5.582   5.667 -0.4752 -1.1809  1.1297
  333SOL    HW2 3954   1.606   5.536   5.770  0.1206  0.4306  1.2879
  334SOL     OW 3955   7.630   1.329   6.681 -0.1348 -0.0363  0.0998
  334SOL    HW1 3956   7.622   1.241   6.717 -1.2279 -1.0523 -2.4005
  334SOL    HW2 3957   7.542   1.365   6.685 -0.0230  0.3030 -0.3409
  335SOL     OW 3958   0.457   0.842   1.610 -0.5816  0.4981  0.4063
  335SOL    HW1 3959   0.397   0.768   1.624 -1.9962  1.4133 -0.5363
  335SOL    HW2 3960   0.401   0.912   1.576  1.0149  1.4359 -0.4027
  336SOL     OW 3961   3.536   4.536   5.939 -0.0610 -0.0806 -0.2296
  336SOL    HW1 3962   3.510   4.477   6.010 -1.4133  0.1199 -0.5332
  336SOL    HW2 3963   3.470   4.605   5.940 -0.2907 -0.2364 -1.8698
  337SOL     OW 3964   3.241   7.829   3.100  0.1173 -0.2825 -0.0735
  337SOL    HW1 3965   3.186   7.755   3.075  0.0005  0.2467 -1.4552
  337SOL    HW2 3966   3.241   7.827   3.196  0.4515 -2.2918 -0.0719
  338SOL     OW 3967   6.251   2.586   6.204 -0.1066 -0.2050  0.3270
  338SOL    HW1 3968   6.167   2.541   6.196 -0.3454  0.2534  0.2261
  338SOL    HW2 3969   6.316   2.516   6.200 -0.4391 -0.4813 -0.5502
  339SOL     OW 3970   7.576   7.079   6.295 -0.3755 -0.6687 -0.2189
  339SOL    HW1 3971   7.583   7.010   6.229  2.5017 -0.4373 -0.2849
  339SOL    HW2 3972   7.513   7.141   6.258 -1.7867 -2.3990 -0.8926
  340SOL     OW 3973   5.010   1.250   3.546 -0.1852  0.3941 -0.3324
  340SOL    HW1 3974   5.039   1.201   3.469  0.2076 -1.0739  0.6894
  340SOL    HW2 3975   5.086   1.251   3.604 -0.5739  1.1790  0.1737
  341SOL     OW 3976   6.099   2.604   4.832 -0.3465  0.4968 -0.2152
  341SOL    HW1 3977   6.127   2.644   4.750 -0.1247  0.9068  0.0611
  341SOL    HW2 3978   6.051   2.673   4.878 -0.5300  0.2495 -0.0269
  342SOL     OW 3979   7.359   5.253   0.219  0.1152  0.4783  0.0458
  342SOL    HW1 3980   7.393   5.265   0.131  2.3122 -1.0693  0.5942
  342SOL    HW2 3981   7.374   5.336   0.263  2.6426  0.1214  0.0167
  343SOL     OW 3982   3.672   7.992   4.224 -0.1130  0.1283 -0.3786
  343SOL    HW1 3983   3.662   8.087   4.219  1.8997  0.4950  1.1717
  343SOL    HW2 3984   3.690   7.975   4.316  1.0613 -1.5698 -0.8771
  344SOL     OW 3985   4.710   1.109   3.352  0.4162  0.8377  0.2983
  344SOL    HW1 3986   4.802   1.106   3.325 -0.2994 -1.1323 -2.3153
  344SOL    HW2 3987   4.661   1.078   3.275 -2.1849 -1.3859  2.6063
  345SOL     OW 3988   5.157   6.340   2.027 -0.3667  0.3295 -0.5218
  345SOL    HW1 3989   5.112   6.299   1.954  1.0537  0.6888 -1.6300
  345SOL    HW2 3990   5.156   6.433   2.007  1.2896  0.3018 -0.8418
  346SOL     OW 3991   0.495   1.012   8.086  0.1928 -0.4064 -0.3979
  346SOL    HW1 3992   0.562   0.984   8.024 -0.1157 -0.4051 -0.7361
  346SOL    HW2 3993   0.432   1.060   8.033 -0.5049 -1.1192 -0.2332
  347SOL     OW 3994   6.129   6.421   5.417 -0.3115  0.0528  0.4471
  347SOL    HW1 3995   6.168   6.394   5.500 -0.2185 -0.2939  0.2944
  347SOL    HW2 3996   6.035   6.422   5.434 -0.4832 -2.1687 -0.0146
  348SOL     OW 3997   5.234   1.614   4.657 -0.0318 -0.0382  0.2393
  348SOL    HW1 3998   5.225   1.634   4.564 -0.3620  0.3159  0.3433
  348SOL    HW2 3999   5.295   1.680   4.691  0.8078 -0.7250  0.0974
  349SOL     OW 4000   6.441   1.370   4.847 -0.3799  0.4677  0.1747
  349SOL    HW1 4001   6.482   1.303   4.794 -0.7310 -0.6486  1.2564
  349SOL    HW2 4002   6.497   1.447   4.837  0.9919 -0.4911  0.2433
  350SOL     OW 4003   3.994   5.344   2.549  0.1910  0.8304 -0.5154
  350SOL    HW1 4004   3.974   5.427   2.593 -0.7223  1.3275 -1.8097
  350SOL    HW2 4005   4.070   5.364   2.495 -0.4233  1.0279 -1.3285
  351SOL     OW 4006   4.931   7.503   0.780 -0.0563 -0.1044  0.0682
  351SOL    HW1 4007   4.996   7.506   0.850  1.2795  1.4417 -1.1645
  351SOL    HW2 4008   4.909   7.410   0.773  0.8718 -0.4790  1.5501
  352SOL     OW 4009   5.209   6.346   3.283  0.0659  0.1958  0.6958
  352SOL    HW1 4010   5.236   6.269   3.232  1.8847  0.9658  0.3947
  352SOL    HW2 4011   5.121   6.326   3.314  0.0088 -1.4629 -0.4451
  353SOL     OW 4012   2.525   5.776   2.494  0.0210  0.2107  0.5442
  353SOL    HW1 4013   2.571   5.757   2.412 -2.2353  0.4579 -0.8673
  353SOL    HW2 4014   2.472   5.853   2.475 -1.2392 -0.2641  1.9560
  354SOL     OW 4015   6.857   2.517   2.752 -0.9156  0.3764  0.1428
  354SOL    HW1 4016   6.841   2.510   2.658  0.1515  1.3123 -0.1363
  354SOL    HW2 4017   6.911   2.441   2.773 -0.1452  0.8028 -0.2554
  355SOL     OW 4018   5.754   3.485   4.070  0.2157 -0.3192  0.0272
  355SOL    HW1 4019   5.728   3.546   4.139  0.6036 -0.9101  0.6909
  355SOL    HW2 4020   5.671   3.453   4.034  0.0160 -0.4055  0.5617
  356SOL     OW 4021   4.240   0.441   0.540  0.3085  0.0306 -0.1749
  356SOL    HW1 4022   4.327   0.408   0.561 -0.4376 -1.1924  1.1607
  356SOL    HW2 4023   4.231   0.521   0.591  0.6813  0.2227 -0.4060
  357SOL     OW 4024   2.628   6.968   3.373 -0.2028  0.3875 -0.4070
  357SOL    HW1 4025   2.603   7.050   3.331 -0.0323  0.1568 -0.9716
  357SOL    HW2 4026   2.584   6.970   3.458 -1.5850  0.3129 -1.0859
  358SOL     OW 4027   1.700   5.475   3.694 -0.0032 -0.1991  0.5254
  358SOL    HW1 4028   1.672   5.475   3.602  0.4462 -0.6651  0.3790
  358SOL    HW2 4029   1.766   5.405   3.698 -0.9105 -1.0205  1.4725
  359SOL     OW 4030   3.461   5.853   3.913  0.2418  0.0179  0.2270
  359SOL    HW1 4031   3.523   5.872   3.843 -0.5657 -0.0222 -0.5178
  359SOL    HW2 4032   3.509   5.871   3.993  0.7414  1.4372 -0.3653
  360SOL     OW 4033   1.733   8.056   3.431  0.7554  0.2003  0.1429
  360SOL    HW1 4034   1.746   8.002   3.509  2.2371  3.3950  2.3120
  360SOL    HW2 4035   1.820   8.087   3.407  0.2784 -0.2821 -2.5966
  361SOL     OW 4036   7.144   0.048   1.908  0.4620  1.1110  0.2183
  361SOL    HW1 4037   7.169   0.004   1.989 -0.3613  0.6483  0.2310
  361SOL    HW2 4038   7.055   0.079   1.924  0.9060  2.5332  0.1036
  362SOL     OW 4039   4.248   4.453   5.183  0.0526  0.1577 -0.3328
  362SOL    HW1 4040   4.326   4.397   5.186  0.1285  0.2850  0.1759
  362SOL    HW2 4041   4.209   4.444   5.270  0.1855  1.0513 -0.1673
  363SOL     OW 4042   3.895   2.103   7.842  0.1590 -0.5794  0.1668
  363SOL    HW1 4043   3.877   2.141   7.928 -0.2487  0.2515 -0.2773
  363SOL    HW2 4044   3.823   2.131   7.786  1.7247  1.1356 -1.1284
  364SOL     OW 4045   5.303   7.778   5.142  1.0078 -0.3374  0.1174
  364SOL    HW1 4046   5.260   7.845   5.090 -0.2435 -0.0592  1.4416
  364SOL    HW2 4047   5.322   7.820   5.226 -0.1806 -1.7122  1.1300
  365SOL     OW 4048   5.821   4.106   7.122  0.0274 -0.4037 -0.7677
  365SOL    HW1 4049   5.748   4.153   7.164 -0.5379 -2.4758  0.7176
  365SOL    HW2 4050   5.876   4.175   7.086 -0.0208  1.4949  2.4777
  366SOL     OW 4051   6.022   4.897   6.901  0.3276  0.5911  0.0352
  366SOL    HW1 4052   6.051   4.806   6.893 -0.1058  0.2969  1.5443
  366SOL    HW2 4053   5.991   4.904   6.991 -0.8724  1.8912 -0.4516
  367SOL     OW 4054   7.513   4.320   4.148 -0.4961  0.1299  0.2683
  367SOL    HW1 4055   7.501   4.330   4.243 -0.4866 -2.0745  0.5564
  367SOL    HW2 4056   7.463   4.242   4.126  0.4621 -0.0634 -1.3463
  368SOL     OW 4057   0.924   5.722   0.528  0.0190 -0.5090  0.3572
  368SOL    HW1 4058   0.833   5.751   0.519 -0.1300 -1.0159  0.1493
  368SOL    HW2 4059   0.936   5.709   0.622  0.0771  0.1834  0.4454
  369SOL     OW 4060   3.739   0.945   3.208  0.0947 -0.4881  0.2423
  369SOL    HW1 4061   3.830   0.965   3.232 -0.4940  0.4217  1.8337
  369SOL    HW2 4062   3.689   0.956   3.289 -1.3183 -1.9112 -0.3747
  370SOL     OW 4063   4.952   1.340   0.005 -0.7913  0.5118 -0.0466
  370SOL    HW1 4064   4.940   1.405   0.074  1.2771  0.7139  0.1906
  370SOL    HW2 4065   5.022   1.284   0.037 -1.2468 -0.6849 -1.0793
  371SOL     OW 4066   2.142   0.490   4.359 -0.2079 -0.2658  0.3694
  371SOL    HW1 4067   2.174   0.502   4.448  1.2471  0.2550 -0.1977
  371SOL    HW2 4068   2.113   0.577   4.332  1.5603  0.1049 -0.4591
  372SOL     OW 4069   6.091   0.114   5.227  0.3629  0.0866  0.6092
  372SOL    HW1 4070   6.132   0.163   5.157  0.1791 -2.5550 -1.5195
  372SOL    HW2 4071   6.161   0.060   5.264  0.0512 -0.0215  1.0572
  373SOL     OW 4072   1.731   4.272   0.790 -0.4718 -0.6390  0.0450
  373SOL    HW1 4073   1.728   4.361   0.824 -1.1101 -0.0589 -1.4560
  373SOL    HW2 4074   1.814   4.268   0.742 -1.1309 -0.3256 -1.1745
  374SOL     OW 4075   0.961   5.934   2.337 -0.1750 -0.1851  0.0090
  374SOL    HW1 4076   0.883   5.961   2.289  0.4362  0.6165 -0.5639
  374SOL    HW2 4077   0.985   5.850   2.298 -0.0872  0.1254 -0.6218
  375SOL     OW 4078   7.658   1.021   2.068 -0.0825 -0.3587  0.1369
  375SOL    HW1 4079   7.650   0.969   2.148  1.2485 -0.7823  0.0204
  375SOL    HW2 4080   7.620   0.967   1.999 -1.6223  0.1811  0.5193
  376SOL     OW 4081   1.376   3.732   1.188 -0.0864  0.5532 -0.0877
  376SOL    HW1 4082   1.324   3.751   1.109  1.2985 -0.3156 -1.2669
  376SOL    HW2 4083   1.463   3.766   1.168  1.0648 -2.1877 -0.1590
  377SOL     OW 4084   0.367   3.759   7.368 -0.1783 -0.1919 -0.8429
  377SOL    HW1 4085   0.461   3.740   7.362 -0.8803 -4.7442 -0.7040
  377SOL    HW2 4086   0.334   3.744   7.280 -0.7947  2.4757 -1.1724
  378SOL     OW 4087   7.195   6.782   7.800 -0.5569  0.6853  0.2961
  378SOL    HW1 4088   7.121   6.824   7.755 -2.0978 -0.7798  1.3547
  378SOL    HW2 4089   7.159   6.700   7.834  1.9381 -0.7848 -0.3618
  379SOL     OW 4090   1.049   4.607   4.659 -0.8287 -0.7741 -0.0079
  379SOL    HW1 4091   1.079   4.616   4.750  0.1425 -0.9243 -0.3027
  379SOL    HW2 4092   0.973   4.666   4.653 -0.2874  0.0148  0.6325
  380SOL     OW 4093   4.682   7.786   7.840 -0.2070 -0.0275  0.2481
  380SOL    HW1 4094   4.644   7.865   7.877 -0.1485  0.4224 -0.6384
  380SOL    HW2 4095   4.730   7.746   7.913 -3.0895 -1.1272  1.7245
  381SOL     OW 4096   7.859   4.009   7.434 -0.1482 -0.5525 -0.1066
  381SOL    HW1 4097   7.869   4.083   7.375 -2.2348  0.9791  1.3098
  381SOL    HW2 4098   7.815   3.942   7.381  1.2993 -0.6183 -1.2607
  382SOL     OW 4099   2.500   4.142   6.613 -0.4089 -0.1408 -0.1270
  382SOL    HW1 4100   2.595   4.131   6.610 -0.4251 -0.8609  1.4823
  382SOL    HW2 4101   2.470   4.080   6.679 -1.9700  0.3428 -0.3407
  383SOL     OW 4102   4.806   3.975   2.855  0.4268 -0.2608  0.1015
  383SOL    HW1 4103   4.731   3.950   2.909  0.7158 -1.3823  0.0168
  383SOL    HW2 4104   4.770   3.985   2.767  0.3679 -0.7770  0.0646
  384SOL     OW 4105   0.429   3.935   3.758  0.3778 -0.4837 -0.2097
  384SOL    HW1 4106   0.334   3.941   3.769  0.2192  0.4283 -1.7878
  384SOL    HW2 4107   0.456   4.025   3.739  1.7164 -0.5595  1.1939
  385SOL     OW 4108   5.671   5.226   3.913 -0.1318  0.0659 -0.0708
  385SOL    HW1 4109   5.578   5.209   3.922 -0.1297  0.3885  0.6308
  385SOL    HW2 4110   5.679   5.321   3.920  0.1477  0.1324 -1.1458
  386SOL     OW 4111   4.935   7.893   0.809  0.0154  0.2386 -0.6376
  386SOL    HW1 4112   4.972   7.885   0.897  1.0271  2.5295 -0.7961
  386SOL    HW2 4113   4.999   7.850   0.752 -0.1705 -0.4043 -0.3659
  387SOL     OW 4114   4.002   2.756   1.367  0.3328  0.6142 -0.2216
  387SOL    HW1 4115   3.909   2.763   1.388  0.7718 -0.2551  2.2926
  387SOL    HW2 4116   4.043   2.832   1.408  1.2329 -1.1742  2.4386
  388SOL     OW 4117   4.698   2.523   4.362 -0.3138 -0.3535  0.3292
  388SOL    HW1 4118   4.670   2.501   4.273  0.6071  0.8526 -0.2867
  388SOL    HW2 4119   4.664   2.452   4.416 -0.4010 -1.4105 -1.0664
  389SOL     OW 4120   7.474   0.588   5.354 -0.0315 -0.5664  0.2428
  389SOL    HW1 4121   7.446   0.574   5.445  0.4568  2.0630  0.8716
  389SOL    HW2 4122   7.393   0.610   5.308  0.0872  0.8624  0.6843
  390SOL     OW 4123   6.608   6.868   4.791 -0.4934  0.5492  0.4463
  390SOL    HW1 4124   6.547   6.937   4.766 -1.5423  1.1231  3.9524
  390SOL    HW2 4125   6.689   6.915   4.813 -1.0588  0.7059  2.3783
  391SOL     OW 4126   3.534   7.564   5.574 -0.2088  0.2246 -0.0869
  391SOL    HW1 4127   3.556   7.609   5.492  0.8209 -1.2177 -0.6569
  391SOL    HW2 4128   3.449   7.524   5.558 -0.3926  0.6449 -0.1539
  392SOL     OW 4129   3.488   2.436   7.266 -0.2120  0.0444 -0.1059
  392SOL    HW1 4130   3.532   2.411   7.184 -1.3951  0.0350 -0.7677
  392SOL    HW2 4131   3.479   2.353   7.313 -0.9539 -0.2335 -0.7051
  393SOL     OW 4132   3.231   6.549   0.589 -0.1657 -0.1138 -0.0564
  393SOL    HW1 4133   3.145   6.542   0.549 -0.6629  0.2738  0.9121
  393SOL    HW2 4134   3.290   6.567   0.516 -1.0354  0.5093 -0.6292
  394SOL     OW 4135   2.033   8.002   6.662 -0.7748  0.3972 -0.4974
  394SOL    HW1 4136   2.063   7.931   6.719  0.0769  2.0431  1.2035
  394SOL    HW2 4137   2.011   7.959   6.580  1.4723 -1.5936 -0.1594
  395SOL     OW 4138   4.629   4.658   0.679  0.0158 -0.0257  0.0561
  395SOL    HW1 4139   4.720   4.631   0.691  0.6141  1.0656 -1.6069
  395SOL    HW2 4140   4.613   4.720   0.750  0.9662  0.6487 -0.2956
  396SOL     OW 4141   5.752   6.321   7.211  0.5311  0.3001 -0.6387
  396SOL    HW1 4142   5.715   6.240   7.175 -0.7334  0.3185  0.5149
  396SOL    HW2 4143   5.749   6.383   7.139 -1.2692  0.1460 -0.7537
  397SOL     OW 4144   6.163   0.166   6.644  0.1388 -0.1800 -0.1337
  397SOL    HW1 4145   6.104   0.170   6.569  1.9929 -1.3683 -1.7632
  397SOL    HW2 4146   6.210   0.249   6.642  0.7963 -0.5485 -0.8827
  398SOL     OW 4147   5.664   3.880   1.307  0.4941 -0.9758  0.2801
  398SOL    HW1 4148   5.586   3.826   1.302 -0.2787  0.2082 -1.1545
  398SOL    HW2 4149   5.736   3.820   1.286 -0.2614 -1.6125 -0.5794
  399SOL     OW 4150   0.317   2.562   7.285  0.4492 -0.4199 -0.1543
  399SOL    HW1 4151   0.238   2.584   7.335 -1.5039 -0.3186 -3.0634
  399SOL    HW2 4152   0.355   2.647   7.261 -0.0261 -0.4091 -0.8930
  400SOL     OW 4153   4.679   6.894   3.878 -0.3431  0.0191 -0.4447
  400SOL    HW1 4154   4.717   6.951   3.810  1.4867  0.9984  1.3078
  400SOL    HW2 4155   4.753   6.870   3.933 -1.5652 -1.8790  0.4519
  401SOL     OW 4156   6.783   3.508   6.289  0.0298 -0.6056  0.1971
  401SOL    HW1 4157   6.827   3.515   6.374 -0.5313  0.6284  0.4091
  401SOL    HW2 4158   6.691   3.494   6.311  0.0083 -1.1510 -0.2242
  402SOL     OW 4159   7.086   1.067   3.033  0.3417  0.1168  0.8502
  402SOL    HW1 4160   7.160   1.064   3.094  2.0593 -3.6645 -1.0771
  402SOL    HW2 4161   7.011   1.037   3.086  0.7406  1.2969  2.1459
  403SOL     OW 4162   1.550   1.446   5.637  0.2738  0.8001 -0.4039
  403SOL    HW1 4163   1.628   1.489   5.603  0.1248  0.1335 -1.6348
  403SOL    HW2 4164   1.494   1.432   5.560 -1.2787  1.6742  0.5060
  404SOL     OW 4165   7.952   1.157   6.772 -0.1906  0.2159  0.0833
  404SOL    HW1 4166   7.988   1.225   6.715 -0.1593 -1.3165 -1.8111
  404SOL    HW2 4167   8.023   1.095   6.784 -0.4400  0.1228  1.2023
  405SOL     OW 4168   3.928   5.560   6.597 -0.1457 -0.1423 -0.2141
  405SOL    HW1 4169   3.980   5.512   6.662  0.3571  1.2047  0.4107
  405SOL    HW2 4170   3.981   5.558   6.517  0.6362  0.7281  0.2608
  406SOL     OW 4171   4.148   2.772   2.893 -0.1904  1.1015  0.0409
  406SOL    HW1 4172   4.157   2.866   2.880  2.1989  0.8523 -0.6503
  406SOL    HW2 4173   4.232   2.745   2.930 -0.3205 -0.9345 -0.9972
  407SOL     OW 4174   4.306   6.677   0.230  0.1540 -0.3806  0.1589
  407SOL    HW1 4175   4.278   6.677   0.138 -2.2743 -1.1304  0.8261
  407SOL    HW2 4176   4.232   6.712   0.278  1.8700  1.2636  1.7717
  408SOL     OW 4177   5.012   7.992   3.822  0.5241  0.5573 -0.8965
  408SOL    HW1 4178   5.068   7.944   3.762 -0.5843 -0.7101 -0.9704
  408SOL    HW2 4179   5.062   8.070   3.846  1.9637 -0.1419 -1.5576
  409SOL     OW 4180   4.603   0.528   4.895  0.1110 -0.0695 -0.1712
  409SOL    HW1 4181   4.510   0.531   4.872  0.4412  1.4738 -1.4795
  409SOL    HW2 4182   4.649   0.526   4.811  1.2793  0.1852  0.4272
  410SOL     OW 4183   4.927   4.824   5.350  0.0256 -0.0738 -0.3302
  410SOL    HW1 4184   4.924   4.780   5.435 -0.3389 -0.6148 -0.6131
  410SOL    HW2 4185   5.015   4.860   5.344  0.1067 -0.1753  0.2048
  411SOL     OW 4186   7.031   2.721   7.849  0.1106 -0.2661 -0.2214
  411SOL    HW1 4187   6.963   2.737   7.915 -0.2466  1.0735 -0.8856
  411SOL    HW2 4188   6.982   2.693   7.771  0.2303  1.4333 -0.9349
  412SOL     OW 4189   8.099   3.866   5.286 -0.5621  0.1693 -0.0199
  412SOL    HW1 4190   8.127   3.868   5.378 -1.0029 -1.2374  0.1726
  412SOL    HW2 4191   8.151   3.933   5.243  1.0850 -0.5026  0.8605
  413SOL     OW 4192   4.095   3.920   5.686 -0.2963 -0.7272 -0.2198
  413SOL    HW1 4193   4.069   3.932   5.594 -1.3608 -0.2946  0.1279
  413SOL    HW2 4194   4.059   3.835   5.710 -0.6690 -0.5063  0.0128
  414SOL     OW 4195   4.841   5.392   8.080 -0.6273 -0.1341 -0.0800
  414SOL    HW1 4196   4.768   5.446   8.111  0.1100  0.7290  0.1882
  414SOL    HW2 4197   4.811   5.359   7.995 -0.8711  1.2409 -0.5702
  415SOL     OW 4198   0.525   0.094   0.842  0.0442 -0.1837  0.4066
  415SOL    HW1 4199   0.444   0.046   0.823  0.6513 -1.6271  1.3154
  415SOL    HW2 4200   0.495   0.175   0.884 -0.9334 -1.4743  2.3834
  416SOL     OW 4201   5.546   5.013   0.089 -0.7756  0.1949  0.2021
  416SOL    HW1 4202   5.475   5.070   0.120 -1.7493  0.8353 -2.8430
  416SOL    HW2 4203   5.501   4.932   0.063  0.1035 -0.6191  1.1418
  417SOL     OW 4204   3.542   0.238   3.987 -0.3178  0.3365  0.0232
  417SOL    HW1 4205   3.474   0.205   3.929 -0.8787 -1.3323  1.5555
  417SOL    HW2 4206   3.618   0.253   3.929 -0.8539 -1.2144 -1.1518
  418SOL     OW 4207   1.970   2.735   5.736  0.6507  0.1109 -0.0984
  418SOL    HW1 4208   1.908   2.667   5.763  1.6029 -0.1440  1.5784
  418SOL    HW2 4209   2.030   2.690   5.676  0.6555 -0.2534  0.1761
  419SOL     OW 4210   7.398   7.882   2.955 -0.1257  0.3528 -0.2781
  419SOL    HW1 4211   7.361   7.800   2.923 -0.7730  0.8711 -0.9087
  419SOL    HW2 4212   7.456   7.911   2.885 -0.1239  0.5752 -0.1860
  420SOL     OW 4213   3.484   3.244   6.270  0.0848 -0.1259 -0.2861
  420SOL    HW1 4214   3.514   3.163   6.312  2.6960 -0.1074 -1.8786
  420SOL    HW2 4215   3.388   3.237   6.269  0.2091 -3.6948 -1.2413
  421SOL     OW 4216   6.926   0.188   3.713  0.0503 -0.3331  0.0966
  421SOL    HW1 4217   6.926   0.194   3.809  1.6986 -1.0143  0.1853
  421SOL    HW2 4218   6.890   0.271   3.684  4.0107  2.1338  1.3198
  422SOL     OW 4219   7.144   1.499   0.890 -0.0402  0.6238  0.0098
  422SOL    HW1 4220   7.195   1.573   0.924  0.4695  0.6978 -0.8639
  422SOL    HW2 4221   7.099   1.464   0.966  3.4818 -1.2102  1.5117
  423SOL     OW 4222   0.450   5.175   3.883 -0.3502 -0.0251 -0.7982
  423SOL    HW1 4223   0.392   5.113   3.839 -1.7468  1.3163 -0.9349
  423SOL    HW2 4224   0.428   5.167   3.976 -0.0722 -0.1753 -0.7430
  424SOL     OW 4225   1.175   5.376   4.595  0.1601 -0.4147  1.0792
  424SOL    HW1 4226   1.257   5.373   4.645  0.5553  0.4038  0.4925
  424SOL    HW2 4227   1.138   5.462   4.614 -0.3048 -0.5763  0.9198
  425SOL     OW 4228   5.715   7.732   7.077  0.4904  0.0324 -0.2788
  425SOL    HW1 4229   5.711   7.666   7.008  0.9817  0.4482 -0.7196
  425SOL    HW2 4230   5.691   7.814   7.033  0.2185  0.2053  0.1821
  426SOL     OW 4231   2.649   5.881   7.034 -0.2665  0.4827 -0.0132
  426SOL    HW1 4232   2.567   5.893   7.082 -0.4700 -0.4562 -0.1015
  426SOL    HW2 4233   2.688   5.803   7.072  0.5188  0.8304 -0.0861
  427SOL     OW 4234   1.074   8.134   6.640 -0.5521  0.6075  0.1836
  427SOL    HW1 4235   1.099   8.144   6.732  1.4585  0.6444 -0.3085
  427SOL    HW2 4236   1.133   8.066   6.607 -1.9643 -0.1627 -0.8317
  428SOL     OW 4237   1.687   7.777   1.780  0.1110  0.3777 -0.3493
  428SOL    HW1 4238   1.671   7.830   1.857 -2.8828 -1.0912  0.1641
  428SOL    HW2 4239   1.610   7.721   1.772  1.6329 -1.6045 -2.7220
  429SOL     OW 4240   0.115   1.563   4.994  0.2591 -0.3428  0.2411
  429SOL    HW1 4241   0.208   1.551   4.971  0.3545 -0.1047  0.4850
  429SOL    HW2 4242   0.067   1.517   4.926  0.4723  1.8182 -1.5012
  430SOL     OW 4243   1.200   5.981   1.138  0.1898  0.3628  0.4685
  430SOL    HW1 4244   1.202   5.994   1.233 -1.0962  0.1233  0.5553
  430SOL    HW2 4245   1.121   6.027   1.110  0.2976  0.0237 -0.4179
  431SOL     OW 4246   5.587   4.013   4.778  0.0630  0.8433  0.4870
  431SOL    HW1 4247   5.660   4.026   4.717 -0.1869 -0.4059 -0.0975
  431SOL    HW2 4248   5.628   4.010   4.865  0.6762  0.4170  0.1849
  432SOL     OW 4249   0.673   4.085   7.755 -0.5107 -0.3603  0.0451
  432SOL    HW1 4250   0.594   4.115   7.710 -0.4532 -1.6243 -0.9372
  432SOL    HW2 4251   0.674   3.990   7.742  0.5883 -0.5002  0.9986
  433SOL     OW 4252   3.556   7.411   1.722  0.3646  0.6768 -0.5341
  433SOL    HW1 4253   3.578   7.335   1.777  1.5352  2.0057  0.9257
  433SOL    HW2 4254   3.465   7.396   1.695  0.4521 -1.0499  0.0219
  434SOL     OW 4255   1.139   7.848   7.565  0.5524  0.1103 -0.0886
  434SOL    HW1 4256   1.164   7.769   7.613  0.0730  0.3873  0.6358
  434SOL    HW2 4257   1.184   7.919   7.612 -0.4219  0.4545  0.3469
  435SOL     OW 4258   0.272   4.583   2.245  0.1165 -0.5181  0.0637
  435SOL    HW1 4259   0.248   4.497   2.210  1.4152 -0.6963 -0.4416
  435SOL    HW2 4260   0.252   4.644   2.175 -0.2680 -0.4819  0.2060
  436SOL     OW 4261   7.625   7.700   4.368 -0.4872  0.5068  0.5879
  436SOL    HW1 4262   7.581   7.644   4.432  0.8018 -1.0962  0.1486
  436SOL    HW2 4263   7.577   7.686   4.287 -0.3761  0.2873  0.5583
  437SOL     OW 4264   0.085   7.711   0.141  0.0300  0.2905 -0.4614
  437SOL    HW1 4265   0.091   7.629   0.092  1.3150 -0.9711  1.6468
  437SOL    HW2 4266   0.011   7.698   0.200  0.1966  0.6403 -0.1718
  438SOL     OW 4267   0.823   7.140   3.641 -0.6934  0.5494  0.1504
  438SOL    HW1 4268   0.918   7.131   3.640 -0.8483 -1.9573 -2.1904
  438SOL    HW2 4269   0.801   7.180   3.557 -1.7765 -0.3879 -0.0406
  439SOL     OW 4270   3.756   6.011   2.605 -0.1277 -0.0582  0.1266
  439SOL    HW1 4271   3.680   6.068   2.619 -0.3333 -0.2256 -0.2963
  439SOL    HW2 4272   3.817   6.036   2.674 -1.1261 -0.8905  1.3681
  440SOL     OW 4273   7.830   7.625   4.839  0.3618  0.1804  0.3395
  440SOL    HW1 4274   7.922   7.616   4.861  0.1090 -0.7329  1.1247
  440SOL    HW2 4275   7.829   7.675   4.758  1.6114 -0.8831 -0.3682
  441SOL     OW 4276   4.766   7.897   3.855 -0.1154 -0.4131  0.1308
  441SOL    HW1 4277   4.852   7.929   3.827 -0.4975  0.5061 -0.0341
  441SOL    HW2 4278   4.784   7.845   3.933  0.3952  1.5537  1.4054
  442SOL     OW 4279   3.344   4.716   1.283 -0.3236 -0.0119 -0.0612
  442SOL    HW1 4280   3.334   4.675   1.198  3.0776  1.1775 -1.2178
  442SOL    HW2 4281   3.393   4.652   1.335 -0.3327  0.1803  0.1857
  443SOL     OW 4282   0.290   0.636   7.858  0.1395  0.1145  0.7052
  443SOL    HW1 4283   0.273   0.621   7.951  2.1087  2.6701  1.5876
  443SOL    HW2 4284   0.221   0.697   7.830 -0.2860 -0.4369  0.5212
  444SOL     OW 4285   7.377   0.579   3.173  0.3931  0.6353  0.3817
  444SOL    HW1 4286   7.414   0.491   3.185 -1.3700 -0.0647  0.8867
  444SOL    HW2 4287   7.301   0.565   3.116 -0.9029  1.5595  1.8121
  445SOL     OW 4288   1.619   0.529   5.306  0.1244 -0.2646  0.2595
  445SOL    HW1 4289   1.534   0.546   5.347  0.1051  0.0955  0.0724
  445SOL    HW2 4290   1.624   0.433   5.301  0.8196 -0.3930  2.5114
  446SOL     OW 4291   5.055   1.518   3.972  0.2294 -0.6706  0.0374
  446SOL    HW1 4292   5.013   1.591   4.017  1.0845  0.2404 -0.5943
  446SOL    HW2 4293   5.031   1.530   3.880 -1.6254 -2.5929  0.1967
  447SOL     OW 4294   7.825   5.575   3.877 -0.2144 -0.9034  0.1009
  447SOL    HW1 4295   7.762   5.629   3.925  1.7532  1.5325  0.1623
  447SOL    HW2 4296   7.801   5.586   3.785  0.3633  0.4594  0.0810
  448SOL     OW 4297   4.141   7.964   3.118  0.3803  0.1388 -0.1904
  448SOL    HW1 4298   4.067   7.906   3.098  0.7699 -0.6496  0.6296
  448SOL    HW2 4299   4.204   7.909   3.164  1.6552  0.7081 -1.1694
  449SOL     OW 4300   4.580   0.986   0.464  0.7126  0.2123  0.0264
  449SOL    HW1 4301   4.620   1.060   0.417  0.4215  1.4678  1.6824
  449SOL    HW2 4302   4.575   1.014   0.555 -1.0091 -1.1748  0.4285
  450SOL     OW 4303   2.928   0.985   3.771 -0.1493 -0.2120 -0.7214
  450SOL    HW1 4304   2.893   0.896   3.768  0.9201 -0.6746 -0.2261
  450SOL    HW2 4305   3.015   0.975   3.810 -0.7634  1.2821  1.1986
  451SOL     OW 4306   0.123   7.940   2.563 -0.0531 -0.2840  0.6127
  451SOL    HW1 4307   0.100   7.893   2.643 -0.8018 -1.3502 -0.1873
  451SOL    HW2 4308   0.042   7.943   2.512  0.3928  0.4040 -0.0878
  452SOL     OW 4309   5.195   6.690   7.835 -0.0194  0.0417  0.1406
  452SOL    HW1 4310   5.206   6.680   7.740  0.6820 -0.8973  0.2975
  452SOL    HW2 4311   5.164   6.604   7.864  0.0505  0.2363  0.8070
  453SOL     OW 4312   6.450   5.723   3.948 -0.2813 -1.2041  0.2392
  453SOL    HW1 4313   6.372   5.689   3.993 -0.9223  0.9979  0.9102
  453SOL    HW2 4314   6.524   5.684   3.996 -0.9600 -2.1911  0.5089
  454SOL     OW 4315   2.776   4.251   3.189 -0.0663  0.2916  0.1291
  454SOL    HW1 4316   2.807   4.324   3.136 -1.2484  2.1295  1.8419
  454SOL    HW2 4317   2.815   4.173   3.148  0.2332  1.7243 -2.5095
  455SOL     OW 4318   3.181   7.681   7.317  0.3147  0.1993 -0.4156
  455SOL    HW1 4319   3.151   7.607   7.370 -3.1065  2.4565  1.2160
  455SOL    HW2 4320   3.126   7.677   7.239 -1.3096  1.8815  0.5384
  456SOL     OW 4321   5.052   3.428   7.260 -0.2082  0.3179  0.0262
  456SOL    HW1 4322   5.038   3.378   7.340 -0.2230  0.8023  0.3326
  456SOL    HW2 4323   5.069   3.362   7.193  1.6602 -0.0567  0.7894
  457SOL     OW 4324   0.892   2.862   1.979  0.0723  0.2779  0.3953
  457SOL    HW1 4325   0.798   2.877   1.975  0.1100  1.2346  1.8968
  457SOL    HW2 4326   0.909   2.791   1.917 -1.3459  1.3477 -1.2931
  458SOL     OW 4327   5.731   4.061   2.702  0.1465  0.2788 -0.7942
  458SOL    HW1 4328   5.709   4.008   2.779  0.3940 -1.6892 -1.9868
  458SOL    HW2 4329   5.669   4.031   2.635  0.0049  1.8755 -1.4241
  459SOL     OW 4330   5.730   7.539   2.476 -0.4837  0.4537 -0.1992
  459SOL    HW1 4331   5.729   7.492   2.559  2.7552 -1.1629 -0.8848
  459SOL    HW2 4332   5.668   7.491   2.420 -0.3276 -0.4384  0.3721
  460SOL     OW 4333   5.687   1.163   3.329  0.2712 -0.1464 -0.6758
  460SOL    HW1 4334   5.637   1.202   3.257 -0.2908 -0.3298 -0.3919
  460SOL    HW2 4335   5.751   1.230   3.352  0.4109 -0.0570 -1.2941
  461SOL     OW 4336   6.553   1.700   2.086  0.3294  0.3805 -0.1372
  461SOL    HW1 4337   6.539   1.794   2.096  0.6092  0.5215 -1.0015
  461SOL    HW2 4338   6.512   1.678   2.003 -2.3700 -0.8394  1.3585
  462SOL     OW 4339   1.242   0.172   2.571 -0.0521 -0.0845 -0.4808
  462SOL    HW1 4340   1.184   0.213   2.636  1.3933  0.7453  0.3343
  462SOL    HW2 4341   1.261   0.242   2.508  1.7468  0.3212  0.4470
  463SOL     OW 4342   5.635   6.030   3.177 -0.4828 -0.2682 -0.0056
  463SOL    HW1 4343   5.707   6.067   3.229 -0.1929  0.3256 -0.8093
  463SOL    HW2 4344   5.677   5.965   3.120 -0.5484  0.1869 -0.5813
  464SOL     OW 4345   6.559   2.803   5.061  0.0890 -0.1528 -0.2054
  464SOL    HW1 4346   6.529   2.844   4.980  3.0933 -0.1337 -1.4061
  464SOL    HW2 4347   6.556   2.874   5.126 -1.1407  0.1542 -0.5628
  465SOL     OW 4348   0.103   1.991   1.550 -0.1420 -0.1828  0.1033
  465SOL    HW1 4349   0.189   1.950   1.553  0.2429  0.5536 -0.7771
  465SOL    HW2 4350   0.090   2.014   1.459 -1.1724 -0.0633  0.2694
  466SOL     OW 4351   6.848   2.743   7.083  0.2992  0.8123 -0.9915
  466SOL    HW1 4352   6.798   2.724   7.162  2.1271 -0.8645 -0.1383
  466SOL    HW2 4353   6.784   2.780   7.022 -1.4539  0.8600  0.7809
  467SOL     OW 4354   5.415   6.971   0.439 -0.3769 -0.0815  0.1873
  467SOL    HW1 4355   5.410   6.932   0.351  1.3568  1.5510 -0.7141
  467SOL    HW2 4356   5.491   6.929   0.479  0.7111  1.3376 -0.3041
  468SOL     OW 4357   3.283   2.510   0.251  0.0144  0.0261  0.1649
  468SOL    HW1 4358   3.256   2.533   0.340 -3.7928 -1.5386 -0.3986
  468SOL    HW2 4359   3.345   2.438   0.262 -0.2749 -0.0272  1.5584
  469SOL     OW 4360   7.422   6.851   6.192 -0.2297 -0.0968  0.3381
  469SOL    HW1 4361   7.381   6.934   6.215  0.7993  0.7009 -0.6259
  469SOL    HW2 4362   7.471   6.825   6.270 -1.7655 -0.6033  1.1842
  470SOL     OW 4363   6.274   2.678   7.971 -0.3550  0.4604 -0.1948
  470SOL    HW1 4364   6.278   2.769   7.942 -0.1456 -0.3016 -2.8177
  470SOL    HW2 4365   6.362   2.660   8.007 -0.0632  1.0135 -0.6193
  471SOL     OW 4366   2.858   5.212   7.579 -0.9465 -0.0324  0.0332
  471SOL    HW1 4367   2.863   5.117   7.584  0.2671 -0.0339 -0.8533
  471SOL    HW2 4368   2.772   5.230   7.540 -1.5852 -0.7033  1.0670
  472SOL     OW 4369   1.749   7.706   3.163  0.3001  0.0399  0.1351
  472SOL    HW1 4370   1.691   7.682   3.235  1.7930  0.7076  1.6415
  472SOL    HW2 4371   1.819   7.756   3.205  1.6159 -0.1698 -1.6963
  473SOL     OW 4372   4.781   1.480   4.022  0.2852 -0.3171  0.1121
  473SOL    HW1 4373   4.825   1.498   3.939  0.2608  0.1975  0.2095
  473SOL    HW2 4374   4.716   1.549   4.031  1.5828  0.7940  1.4871
  474SOL     OW 4375   0.581   2.342   4.535 -0.0193  0.2445 -0.3118
  474SOL    HW1 4376   0.569   2.403   4.462 -1.3611 -0.9292 -1.1134
  474SOL    HW2 4377   0.626   2.267   4.496 -0.5986 -0.3217  0.0994
  475SOL     OW 4378   5.283   4.714   1.289  0.1426  0.1522 -0.4680
  475SOL    HW1 4379   5.229   4.672   1.356 -0.1989  1.2149 -0.0445
  475SOL    HW2 4380   5.311   4.796   1.329 -1.2168  1.5009 -2.0776
  476SOL     OW 4381   7.211   6.142   5.697 -0.1159 -0.4522  0.0229
  476SOL    HW1 4382   7.186   6.234   5.693 -0.7400 -0.6385 -0.5951
  476SOL    HW2 4383   7.128   6.095   5.709  0.0041 -1.0311 -1.2833
  477SOL     OW 4384   6.699   3.692   5.257  0.1902 -0.0341 -0.2336
  477SOL    HW1 4385   6.659   3.777   5.274 -1.6339 -1.0820  1.1558
  477SOL    HW2 4386   6.682   3.641   5.337  2.3898 -1.3078 -0.4806
  478SOL     OW 4387   2.806   7.943   6.055  0.4037  0.4976  0.0539
  478SOL    HW1 4388   2.734   7.919   6.114 -0.7467  1.0099 -1.0828
  478SOL    HW2 4389   2.855   8.009   6.103 -1.0221  1.5426  0.1458
  479SOL     OW 4390   3.395   1.834   2.994 -0.4530 -0.4782 -0.2927
  479SOL    HW1 4391   3.304   1.806   2.989 -0.7820  0.4618  0.2807
  479SOL    HW2 4392   3.410   1.879   2.910 -0.8309  0.2462  0.0158
  480SOL     OW 4393   1.672   4.157   4.703 -0.0782 -0.2399 -0.4914
  480SOL    HW1 4394   1.680   4.215   4.779 -1.0830 -0.9742  0.1941
  480SOL    HW2 4395   1.714   4.076   4.730 -0.3867 -0.4857 -0.7402
  481SOL     OW 4396   1.878   1.169   0.259  0.0862 -0.4957 -0.8046
  481SOL    HW1 4397   1.836   1.181   0.344  0.9402  0.3757 -0.4827
  481SOL    HW2 4398   1.953   1.229   0.261  0.0572 -0.3872 -2.2196
  482SOL     OW 4399   2.016   3.094   0.879 -0.2344  0.5128 -0.2243
  482SOL    HW1 4400   1.926   3.095   0.847 -0.6801  2.8157  0.9034
  482SOL    HW2 4401   2.066   3.054   0.808 -1.9235  0.5284 -1.4899
  483SOL     OW 4402   2.387   1.949   1.069 -0.4293  0.5084 -0.1443
  483SOL    HW1 4403   2.391   1.950   1.165 -0.7966 -1.8089 -0.0287
  483SOL    HW2 4404   2.296   1.967   1.048 -0.6271 -0.2154  0.0410
  484SOL     OW 4405   6.165   5.959   0.693 -0.5891 -0.4713  0.4986
  484SOL    HW1 4406   6.239   5.997   0.740 -0.0423 -1.3302  0.3667
  484SOL    HW2 4407   6.094   5.957   0.757 -0.7849  1.1930  0.3579
  485SOL     OW 4408   6.315   7.254   1.896 -0.1476 -0.0853 -0.0152
  485SOL    HW1 4409   6.350   7.294   1.976  3.3711 -1.5379 -0.6710
  485SOL    HW2 4410   6.297   7.328   1.838  1.8024  0.8272  0.4599
  486SOL     OW 4411   1.690   3.141   4.015 -0.4551 -1.5194 -0.1664
  486SOL    HW1 4412   1.665   3.165   4.105 -1.4345  1.3633 -1.0950
  486SOL    HW2 4413   1.614   3.095   3.980 -0.2559 -2.2260  0.3150
  487SOL     OW 4414   1.711   4.138   6.602 -0.2769  0.1028  0.3122
  487SOL    HW1 4415   1.793   4.095   6.580  0.2947  1.4154 -0.2357
  487SOL    HW2 4416   1.685   4.100   6.686  0.1719 -1.3061 -0.1577
  488SOL     OW 4417   1.373   4.931   2.877  0.5731 -0.2878  0.4366
  488SOL    HW1 4418   1.441   4.935   2.809  2.3465 -4.2550  1.7036
  488SOL    HW2 4419   1.298   4.890   2.834  0.4223  0.3927  0.0409
  489SOL     OW 4420   4.497   6.243   3.569 -0.1308 -0.3610  0.3434
  489SOL    HW1 4421   4.569   6.201   3.616  0.6841 -1.4435 -1.7329
  489SOL    HW2 4422   4.452   6.172   3.525 -0.5500  0.6358 -0.9064
  490SOL     OW 4423   5.949   4.417   7.507 -0.1594 -0.0954  0.4944
  490SOL    HW1 4424   6.044   4.430   7.502 -0.1374 -0.5663 -0.7868
  490SOL    HW2 4425   5.928   4.423   7.600  1.0022  0.8395  0.7191
  491SOL     OW 4426   2.323   1.658   7.365  0.1645  0.3909 -0.1863
  491SOL    HW1 4427   2.359   1.585   7.415 -1.6804 -1.5519 -1.5180
  491SOL    HW2 4428   2.287   1.717   7.432 -0.2153 -0.9920  0.8918
  492SOL     OW 4429   7.010   7.088   3.775  0.2378 -0.2803  0.5230
  492SOL    HW1 4430   7.090   7.077   3.826  1.5145 -0.2313 -1.3825
  492SOL    HW2 4431   6.996   7.004   3.733 -0.0379  0.0650 -0.0881
  493SOL     OW 4432   6.071   1.094   5.384  1.1242 -0.1619 -0.4616
  493SOL    HW1 4433   6.165   1.076   5.394  1.1964  0.2682 -0.3457
  493SOL    HW2 4434   6.058   1.104   5.290  1.4226  0.9624 -0.3976
  494SOL     OW 4435   2.778   2.728   7.341  0.4771 -0.2487 -0.4993
  494SOL    HW1 4436   2.733   2.686   7.414  1.4372 -1.6256 -0.6493
  494SOL    HW2 4437   2.767   2.666   7.268  1.8986 -0.2314 -0.7524
  495SOL     OW 4438   7.348   1.022   6.232 -0.0534  0.8187  0.3384
  495SOL    HW1 4439   7.349   1.028   6.137  2.0122  1.7736  0.3675
  495SOL    HW2 4440   7.383   1.106   6.262 -0.2880  0.3842  1.9177
  496SOL     OW 4441   6.159   4.774   4.168 -0.6091  0.1309  0.4971
  496SOL    HW1 4442   6.084   4.828   4.143 -0.6649  0.1879  0.7852
  496SOL    HW2 4443   6.147   4.692   4.119 -0.5471  0.3616  0.0951
  497SOL     OW 4444   5.865   6.070   2.134 -0.2389  0.2346  0.0905
  497SOL    HW1 4445   5.895   5.981   2.117  0.3716  0.7819 -2.0822
  497SOL    HW2 4446   5.867   6.079   2.229  0.0524 -1.9226  0.3403
  498SOL     OW 4447   3.847   1.060   0.437  0.0180 -0.2483  0.0411
  498SOL    HW1 4448   3.816   1.060   0.528  1.6471 -1.9859  0.6583
  498SOL    HW2 4449   3.802   0.987   0.396  0.9766 -0.8902  0.1065
  499SOL     OW 4450   0.294   5.955   0.708 -0.2377 -0.1787  0.0227
  499SOL    HW1 4451   0.371   5.902   0.690 -0.6235 -0.0910 -2.1002
  499SOL    HW2 4452   0.264   5.985   0.622 -1.4079  1.5389  0.9594
  500SOL     OW 4453   0.140   5.178   6.908 -0.4331 -0.0841  0.1782
  500SOL    HW1 4454   0.187   5.240   6.964 -1.0942  0.0235  0.6223
  500SOL    HW2 4455   0.163   5.092   6.942  0.1611 -0.0798 -0.1848
  501SOL     OW 4456   6.203   0.289   2.580  0.6131 -0.3260  0.3213
  501SOL    HW1 4457   6.220   0.291   2.486 -1.5076  0.7981 -0.1157
  501SOL    HW2 4458   6.233   0.374   2.613 -0.2859  0.0222  0.2858
  502SOL     OW 4459   3.809   1.272   5.825  0.4393 -0.3551  0.9165
  502SOL    HW1 4460   3.857   1.277   5.743  0.2777 -2.5302  0.6464
  502SOL    HW2 4461   3.847   1.341   5.880  1.5375  0.1604 -0.4527
  503SOL     OW 4462   1.233   4.181   3.953 -0.1711 -0.8209 -0.3199
  503SOL    HW1 4463   1.318   4.161   3.992 -0.1204 -0.1121 -0.0578
  503SOL    HW2 4464   1.188   4.234   4.019 -0.0546  0.4803 -1.2549
  504SOL     OW 4465   5.582   3.671   5.118  0.5334  0.4518  0.4038
  504SOL    HW1 4466   5.509   3.635   5.067 -1.8250  3.3103  1.4836
  504SOL    HW2 4467   5.573   3.632   5.204  0.2063  0.8547  0.5559
  505SOL     OW 4468   5.000   5.333   3.186 -0.0465 -0.6843 -0.0602
  505SOL    HW1 4469   5.094   5.342   3.175 -0.1507 -0.3440 -0.7606
  505SOL    HW2 4470   4.987   5.242   3.211  0.2671 -1.6086 -2.8272
  506SOL     OW 4471   5.882   3.701   3.229 -0.8248  0.0806  0.3880
  506SOL    HW1 4472   5.888   3.662   3.142  2.2310  0.1461  0.4719
  506SOL    HW2 4473   5.965   3.748   3.240 -1.2341  0.3017  3.2445
  507SOL     OW 4474   0.846   7.360   1.684  0.0166  0.4410 -0.7781
  507SOL    HW1 4475   0.930   7.329   1.651  0.6160  0.3193  0.7925
  507SOL    HW2 4476   0.782   7.299   1.648  0.6890  0.0377 -1.3086
  508SOL     OW 4477   6.027   0.195   7.291 -0.0003  0.3864 -0.1404
  508SOL    HW1 4478   5.995   0.250   7.219 -0.8979 -0.2442 -0.2401
  508SOL    HW2 4479   6.014   0.249   7.370 -0.4881  0.4813 -0.2814
  509SOL     OW 4480   5.959   1.551   4.337  0.3925 -0.3157 -0.1787
  509SOL    HW1 4481   5.957   1.639   4.374  2.9331  0.1087 -0.8772
  509SOL    HW2 4482   5.995   1.496   4.406 -1.0235 -0.8211  0.1947
  510SOL     OW 4483   0.967   1.520   4.739  0.2699  0.2776  0.5756
  510SOL    HW1 4484   1.035   1.585   4.757  0.0532  0.2543  1.5560
  510SOL    HW2 4485   0.888   1.556   4.779  0.1782 -0.6336  1.2658
  511SOL     OW 4486   7.232   0.004   2.976 -0.1678  0.5109 -0.4194
  511SOL    HW1 4487   7.307  -0.050   2.950  1.2198  2.5681 -0.9704
  511SOL    HW2 4488   7.212  -0.023   3.066 -0.0436 -1.3950 -0.9228
  512SOL     OW 4489   0.952   2.652   7.271  0.1474  0.1972  0.3166
  512SOL    HW1 4490   0.962   2.557   7.257  1.0524  0.3736 -0.3848
  512SOL    HW2 4491   0.997   2.669   7.353  0.6674  0.1256  0.0513
  513SOL     OW 4492   1.136   1.891   1.878  0.1048 -0.1415  0.6239
  513SOL    HW1 4493   1.156   1.807   1.836 -0.8278  0.5709 -1.3104
  513SOL    HW2 4494   1.041   1.889   1.891  0.2819 -0.0656  2.1808
  514SOL     OW 4495   2.932   7.638   5.980  0.1083  0.5240 -0.4845
  514SOL    HW1 4496   2.926   7.722   6.026  0.8972  0.8895 -1.0386
  514SOL    HW2 4497   2.991   7.586   6.035 -0.5132  0.2554 -0.0508
  515SOL     OW 4498   7.713   1.857   6.706  0.5086  0.5953 -0.0712
  515SOL    HW1 4499   7.635   1.888   6.658  0.0397  0.5663  0.6629
  515SOL    HW2 4500   7.678   1.798   6.772  1.1272  0.8743  0.5126
  516SOL     OW 4501   4.292   6.952   5.735  0.1059 -0.3755  0.6505
  516SOL    HW1 4502   4.227   6.889   5.767  0.1776 -0.2904  0.9684
  516SOL    HW2 4503   4.338   6.906   5.665 -0.7887 -0.1857 -0.0764
  517SOL     OW 4504   5.496   1.744   1.298  0.7793  0.0625 -0.4092
  517SOL    HW1 4505   5.554   1.785   1.234  1.0812 -1.0796 -0.8887
  517SOL    HW2 4506   5.408   1.770   1.271  1.0117  2.9917  1.1351
  518SOL     OW 4507   4.681   6.896   0.507  0.0606  0.0782 -0.3441
  518SOL    HW1 4508   4.727   6.816   0.482  0.6805  0.8761 -1.8700
  518SOL    HW2 4509   4.664   6.886   0.601  2.7642 -0.5240  0.1549
  519SOL     OW 4510   5.103   6.046   1.189 -0.0862 -0.2027 -0.1111
  519SOL    HW1 4511   5.028   6.048   1.129  0.6149 -0.6148 -1.0457
  519SOL    HW2 4512   5.137   5.957   1.180  0.3631 -0.0936  0.4892
  520SOL     OW 4513   3.711   7.417   0.770 -0.5199 -0.0127 -0.7017
  520SOL    HW1 4514   3.679   7.327   0.777  0.4871 -0.5370 -2.1142
  520SOL    HW2 4515   3.632   7.471   0.767 -1.2893 -1.1209 -2.6647
  521SOL     OW 4516   5.195   4.712   4.287  0.4590 -0.1586 -0.4744
  521SOL    HW1 4517   5.258   4.645   4.260  1.9722  0.8134  0.4795
  521SOL    HW2 4518   5.223   4.737   4.376 -0.5239  1.1756 -0.5070
  522SOL     OW 4519   1.662   5.783   1.654 -0.6047 -1.1486  0.3802
  522SOL    HW1 4520   1.735   5.786   1.591 -0.8975  1.6993  0.0375
  522SOL    HW2 4521   1.587   5.752   1.602 -0.4784 -0.4017 -0.2702
  523SOL     OW 4522   5.163   6.642   1.909 -0.5647 -0.1256 -0.3603
  523SOL    HW1 4523   5.193   6.707   1.973  0.3686 -1.0722  0.2076
  523SOL    HW2 4524   5.070   6.659   1.899 -0.6287  0.3830  0.8676
  524SOL     OW 4525   4.516   2.578   7.802 -0.4528 -1.2836  0.2312
  524SOL    HW1 4526   4.489   2.662   7.839  2.1211  1.1321 -2.7765
  524SOL    HW2 4527   4.454   2.563   7.731  0.9836 -0.0474 -1.3717
  525SOL     OW 4528   0.496   0.165   3.614 -0.2028 -0.4285 -0.4887
  525SOL    HW1 4529   0.409   0.197   3.638  0.7652  0.8406  1.6753
  525SOL    HW2 4530   0.497   0.074   3.644 -0.9238 -0.5746 -0.9086
  526SOL     OW 4531   8.128   0.731   3.420 -0.3729  0.1614 -0.1616
  526SOL    HW1 4532   8.105   0.755   3.330 -1.5806  0.9852  0.3363
  526SOL    HW2 4533   8.168   0.810   3.457 -1.6571  0.4771  0.5987
  527SOL     OW 4534   5.775   4.018   0.936 -0.4404  0.2318 -0.6008
  527SOL    HW1 4535   5.845   4.050   0.993 -1.0151  1.4119 -0.5161
  527SOL    HW2 4536   5.819   3.987   0.857  0.3254 -0.9232  0.2409
  528SOL     OW 4537   3.115   3.813   4.360  0.5413 -0.0445 -0.4997
  528SOL    HW1 4538   3.073   3.871   4.297  0.9370 -0.5735 -1.2642
  528SOL    HW2 4539   3.160   3.872   4.421  0.4267  0.4628 -0.8996
  529SOL     OW 4540   1.230   0.187   3.110  0.5412  0.1079  0.5343
  529SOL    HW1 4541   1.184   0.140   3.179 -1.9065  0.4633 -0.7237
  529SOL    HW2 4542   1.253   0.120   3.046  0.8830  0.0567  0.7122
  530SOL     OW 4543   2.482   5.783   8.105  0.2328 -0.3032  0.2855
  530SOL    HW1 4544   2.572   5.798   8.076 -0.0858 -0.6543 -0.9758
  530SOL    HW2 4545   2.452   5.710   8.052 -0.8016 -0.1853  0.6842
  531SOL     OW 4546   1.532   3.917   7.080  0.8633  0.6917 -0.1337
  531SOL    HW1 4547   1.467   3.885   7.018  0.9312 -1.7931  0.9640
  531SOL    HW2 4548   1.486   3.922   7.164  1.9084 -0.5509  0.5460
  532SOL     OW 4549   4.314   2.917   4.670 -0.0838 -0.0926 -0.3537
  532SOL    HW1 4550   4.395   2.866   4.677  0.4960  0.4726 -2.3012
  532SOL    HW2 4551   4.249   2.854   4.637  0.0980 -0.0743 -0.7540
  533SOL     OW 4552   1.873   2.817   1.124 -0.1680 -0.4965  0.8166
  533SOL    HW1 4553   1.865   2.824   1.219  0.1303  0.0914  0.8022
  533SOL    HW2 4554   1.936   2.885   1.100  0.5889 -1.3512  0.3196
  534SOL     OW 4555   0.949   6.269   2.549  0.4099  0.5082 -0.0554
  534SOL    HW1 4556   1.035   6.307   2.563  0.9490 -0.6841 -0.0090
  534SOL    HW2 4557   0.961   6.176   2.564 -0.9343  0.3424  0.1350
  535SOL     OW 4558   3.910   2.481   1.516 -0.0558  0.4081  0.5721
  535SOL    HW1 4559   3.986   2.524   1.476  0.8721 -0.7261  1.0444
  535SOL    HW2 4560   3.845   2.551   1.524  0.9533  1.4340  0.2096
  536SOL     OW 4561   5.924   6.579   0.689  0.1804  0.0171 -0.2749
  536SOL    HW1 4562   5.869   6.600   0.614 -1.4084  0.3807  0.9461
  536SOL    HW2 4563   6.008   6.620   0.669 -0.8003  1.7761 -0.9841
  537SOL     OW 4564   4.156   2.534   3.881 -0.3512 -0.9595  0.7557
  537SOL    HW1 4565   4.116   2.491   3.957  1.4024 -1.5488  1.3905
  537SOL    HW2 4566   4.237   2.572   3.915 -0.2999  0.1359 -0.5004
  538SOL     OW 4567   7.610   6.213   4.211 -0.5221  0.5829  0.0966
  538SOL    HW1 4568   7.640   6.224   4.121  1.3374  0.6634  0.6818
  538SOL    HW2 4569   7.649   6.286   4.259  1.5189 -1.3590  1.6064
  539SOL     OW 4570   4.074   1.804   1.648 -0.8883  0.7247  0.3252
  539SOL    HW1 4571   4.159   1.849   1.645 -1.5718  2.0656  0.2479
  539SOL    HW2 4572   4.045   1.802   1.556 -0.4856 -0.6710  0.2106
  540SOL     OW 4573   6.781   6.617   4.986 -0.0825  1.0809  0.5728
  540SOL    HW1 4574   6.850   6.682   5.003 -0.0212  0.8138  1.3527
  540SOL    HW2 4575   6.702   6.656   5.024 -0.3546  1.3455 -0.2418
  541SOL     OW 4576   2.705   7.245   2.069  0.2700 -0.0427  0.9011
  541SOL    HW1 4577   2.669   7.271   1.985 -1.2389 -1.2250  1.1561
  541SOL    HW2 4578   2.633   7.256   2.131  0.6359 -1.4509  1.6171
  542SOL     OW 4579   3.565   5.525   1.747  0.1474 -0.2337 -0.3528
  542SOL    HW1 4580   3.560   5.462   1.675  2.1618  0.4726 -1.1961
  542SOL    HW2 4581   3.612   5.478   1.816 -1.9111 -0.9591  0.6067
  543SOL     OW 4582   4.705   2.493   6.246  0.2164  0.3086 -0.0604
  543SOL    HW1 4583   4.728   2.412   6.202  0.5003  1.7311 -2.7076
  543SOL    HW2 4584   4.784   2.519   6.293 -0.0752 -1.2080  1.3466
  544SOL     OW 4585   6.448   1.417   5.412  0.7080 -0.0130 -0.0848
  544SOL    HW1 4586   6.403   1.452   5.335  0.8426  1.4887  0.4756
  544SOL    HW2 4587   6.535   1.394   5.379  0.2807 -0.8092 -0.6914
  545SOL     OW 4588   4.108   6.899   6.154  0.5828 -0.4570  0.0794
  545SOL    HW1 4589   4.121   6.904   6.060  0.1825  1.7702  0.0860
  545SOL    HW2 4590   4.193   6.874   6.189  0.2640 -3.2772 -0.9383
  546SOL     OW 4591   6.656   7.576   0.676  0.4569 -0.2472  0.0275
  546SOL    HW1 4592   6.624   7.654   0.631 -0.6096  1.1498  2.9422
  546SOL    HW2 4593   6.687   7.519   0.606 -2.6089  0.9863 -2.6071
  547SOL     OW 4594   6.440   3.854   7.757  0.0216 -0.1997  0.3467
  547SOL    HW1 4595   6.461   3.947   7.766 -0.6486 -0.1256  1.2399
  547SOL    HW2 4596   6.523   3.813   7.732  0.5598  0.4887  0.9636
  548SOL     OW 4597   6.230   3.009   3.122  0.2602 -0.0020 -0.3355
  548SOL    HW1 4598   6.260   3.074   3.059  0.9198 -0.4087 -0.4576
  548SOL    HW2 4599   6.285   2.932   3.105 -0.6900 -0.6816 -0.3758
  549SOL     OW 4600   7.309   1.660   1.760 -0.4043 -0.1562  0.1277
  549SOL    HW1 4601   7.270   1.601   1.696  1.3247 -1.0089 -0.2064
  549SOL    HW2 4602   7.363   1.602   1.815 -1.1060  0.6877  1.7625
  550SOL     OW 4603   5.944   7.953   5.509  0.3280  0.3289  0.2214
  550SOL    HW1 4604   5.907   8.001   5.435 -2.2086  0.0126  1.1965
  550SOL    HW2 4605   6.011   7.897   5.470 -1.0387  0.0392 -1.8919
  551SOL     OW 4606   0.940   0.856   2.154 -0.3241 -0.3894  0.5230
  551SOL    HW1 4607   0.922   0.946   2.125  0.3528 -0.5730 -0.5228
  551SOL    HW2 4608   1.010   0.866   2.219  0.4602 -0.2272 -0.3255
  552SOL     OW 4609   6.047   6.916   0.841  0.1215  0.2264 -0.2275
  552SOL    HW1 4610   6.016   6.876   0.760  1.0297 -0.1941 -0.3754
  552SOL    HW2 4611   5.976   6.899   0.904 -0.6073  0.5977 -0.9338
  553SOL     OW 4612   6.202   7.542   2.006 -0.0519  0.1980 -0.5582
  553SOL    HW1 4613   6.240   7.627   2.028  0.5135 -0.0275 -0.6529
  553SOL    HW2 4614   6.264   7.478   2.041 -1.7731 -0.2503  1.9777
  554SOL     OW 4615   4.134   5.263   0.654  0.5109 -0.2565 -0.2487
  554SOL    HW1 4616   4.190   5.216   0.592 -0.4201  0.0818 -1.3598
  554SOL    HW2 4617   4.068   5.306   0.600 -0.1171  0.3331  0.9504
  555SOL     OW 4618   5.572   4.205   7.295 -0.4157 -0.1398 -0.2101
  555SOL    HW1 4619   5.497   4.253   7.329 -0.5544  0.5592 -1.4655
  555SOL    HW2 4620   5.534   4.130   7.250 -0.3592  0.1547 -0.7519
  556SOL     OW 4621   0.142   6.165   4.517 -0.4085  0.2653 -0.1424
  556SOL    HW1 4622   0.127   6.218   4.595 -1.8548  0.9768 -0.8514
  556SOL    HW2 4623   0.143   6.228   4.445 -0.4699 -0.5110 -0.8390
  557SOL     OW 4624   7.826   6.250   6.114 -0.0243  0.1466  0.1480
  557SOL    HW1 4625   7.808   6.344   6.111 -1.0636 -0.0548 -0.5450
  557SOL    HW2 4626   7.775   6.214   6.041  0.4512 -0.9378  0.3391
  558SOL     OW 4627   3.444   6.995   5.296 -0.0931  0.0296  0.0567
  558SOL    HW1 4628   3.512   7.042   5.345 -1.2553  0.8674  0.9348
  558SOL    HW2 4629   3.476   6.906   5.289 -0.0101 -0.2161  2.6759
  559SOL     OW 4630   2.332   5.592   3.904  0.4894 -0.5744  0.6361
  559SOL    HW1 4631   2.278   5.522   3.868 -4.0721  2.5536  0.6183
  559SOL    HW2 4632   2.350   5.649   3.830  1.3689 -0.0636  1.2236
  560SOL     OW 4633   3.620   3.408   6.042  0.2176  0.2140  0.1484
  560SOL    HW1 4634   3.554   3.358   6.091 -0.0151 -1.3014 -1.6211
  560SOL    HW2 4635   3.583   3.496   6.037 -0.9458 -0.2288  0.5132
  561SOL     OW 4636   0.777   0.706   1.904 -0.2045 -0.9548 -0.1987
  561SOL    HW1 4637   0.755   0.747   1.821 -1.5283  0.2717  0.7157
  561SOL    HW2 4638   0.872   0.715   1.911 -0.1058 -0.8430 -1.4396
  562SOL     OW 4639   3.619   0.066   2.428 -0.3400 -0.4378 -0.6075
  562SOL    HW1 4640   3.611   0.136   2.493  0.3374 -0.6947 -0.2273
  562SOL    HW2 4641   3.533   0.060   2.388  0.4671  3.3582 -3.5441
  563SOL     OW 4642   6.833   0.276   3.426  0.3017 -0.1971 -0.2985
  563SOL    HW1 4643   6.760   0.295   3.368 -0.4351  0.7792  0.9119
  563SOL    HW2 4644   6.911   0.302   3.376 -0.4016  1.9886 -0.3319
  564SOL     OW 4645   0.203   7.805   0.625  0.3279  0.1166 -0.0190
  564SOL    HW1 4646   0.109   7.806   0.604 -0.1059 -0.2786  1.7412
  564SOL    HW2 4647   0.239   7.735   0.570 -0.4466  0.1412 -0.5721
  565SOL     OW 4648   0.717   3.468   7.021  0.3403  0.3154  0.0343
  565SOL    HW1 4649   0.754   3.387   6.986  0.0484  0.1976 -0.0001
  565SOL    HW2 4650   0.624   3.450   7.032  0.2623  0.6667 -0.0322
  566SOL     OW 4651   0.400   8.037   6.748 -0.1332  0.3374  0.1546
  566SOL    HW1 4652   0.412   8.132   6.743 -0.1236  0.3617  0.6197
  566SOL    HW2 4653   0.443   8.003   6.669 -0.0929  0.7145  0.0126
  567SOL     OW 4654   0.628   1.652   7.687  0.1754 -0.1819  0.9346
  567SOL    HW1 4655   0.563   1.588   7.660 -0.6674  0.6198  1.0079
  567SOL    HW2 4656   0.689   1.657   7.613 -0.2074 -0.4635  0.5941
  568SOL     OW 4657   2.386   0.306   3.480  0.0084 -0.1885 -0.2071
  568SOL    HW1 4658   2.418   0.290   3.569 -0.0364  0.9444  0.0198
  568SOL    HW2 4659   2.440   0.377   3.447 -2.0168  1.6124  0.0988
  569SOL     OW 4660   0.528   4.389   2.174 -0.7800 -0.3821 -0.1959
  569SOL    HW1 4661   0.610   4.351   2.142 -0.9534 -0.5708 -0.4210
  569SOL    HW2 4662   0.475   4.400   2.095 -0.4794  0.9898 -0.2420
  570SOL     OW 4663   1.745   3.344   4.328 -0.0933  0.4324 -0.1027
  570SOL    HW1 4664   1.672   3.402   4.310 -1.2151 -1.5472 -2.6207
  570SOL    HW2 4665   1.706   3.256   4.332  1.7894 -0.4305  1.3986
  571SOL     OW 4666   6.250   6.500   5.002  0.0616  0.0867  0.2379
  571SOL    HW1 4667   6.337   6.468   5.026 -0.9039 -1.2924  2.1080
  571SOL    HW2 4668   6.189   6.446   5.051 -1.9140  0.7693 -1.2958
  572SOL     OW 4669   0.325   3.807   5.572 -0.3400 -0.2119 -0.4338
  572SOL    HW1 4670   0.368   3.881   5.616  0.4744  0.0920 -1.6865
  572SOL    HW2 4671   0.380   3.731   5.593 -0.2796 -0.1678 -0.4309
  573SOL     OW 4672   2.989   4.595   2.808  0.5903  0.2929  0.3377
  573SOL    HW1 4673   3.038   4.520   2.774  0.2382 -0.2912  1.0764
  573SOL    HW2 4674   2.929   4.619   2.737  2.7534  1.8100 -1.0694
  574SOL     OW 4675   3.780   5.471   3.452  0.5978 -0.3374 -0.3582
  574SOL    HW1 4676   3.874   5.459   3.444  0.3148 -2.2927 -1.2828
  574SOL    HW2 4677   3.767   5.566   3.447  2.4900 -0.0389 -0.2164
  575SOL     OW 4678   3.640   1.705   1.847  0.1597  0.8246  0.0209
  575SOL    HW1 4679   3.705   1.682   1.912  0.8609 -0.1603 -0.9912
  575SOL    HW2 4680   3.655   1.644   1.775 -2.4358 -0.0157  0.0933
  576SOL     OW 4681   4.928   1.020   1.740  0.1145 -0.0589 -0.4872
  576SOL    HW1 4682   4.868   0.977   1.800  1.3216 -0.0413  0.8046
  576SOL    HW2 4683   4.917   0.975   1.657  2.7033 -4.4243  1.2005
  577SOL     OW 4684   1.398   1.801   1.490  0.8087 -0.1750 -0.5818
  577SOL    HW1 4685   1.406   1.811   1.395 -1.7107 -0.6951 -0.9201
  577SOL    HW2 4686   1.364   1.886   1.520  2.0546  0.1556 -0.0409
  578SOL     OW 4687   2.865   7.910   6.477 -0.0992 -0.0845 -0.0977
  578SOL    HW1 4688   2.879   7.859   6.557  0.3802  1.6721  0.9822
  578SOL    HW2 4689   2.935   7.976   6.478  0.1088 -0.2072 -2.1413
  579SOL     OW 4690   0.024   1.837   7.629 -0.1975 -0.5993 -0.6032
  579SOL    HW1 4691  -0.048   1.851   7.568 -0.1841  0.9969 -0.2872
  579SOL    HW2 4692   0.007   1.897   7.702 -0.9182 -3.3577  1.6682
  580SOL     OW 4693   7.849   7.261   1.169 -0.9409  0.2337 -0.0171
  580SOL    HW1 4694   7.821   7.194   1.232  0.3014 -0.1389  0.1627
  580SOL    HW2 4695   7.799   7.339   1.194 -0.7973 -0.0300  1.1625
  581SOL     OW 4696   5.190   2.809   5.247  0.4307 -0.6510 -0.0227
  581SOL    HW1 4697   5.098   2.786   5.235  0.2707 -1.1306  1.7936
  581SOL    HW2 4698   5.200   2.817   5.342  1.9646  0.6926 -0.2530
  582SOL     OW 4699   3.301   5.440   5.152 -0.1007 -0.6923 -0.5808
  582SOL    HW1 4700   3.348   5.518   5.181  0.2996 -1.7365  1.8373
  582SOL    HW2 4701   3.257   5.467   5.071 -0.3819  2.1737  0.4156
  583SOL     OW 4702   2.995   6.598   5.886 -0.0317 -0.9014 -0.1139
  583SOL    HW1 4703   2.908   6.638   5.878 -0.2087 -0.7610  1.9223
  583SOL    HW2 4704   3.045   6.659   5.939  1.6610 -0.5348 -2.0206
  584SOL     OW 4705   2.975   1.535   1.809 -0.0636  0.1381  0.2450
  584SOL    HW1 4706   2.973   1.469   1.739  0.6326  0.9912 -0.6149
  584SOL    HW2 4707   2.959   1.618   1.763  0.1938  0.6864  1.1348
  585SOL     OW 4708   0.948   1.984   6.600  0.1104  0.0485 -1.1593
  585SOL    HW1 4709   0.938   2.079   6.611  1.0223  0.2238 -1.7168
  585SOL    HW2 4710   0.945   1.949   6.689  0.6846  0.7077 -0.8668
  586SOL     OW 4711   0.115   6.540   5.362 -0.7032  0.5033 -0.3246
  586SOL    HW1 4712   0.070   6.497   5.290  0.3489  0.5631 -1.0307
  586SOL    HW2 4713   0.197   6.572   5.325  0.2481 -0.1816  1.0682
  587SOL     OW 4714   2.078   6.786   3.465 -0.4148 -0.2479 -0.4351
  587SOL    HW1 4715   2.105   6.861   3.519  1.4216 -0.8503 -0.4265
  587SOL    HW2 4716   2.023   6.734   3.523 -0.0048  0.0610  0.2527
  588SOL     OW 4717   3.462   7.498   6.942  0.6035  0.0523 -0.5799
  588SOL    HW1 4718   3.444   7.578   6.992 -1.4278  0.0212 -1.1846
  588SOL    HW2 4719   3.431   7.516   6.854  0.2723 -1.3146 -0.7800
  589SOL     OW 4720   5.122   7.662   7.764 -0.2233 -0.4355  0.0878
  589SOL    HW1 4721   5.188   7.676   7.832 -0.2997  0.4688 -0.0207
  589SOL    HW2 4722   5.173   7.654   7.683 -0.1111 -1.7948  0.2670
  590SOL     OW 4723   5.038   0.749   0.310  0.1501 -0.0256 -0.1053
  590SOL    HW1 4724   5.001   0.837   0.299  1.4653  0.6028  0.2833
  590SOL    HW2 4725   5.017   0.727   0.401  1.8141  0.8956  0.5464
  591SOL     OW 4726   5.420   2.851   7.829  0.2346 -0.0786 -0.9272
  591SOL    HW1 4727   5.484   2.891   7.888  0.8196 -0.5261 -1.2591
  591SOL    HW2 4728   5.355   2.920   7.815  0.7014  0.4200 -0.6833
  592SOL     OW 4729   4.394   6.962   1.551 -0.1606 -0.3544  0.3116
  592SOL    HW1 4730   4.407   6.899   1.480 -0.6437 -0.6605  0.4926
  592SOL    HW2 4731   4.330   6.920   1.609  0.3727 -0.1987  1.0329
  593SOL     OW 4732   6.655   0.436   7.555 -0.7413  0.3624  0.1944
  593SOL    HW1 4733   6.726   0.487   7.595  0.8548 -0.9830 -0.7642
  593SOL    HW2 4734   6.696   0.352   7.533 -2.1316  0.1904 -2.0874
  594SOL     OW 4735   4.830   4.576   7.517 -0.0745  0.3283 -0.3628
  594SOL    HW1 4736   4.788   4.490   7.512  0.2660  0.0665  0.9741
  594SOL    HW2 4737   4.812   4.616   7.432  0.4035 -1.3415 -1.2879
  595SOL     OW 4738   1.393   5.476   4.349 -0.4970 -0.0113 -0.1777
  595SOL    HW1 4739   1.415   5.533   4.422 -1.1938 -0.5680  0.4809
  595SOL    HW2 4740   1.451   5.504   4.278  2.0741 -1.1553  1.3259
  596SOL     OW 4741   0.826   5.842   4.276 -0.3955  0.0208  0.0812
  596SOL    HW1 4742   0.917   5.867   4.288 -0.8163  2.1006 -0.6328
  596SOL    HW2 4743   0.776   5.912   4.318 -1.6676 -1.0582  0.4119
  597SOL     OW 4744   4.035   8.091   0.235 -0.6917  0.2189 -0.1469
  597SOL    HW1 4745   4.057   8.055   0.149 -1.9257 -1.5145  0.2044
  597SOL    HW2 4746   3.962   8.151   0.218  1.0685  2.3313 -0.6722
  598SOL     OW 4747   2.874   7.365   0.264 -0.1222 -0.4229 -0.2054
  598SOL    HW1 4748   2.885   7.275   0.233  3.1724  0.1284 -1.1107
  598SOL    HW2 4749   2.892   7.361   0.358  1.5567 -0.6032 -0.4920
  599SOL     OW 4750   2.827   5.912   3.049 -0.2008  0.1684 -0.5477
  599SOL    HW1 4751   2.862   6.001   3.035 -0.7906  0.5858  0.5087
  599SOL    HW2 4752   2.905   5.857   3.052  0.2059  0.7165 -0.7469
  600SOL     OW 4753   6.032   3.025   2.834 -0.2575  0.5586 -0.1540
  600SOL    HW1 4754   6.091   2.982   2.772 -0.0155 -1.4718  1.3806
  600SOL    HW2 4755   6.041   2.975   2.915 -1.6164  2.2508  1.1291
  601SOL     OW 4756   5.106   5.494   6.798  0.6990 -0.2119 -0.2109
  601SOL    HW1 4757   5.166   5.486   6.724  1.4271 -0.7336  0.4221
  601SOL    HW2 4758   5.082   5.404   6.820 -2.2191 -0.0048 -1.9263
  602SOL     OW 4759   2.064   2.008   0.999  0.0616 -0.0453  0.4288
  602SOL    HW1 4760   2.036   2.066   0.928 -1.2594 -0.8640  0.2490
  602SOL    HW2 4761   1.983   1.978   1.039  0.7475 -0.9275  1.2115
  603SOL     OW 4762   3.723   8.114   6.835 -0.4068  0.3387  0.7428
  603SOL    HW1 4763   3.726   8.064   6.753 -0.0757  0.4821  0.6682
  603SOL    HW2 4764   3.660   8.184   6.819 -1.8278 -0.7538  1.2429
  604SOL     OW 4765   0.266   8.053   0.760  0.2500 -0.1131 -0.5232
  604SOL    HW1 4766   0.270   7.958   0.747  0.7975 -0.0199 -1.0481
  604SOL    HW2 4767   0.182   8.079   0.721 -0.5360 -0.5500  0.7948
  605SOL     OW 4768   0.960   3.836   7.548 -0.4688 -0.0153 -0.3191
  605SOL    HW1 4769   1.051   3.809   7.557 -0.3689  0.6062  0.6431
  605SOL    HW2 4770   0.957   3.925   7.584 -1.4953 -0.0948 -0.1695
  606SOL     OW 4771   7.129   7.390   3.992  0.4916 -0.3615  0.2067
  606SOL    HW1 4772   7.211   7.360   4.030  0.2174 -0.5616  0.6531
  606SOL    HW2 4773   7.129   7.485   4.006 -0.2014 -0.5731  1.9371
  607SOL     OW 4774   4.085   0.236   0.141  0.1011  0.1886 -0.1479
  607SOL    HW1 4775   4.007   0.259   0.092  0.1989  1.3877  0.2329
  607SOL    HW2 4776   4.150   0.215   0.074 -0.6310 -1.1906 -0.4619
  608SOL     OW 4777   7.692   6.199   3.946 -0.3755 -0.4006  0.6329
  608SOL    HW1 4778   7.744   6.183   3.867 -1.5767  0.4608 -0.3649
  608SOL    HW2 4779   7.703   6.292   3.964 -1.0411 -0.3545  0.8113
  609SOL     OW 4780   7.915   5.381   2.740  0.0456 -0.0706 -0.0816
  609SOL    HW1 4781   7.828   5.367   2.702 -0.3465 -1.7972  1.3134
  609SOL    HW2 4782   7.898   5.422   2.825  0.4769 -1.1573  0.5630
  610SOL     OW 4783   1.773   2.280   4.055 -0.3473  0.2537 -0.1409
  610SOL    HW1 4784   1.754   2.272   4.149  1.8851 -1.3279  0.2399
  610SOL    HW2 4785   1.836   2.352   4.049 -0.4397  0.3113 -0.4283
  611SOL     OW 4786   2.260   3.672   3.141 -0.2060 -0.1691  0.8005
  611SOL    HW1 4787   2.356   3.668   3.144 -0.1247  1.3475  1.0686
  611SOL    HW2 4788   2.235   3.707   3.227 -0.8741  0.9348  0.1886
  612SOL     OW 4789   5.018   0.575   4.674 -0.5031 -0.1045  0.1432
  612SOL    HW1 4790   5.022   0.654   4.727 -1.7731  0.2478 -0.2596
  612SOL    HW2 4791   4.973   0.511   4.729  1.8825 -1.1050  1.0890
  613SOL     OW 4792   3.863   3.778   2.292 -0.2181  0.7017 -0.5673
  613SOL    HW1 4793   3.872   3.687   2.264 -1.2203  1.0604 -2.2291
  613SOL    HW2 4794   3.912   3.783   2.374 -1.6755 -1.7559  0.5612
  614SOL     OW 4795   2.202   3.301   3.584  0.6080  0.3387  0.2454
  614SOL    HW1 4796   2.110   3.328   3.586  0.4328 -0.0023 -1.5541
  614SOL    HW2 4797   2.220   3.270   3.673 -1.0530  0.3200  0.6053
  615SOL     OW 4798   2.020   5.714   6.375 -0.6429 -0.2505  0.4703
  615SOL    HW1 4799   1.975   5.698   6.292  0.8950  0.7438 -0.6098
  615SOL    HW2 4800   1.957   5.761   6.428 -0.9806  0.9451 -0.9234
  616SOL     OW 4801   3.279   5.928   2.784  0.1037 -0.1181  0.4996
  616SOL    HW1 4802   3.291   5.834   2.769 -0.9540 -0.2551  0.4316
  616SOL    HW2 4803   3.259   5.964   2.698 -1.8125 -0.2289  0.8562
  617SOL     OW 4804   4.479   6.234   5.160 -0.1597  0.5487 -0.1818
  617SOL    HW1 4805   4.397   6.263   5.199  0.1646 -0.6751  1.5475
  617SOL    HW2 4806   4.498   6.150   5.203  0.4038 -0.7868 -2.7956
  618SOL     OW 4807   5.733   2.914   7.453  0.5953  0.7529  0.1643
  618SOL    HW1 4808   5.817   2.953   7.426  0.5948  0.0943 -0.8644
  618SOL    HW2 4809   5.667   2.965   7.405  0.6091 -0.6158 -1.4289
  619SOL     OW 4810   2.065   0.636   0.113  0.7240 -0.2898  0.4421
  619SOL    HW1 4811   2.042   0.550   0.146  0.1989  1.5017  5.6170
  619SOL    HW2 4812   1.993   0.693   0.142  0.5100  1.9514 -3.6082
  620SOL     OW 4813   1.128   7.095   0.846 -0.4556 -0.4582  0.0309
  620SOL    HW1 4814   1.073   7.173   0.839 -0.0847 -0.3417 -2.0668
  620SOL    HW2 4815   1.070   7.023   0.818 -0.5432 -0.8328  1.1368
  621SOL     OW 4816   1.108   0.571   5.260 -0.4325 -0.2258  0.6105
  621SOL    HW1 4817   1.079   0.484   5.288 -1.3150  0.3506  1.5605
  621SOL    HW2 4818   1.047   0.631   5.303 -0.1125  0.8435 -0.3935
  622SOL     OW 4819   7.152   1.001   7.887 -0.3659 -0.3983  0.8764
  622SOL    HW1 4820   7.214   1.002   7.814 -0.6606  2.3737  0.5298
  622SOL    HW2 4821   7.131   0.909   7.900  1.7296 -1.2001 -0.7713
  623SOL     OW 4822   2.574   0.831   4.510  0.6906  0.6590  0.4890
  623SOL    HW1 4823   2.603   0.917   4.479 -0.3287  0.4276 -1.2048
  623SOL    HW2 4824   2.651   0.795   4.554  1.1850  2.3602  1.1123
  624SOL     OW 4825   0.115   2.274   4.337 -0.0952  0.4552  0.2530
  624SOL    HW1 4826   0.109   2.351   4.279 -1.9984  1.2272  1.3630
  624SOL    HW2 4827   0.046   2.216   4.305  1.0720 -0.6570 -0.3203
  625SOL     OW 4828   7.986   4.671   0.916 -1.0358 -0.2623 -0.0111
  625SOL    HW1 4829   8.076   4.661   0.885 -0.7828  0.6684  0.4037
  625SOL    HW2 4830   7.943   4.723   0.849 -0.9026  0.4270  0.4300
  626SOL     OW 4831   5.048   5.871   0.671  0.2669 -0.0810  0.0078
  626SOL    HW1 4832   4.957   5.840   0.666  0.0806  0.0212  1.9657
  626SOL    HW2 4833   5.072   5.890   0.580 -0.9162 -2.1953 -0.8149
  627SOL     OW 4834   5.331   7.847   0.738  0.3532  0.1341 -0.2312
  627SOL    HW1 4835   5.346   7.926   0.686 -0.2385 -1.2128 -2.5447
  627SOL    HW2 4836   5.282   7.789   0.681  0.7052 -1.9185  1.4316
  628SOL     OW 4837   6.903   4.253   4.333  0.4609 -0.2388 -0.3615
  628SOL    HW1 4838   6.926   4.161   4.346  0.0666 -0.3738 -0.6028
  628SOL    HW2 4839   6.842   4.273   4.404  1.8002  0.3061  0.6774
  629SOL     OW 4840   7.268   5.075   7.329 -0.2192  0.0364  0.2331
  629SOL    HW1 4841   7.222   5.081   7.413  0.7364  1.7361  0.6766
  629SOL    HW2 4842   7.358   5.100   7.349  0.9364 -2.9827 -0.6532
  630SOL     OW 4843   5.249   3.348   1.684  0.4801 -0.2525  0.2248
  630SOL    HW1 4844   5.271   3.350   1.777 -2.9614 -0.8703  1.1911
  630SOL    HW2 4845   5.236   3.439   1.660 -2.1044 -0.2056  1.4378
  631SOL     OW 4846   6.770   3.155   1.216  0.3183  0.5569  0.4861
  631SOL    HW1 4847   6.710   3.217   1.257  0.1328 -0.2458  1.4628
  631SOL    HW2 4848   6.832   3.210   1.167 -0.6343  1.4366  0.2360
  632SOL     OW 4849   3.852   0.678   3.162 -0.6251 -0.9116 -0.1024
  632SOL    HW1 4850   3.812   0.764   3.168 -0.5158 -0.8396 -0.3939
  632SOL    HW2 4851   3.812   0.627   3.233  0.7411 -0.0522  1.3441
  633SOL     OW 4852   1.821   4.083   3.099 -0.0271  0.0509 -0.5562
  633SOL    HW1 4853   1.780   4.054   3.180  0.1825 -1.2584 -0.8852
  633SOL    HW2 4854   1.902   4.125   3.127  1.0910 -2.2251 -0.1240
  634SOL     OW 4855   7.682   0.123   0.171 -0.1400  0.4905  0.4189
  634SOL    HW1 4856   7.771   0.125   0.207 -0.3432 -0.7391  1.0682
  634SOL    HW2 4857   7.693   0.087   0.083 -0.0649 -0.5286  0.8277
  635SOL     OW 4858   2.475   5.745   4.159 -0.2426 -0.1870 -0.5329
  635SOL    HW1 4859   2.501   5.657   4.188 -1.5590 -0.4104 -0.0010
  635SOL    HW2 4860   2.383   5.736   4.134 -0.8453  1.3648  0.9412
  636SOL     OW 4861   2.787   1.700   6.272 -0.2345  0.1128 -0.4260
  636SOL    HW1 4862   2.752   1.631   6.216  0.4408 -0.7704  0.2024
  636SOL    HW2 4863   2.806   1.773   6.212 -2.2190  0.2797 -0.8924
  637SOL     OW 4864   2.769   6.211   6.793 -0.1679 -0.3700 -0.9359
  637SOL    HW1 4865   2.799   6.177   6.877  0.7067 -1.2942 -1.6028
  637SOL    HW2 4866   2.717   6.140   6.755 -2.8809  0.9891 -0.0558
  638SOL     OW 4867   0.138   6.295   4.251  0.2158  0.6718 -0.3957
  638SOL    HW1 4868   0.135   6.228   4.182 -2.6794 -0.7503  0.9392
  638SOL    HW2 4869   0.057   6.344   4.240  0.6206  1.6684  0.8592
  639SOL     OW 4870   3.249   6.370   7.973  0.3584  0.3943 -0.5569
  639SOL    HW1 4871   3.272   6.288   8.016 -0.2708  1.1325  1.2837
  639SOL    HW2 4872   3.324   6.428   7.989 -1.0600  1.6387  2.3190
  640SOL     OW 4873   7.771   7.548   7.752  0.3369 -0.3120  0.1663
  640SOL    HW1 4874   7.809   7.513   7.671  1.0135  0.0228  0.3297
  640SOL    HW2 4875   7.809   7.493   7.821  0.6485  0.1147  0.3424
  641SOL     OW 4876   5.990   5.477   5.167  0.1211 -0.1147  0.0270
  641SOL    HW1 4877   5.953   5.563   5.188 -2.4547 -1.2790  0.7277
  641SOL    HW2 4878   5.998   5.477   5.072  0.7719  1.1175  0.0680
  642SOL     OW 4879   4.444   8.059   7.139 -0.3106  0.0715  0.2294
  642SOL    HW1 4880   4.495   8.060   7.220 -1.7428  0.2056  1.1710
  642SOL    HW2 4881   4.425   8.151   7.121 -0.7716 -0.0180  0.2529
  643SOL     OW 4882   0.196   6.595   0.450  0.0038 -0.5042  0.3703
  643SOL    HW1 4883   0.288   6.616   0.434  0.1052 -1.3421 -0.2121
  643SOL    HW2 4884   0.184   6.508   0.414  0.0145 -2.2766  4.1553
  644SOL     OW 4885   0.162   2.537   6.078 -0.4229 -0.5733 -0.4441
  644SOL    HW1 4886   0.133   2.620   6.039 -0.0322  0.6338  1.6548
  644SOL    HW2 4887   0.083   2.484   6.083 -0.7503 -0.2153 -1.4762
  645SOL     OW 4888   2.328   3.364   6.723 -0.7985  0.0374 -0.5645
  645SOL    HW1 4889   2.261   3.430   6.740 -0.9332  0.1983 -1.6665
  645SOL    HW2 4890   2.394   3.411   6.671  1.1899  0.4700  2.0746
  646SOL     OW 4891   4.895   6.379   3.182  0.5709 -0.6747  0.2649
  646SOL    HW1 4892   4.846   6.460   3.170  1.4546  0.1447  1.8728
  646SOL    HW2 4893   4.828   6.311   3.188 -0.2775  0.1797  0.6247
  647SOL     OW 4894   5.933   1.101   4.839 -0.0019  0.0019 -0.0768
  647SOL    HW1 4895   5.870   1.172   4.823  0.1881 -0.0980 -1.4324
  647SOL    HW2 4896   6.004   1.143   4.887 -0.1200  0.6373 -0.4303
  648SOL     OW 4897   6.103   4.450   3.547 -0.1874  0.1925 -0.1227
  648SOL    HW1 4898   6.089   4.356   3.541  0.8328 -0.0341  0.7635
  648SOL    HW2 4899   6.032   4.488   3.495 -1.1209 -1.0328  0.1899
  649SOL     OW 4900   4.411   1.692   2.856  0.4737  0.0039 -0.1415
  649SOL    HW1 4901   4.358   1.631   2.907 -1.4119  1.2988 -0.4335
  649SOL    HW2 4902   4.377   1.684   2.767  0.0836  1.5090 -0.1650
  650SOL     OW 4903   7.699   7.039   3.881 -0.1430  0.5440 -0.1746
  650SOL    HW1 4904   7.731   7.038   3.791 -1.0229  0.2560 -0.4914
  650SOL    HW2 4905   7.606   7.060   3.874 -0.2724  0.2946  0.6480
  651SOL     OW 4906   0.849   1.610   5.488  0.3901  0.2221  0.0430
  651SOL    HW1 4907   0.916   1.589   5.553  0.1370  1.4354  0.7390
  651SOL    HW2 4908   0.813   1.694   5.518 -0.7056  0.1109 -0.8972
  652SOL     OW 4909   7.240   1.195   0.170 -0.2645  0.1599 -0.1346
  652SOL    HW1 4910   7.173   1.183   0.102  0.5291 -0.2278 -0.8698
  652SOL    HW2 4911   7.301   1.123   0.157  0.5475  0.7590  0.2298
  653SOL     OW 4912   3.812   5.057   4.003  0.0189 -0.5231 -0.0366
  653SOL    HW1 4913   3.902   5.083   3.983  0.1024 -1.1690 -0.5263
  653SOL    HW2 4914   3.776   5.028   3.919 -1.1988  1.2782 -0.2109
  654SOL     OW 4915   7.627   6.178   0.490 -0.0851 -0.0174 -0.7786
  654SOL    HW1 4916   7.629   6.129   0.408  0.0861  2.7865 -2.5596
  654SOL    HW2 4917   7.620   6.270   0.464  0.9614  1.0876  2.3307
  655SOL     OW 4918   4.348   4.835   6.396 -0.2848 -0.3831  0.2683
  655SOL    HW1 4919   4.356   4.764   6.459  0.0403 -0.7191 -0.1456
  655SOL    HW2 4920   4.399   4.806   6.320  1.0321  0.8789  0.6142
  656SOL     OW 4921   1.683   7.973   6.559  0.6222 -0.1111  0.3009
  656SOL    HW1 4922   1.693   7.880   6.581 -0.2708 -0.4873 -0.7434
  656SOL    HW2 4923   1.694   8.019   6.642 -1.9662 -1.3762  1.4706
  657SOL     OW 4924   7.163   5.115   7.577  0.6240  0.5538  0.1063
  657SOL    HW1 4925   7.105   5.189   7.594 -1.1920 -0.7962  0.0787
  657SOL    HW2 4926   7.233   5.125   7.642  0.3782  2.2211  0.1583
  658SOL     OW 4927   5.183   7.138   2.708  0.0718 -0.0064 -0.1593
  658SOL    HW1 4928   5.247   7.164   2.774  0.7124 -1.6535 -0.0875
  658SOL    HW2 4929   5.172   7.044   2.720 -3.0162  0.3103  0.3709
  659SOL     OW 4930   3.104   5.131   1.136 -0.3250 -0.3535 -0.2969
  659SOL    HW1 4931   3.114   5.213   1.185  3.6631 -0.1508 -1.1172
  659SOL    HW2 4932   3.137   5.064   1.195  0.6986 -0.6784 -1.2146
  660SOL     OW 4933   2.547   1.439   5.680 -0.2413  0.3757 -0.3075
  660SOL    HW1 4934   2.476   1.502   5.691 -0.4306  0.0294  0.5014
  660SOL    HW2 4935   2.525   1.367   5.740  1.5937  0.9820  1.1834
  661SOL     OW 4936   8.044   3.331   6.800 -0.0918 -0.5402 -0.2963
  661SOL    HW1 4937   8.070   3.253   6.752  1.4703  0.5273 -1.2956
  661SOL    HW2 4938   7.993   3.383   6.738  1.7745  0.7573 -0.8384
  662SOL     OW 4939   0.483   3.896   5.976 -0.0171  0.2970  0.8659
  662SOL    HW1 4940   0.534   3.816   5.989  0.8702  1.0108  1.9486
  662SOL    HW2 4941   0.481   3.938   6.062 -2.2380  0.4382  0.7991
  663SOL     OW 4942   5.690   2.954   5.619 -0.4141 -0.1816 -0.1368
  663SOL    HW1 4943   5.736   2.933   5.538 -1.2092  1.0130 -0.9443
  663SOL    HW2 4944   5.601   2.975   5.591 -0.6746  0.3715  1.0280
  664SOL     OW 4945   5.948   6.049   4.500 -0.0844 -0.3517 -0.0232
  664SOL    HW1 4946   5.899   5.979   4.544 -0.2921  0.5320  1.2100
  664SOL    HW2 4947   6.040   6.028   4.517 -0.1656  0.9206  2.5037
  665SOL     OW 4948   2.336   3.500   6.329 -0.4717 -0.3586  0.0811
  665SOL    HW1 4949   2.428   3.521   6.346 -0.1023 -1.5795 -0.2514
  665SOL    HW2 4950   2.290   3.523   6.410  0.2579 -0.4338  0.5245
  666SOL     OW 4951   5.172   4.563   4.793  0.1710 -0.0912  0.2322
  666SOL    HW1 4952   5.168   4.659   4.787  2.9187  0.1519  0.6442
  666SOL    HW2 4953   5.148   4.545   4.884  0.1811  0.2590  0.3087
  667SOL     OW 4954   1.946   0.155   1.337  0.2949 -0.0735  0.3133
  667SOL    HW1 4955   1.892   0.229   1.364  0.5322  0.1287  0.2334
  667SOL    HW2 4956   1.977   0.178   1.250 -1.8536 -1.4648 -0.9313
  668SOL     OW 4957   5.250   6.019   8.110  0.0112 -0.0641 -0.5971
  668SOL    HW1 4958   5.245   6.113   8.095 -0.1617  0.0170 -0.0435
  668SOL    HW2 4959   5.205   6.005   8.194 -1.4055 -0.8354 -1.4371
  669SOL     OW 4960   1.519   4.735   5.155  0.0333  0.0624 -0.0293
  669SOL    HW1 4961   1.549   4.702   5.240  0.3578 -0.1254 -0.2155
  669SOL    HW2 4962   1.481   4.659   5.112 -0.4377  0.2340  0.0829
  670SOL     OW 4963   3.796   0.079   4.664 -0.2942  0.4317 -0.1321
  670SOL    HW1 4964   3.822   0.029   4.741  0.8353  0.5241 -0.4250
  670SOL    HW2 4965   3.795   0.170   4.694 -1.7782  0.3092  0.2528
  671SOL     OW 4966   2.304   5.951   5.085  0.8881  0.3468 -0.6285
  671SOL    HW1 4967   2.225   5.898   5.081  1.3442 -0.4032 -0.0296
  671SOL    HW2 4968   2.275   6.037   5.114  0.4461 -0.2909  0.9184
  672SOL     OW 4969   4.095   5.369   1.562 -0.1562  0.4032  0.1277
  672SOL    HW1 4970   4.152   5.293   1.576 -0.7125 -0.3258 -1.3456
  672SOL    HW2 4971   4.132   5.413   1.485  0.2105  1.7130  1.0178
  673SOL     OW 4972   2.600   2.990   4.818  0.4391 -0.1020  0.0307
  673SOL    HW1 4973   2.685   2.948   4.806  1.5729  1.3069  2.3528
  673SOL    HW2 4974   2.620   3.070   4.867 -2.2876 -0.0654  1.2597
  674SOL     OW 4975   1.113   0.435   2.091  0.3349 -0.1102  0.6213
  674SOL    HW1 4976   1.199   0.399   2.071  0.9935  0.4787  2.2035
  674SOL    HW2 4977   1.118   0.458   2.184 -1.3201  0.5241  0.5854
  675SOL     OW 4978   6.615   3.998   3.754  0.3248 -0.7749 -0.0994
  675SOL    HW1 4979   6.524   3.970   3.743  0.0745 -0.3206  0.7466
  675SOL    HW2 4980   6.613   4.061   3.826  1.2041 -0.1999 -0.5483
  676SOL     OW 4981   2.487   1.156   6.333  0.0597 -0.3221 -0.0671
  676SOL    HW1 4982   2.421   1.224   6.341 -1.4921 -1.7585 -0.0675
  676SOL    HW2 4983   2.444   1.076   6.364  2.1611 -1.1310  1.0632
  677SOL     OW 4984   0.689   7.984   5.061 -0.1553 -0.4641 -0.0271
  677SOL    HW1 4985   0.643   8.043   5.002  0.1256  0.7281  0.9129
  677SOL    HW2 4986   0.705   7.905   5.009  1.9863  1.3126 -2.2566
  678SOL     OW 4987   6.792   0.981   1.671 -0.2038  0.4105  0.1427
  678SOL    HW1 4988   6.865   0.920   1.681  0.3697  1.2082  1.0029
  678SOL    HW2 4989   6.813   1.054   1.730 -0.6272  1.6739 -1.1987
  679SOL     OW 4990   1.971   5.619   6.667 -0.2916 -0.0732  0.4286
  679SOL    HW1 4991   1.922   5.539   6.685 -0.1260 -0.8666 -2.2517
  679SOL    HW2 4992   2.045   5.591   6.613 -0.4029  1.8828 -0.8415
  680SOL     OW 4993   5.609   7.299   2.897 -0.2356  0.2431 -0.1549
  680SOL    HW1 4994   5.522   7.313   2.937 -0.1372  1.0522 -0.2154
  680SOL    HW2 4995   5.670   7.344   2.956  0.4209 -2.0582  1.0337
  681SOL     OW 4996   6.965   1.800   7.554  0.1105  0.0087 -0.0492
  681SOL    HW1 4997   6.934   1.711   7.568  1.7784 -0.4611  0.9585
  681SOL    HW2 4998   7.041   1.808   7.611  0.9209  1.5764 -1.2643
  682SOL     OW 4999   5.917   7.870   3.164  0.1882  0.5974 -0.0663
  682SOL    HW1 5000   5.959   7.940   3.214 -0.7441  1.1366 -0.0268
  682SOL    HW2 5001   5.825   7.894   3.161 -0.6491 -1.8821  2.0787
  683SOL     OW 5002   7.479   1.023   8.043 -0.0154 -0.5125  0.1260
  683SOL    HW1 5003   7.538   1.070   7.985  0.6481 -0.9749  0.4136
  683SOL    HW2 5004   7.428   0.967   7.985 -0.6400  0.3696 -0.1912
  684SOL     OW 5005   1.253   0.424   6.100  0.4520 -0.5875 -0.1256
  684SOL    HW1 5006   1.194   0.384   6.037  1.3416 -0.0144 -1.3811
  684SOL    HW2 5007   1.224   0.392   6.185 -0.8646 -1.2851 -0.8159
  685SOL     OW 5008   4.441   7.924   5.500  0.1359  0.0035  0.0680
  685SOL    HW1 5009   4.402   7.875   5.572  0.4190  1.6651  1.4055
  685SOL    HW2 5010   4.366   7.946   5.444 -0.3230  0.0713  0.6963
  686SOL     OW 5011   5.052   0.538   5.138  0.6923 -0.3482  0.2138
  686SOL    HW1 5012   4.986   0.608   5.142  1.2550  0.1391  1.2671
  686SOL    HW2 5013   5.116   0.569   5.075 -0.7179 -1.4315 -1.8917
  687SOL     OW 5014   3.243   5.135   5.892 -0.4660 -0.3147  0.3955
  687SOL    HW1 5015   3.179   5.064   5.890 -0.0634 -0.6616 -0.4494
  687SOL    HW2 5016   3.326   5.094   5.868  0.1594  0.0649  1.7703
  688SOL     OW 5017   6.040   1.688   6.494  0.0278 -0.0308  0.8469
  688SOL    HW1 5018   6.115   1.628   6.494  0.0711 -0.0199 -0.7355
  688SOL    HW2 5019   6.017   1.698   6.401 -1.3348  0.7216  1.2393
  689SOL     OW 5020   5.588   6.002   4.789 -0.0876  0.0654  0.2033
  689SOL    HW1 5021   5.551   6.034   4.707  0.0500 -0.9430 -0.2780
  689SOL    HW2 5022   5.646   6.072   4.818  0.5402  0.0984 -1.0318
  690SOL     OW 5023   3.666   2.398   0.062  0.7223 -0.2058  0.3432
  690SOL    HW1 5024   3.580   2.356   0.073  1.2752 -1.2713  0.7226
  690SOL    HW2 5025   3.646   2.481   0.018 -0.4634 -0.6149  0.0552
  691SOL     OW 5026   6.467   6.431   5.586  0.4990  0.3774  0.0205
  691SOL    HW1 5027   6.454   6.348   5.541  0.7281  0.3503  0.0035
  691SOL    HW2 5028   6.446   6.498   5.521 -0.6006  0.3360  0.3009
  692SOL     OW 5029   4.226   0.326   0.898 -0.4784  0.3767  0.0176
  692SOL    HW1 5030   4.138   0.350   0.867 -1.1483 -0.0016  1.5300
  692SOL    HW2 5031   4.219   0.233   0.921  0.9392 -0.2522 -1.8452
  693SOL     OW 5032   1.884   4.196   6.151  0.0604  0.0813 -0.0081
  693SOL    HW1 5033   1.878   4.289   6.127  2.4666  0.2141 -0.3300
  693SOL    HW2 5034   1.914   4.197   6.242 -0.9190 -0.4219  0.3404
  694SOL     OW 5035   3.715   3.776   6.259  0.8902  0.0153  0.0487
  694SOL    HW1 5036   3.752   3.827   6.331  1.1982  0.6512 -0.5489
  694SOL    HW2 5037   3.653   3.716   6.301 -0.1339  1.4648  0.7047
  695SOL     OW 5038   5.646   8.088   5.638 -0.1887  0.1321 -0.0873
  695SOL    HW1 5039   5.696   8.007   5.638  1.1472  0.9023  1.0634
  695SOL    HW2 5040   5.570   8.070   5.583 -0.8923 -2.4904  1.5458
  696SOL     OW 5041   7.265   1.796   5.094  0.0751  0.4535  0.1495
  696SOL    HW1 5042   7.252   1.855   5.019 -0.1240  0.3606  0.1085
  696SOL    HW2 5043   7.279   1.710   5.054  1.3846  0.6386  0.1752
  697SOL     OW 5044   0.879   2.954   5.813 -0.0961  0.6626  0.4652
  697SOL    HW1 5045   0.805   2.965   5.872 -1.7692 -0.6392 -1.2838
  697SOL    HW2 5046   0.866   2.867   5.774  2.3497  0.4084  0.0711
  698SOL     OW 5047   7.315   2.928   0.115  0.6214  0.2298  0.0152
  698SOL    HW1 5048   7.252   2.898   0.050  1.0018 -0.9668  0.1729
  698SOL    HW2 5049   7.399   2.892   0.086  1.0479  0.9246  0.3687
  699SOL     OW 5050   5.283   0.980   3.668 -0.6855  0.3864  0.2061
  699SOL    HW1 5051   5.376   0.981   3.693 -0.8438  2.1580  0.8660
  699SOL    HW2 5052   5.281   1.016   3.580 -0.7455  0.3611  0.1969
  700SOL     OW 5053   7.274   4.972   4.077 -0.0020  0.4761 -0.2794
  700SOL    HW1 5054   7.359   5.016   4.082  1.1496 -1.7674  3.2385
  700SOL    HW2 5055   7.289   4.895   4.023 -0.6268  1.4380 -1.9208
  701SOL     OW 5056   7.846   7.827   7.662  0.7072 -0.4153 -0.7118
  701SOL    HW1 5057   7.753   7.841   7.645  0.6951  2.0472  0.9704
  701SOL    HW2 5058   7.849   7.745   7.711 -0.6353 -0.3086 -0.4095
  702SOL     OW 5059   1.988   2.565   7.246 -0.6655  0.2277 -0.0967
  702SOL    HW1 5060   1.946   2.490   7.204  1.3900 -0.0569 -1.8401
  702SOL    HW2 5061   1.944   2.641   7.208 -1.1156 -0.0856 -0.2050
  703SOL     OW 5062   2.055   6.126   7.707 -0.5387  0.4588 -0.1992
  703SOL    HW1 5063   2.148   6.145   7.716 -0.5510  0.9801 -1.0057
  703SOL    HW2 5064   2.012   6.209   7.730 -0.8925 -0.2335  1.7213
  704SOL     OW 5065   7.314   0.026   0.803  0.7227 -0.4227 -0.0318
  704SOL    HW1 5066   7.301   0.104   0.856  1.6062  0.2452 -0.7558
  704SOL    HW2 5067   7.256   0.039   0.728  0.9380 -0.4108 -0.1973
  705SOL     OW 5068   6.740   4.290   0.416  0.0162 -0.1188  0.1964
  705SOL    HW1 5069   6.739   4.386   0.423 -1.3383 -0.0728 -0.2426
  705SOL    HW2 5070   6.797   4.261   0.488  0.5392  1.0125  0.2617
  706SOL     OW 5071   1.568   1.525   0.412 -0.4997  0.2697  0.7836
  706SOL    HW1 5072   1.540   1.540   0.503 -0.1753 -0.3123  0.9837
  706SOL    HW2 5073   1.663   1.512   0.418 -0.3712  0.9234  0.2715
  707SOL     OW 5074   3.656   4.097   1.506  0.1719 -0.1988  0.2990
  707SOL    HW1 5075   3.631   4.142   1.587 -0.5087  1.3381 -0.7219
  707SOL    HW2 5076   3.641   4.004   1.525  0.1962  0.1098  1.9828
  708SOL     OW 5077   1.273   1.631   6.552 -0.6437  0.4981  0.1368
  708SOL    HW1 5078   1.254   1.660   6.641 -0.5201 -0.2219  0.3996
  708SOL    HW2 5079   1.291   1.712   6.504 -0.6019  0.8792  0.7854
  709SOL     OW 5080   5.651   7.827   6.021  0.1786 -0.3337  0.2787
  709SOL    HW1 5081   5.675   7.807   5.931 -2.0575 -0.3954 -0.3609
  709SOL    HW2 5082   5.726   7.876   6.056 -0.1146  2.4655 -2.5845
  710SOL     OW 5083   2.936   1.680   0.587  0.0223  0.5523 -0.6487
  710SOL    HW1 5084   2.894   1.701   0.504 -1.8279  0.3383  0.2008
  710SOL    HW2 5085   2.869   1.633   0.638  1.8722 -1.5415  0.0492
  711SOL     OW 5086   2.258   2.517   7.767 -0.3943  0.2078 -0.9754
  711SOL    HW1 5087   2.298   2.564   7.693 -1.9368  0.8841 -1.4331
  711SOL    HW2 5088   2.324   2.520   7.836  0.9825 -0.2054 -2.2300
  712SOL     OW 5089   3.433   2.912   8.004 -0.1301 -0.5824  0.2016
  712SOL    HW1 5090   3.512   2.964   7.988 -0.8861  0.0705 -1.7776
  712SOL    HW2 5091   3.465   2.828   8.037  1.2783  0.1651  0.8054
  713SOL     OW 5092   3.992   1.935   1.151  0.0518 -0.5217 -0.3993
  713SOL    HW1 5093   3.912   1.910   1.106 -0.2402 -0.6535  0.1878
  713SOL    HW2 5094   4.062   1.911   1.090 -0.3980  0.6202 -1.3818
  714SOL     OW 5095   0.690   6.812   6.671 -0.0837 -0.1940 -0.1865
  714SOL    HW1 5096   0.672   6.847   6.758 -0.0349  0.1318 -0.3075
  714SOL    HW2 5097   0.785   6.800   6.668 -0.0388  0.1922 -0.3443
  715SOL     OW 5098   0.523   0.221   2.377  0.3354  0.5784 -0.1199
  715SOL    HW1 5099   0.550   0.174   2.456 -0.4237  0.1508 -0.1047
  715SOL    HW2 5100   0.521   0.313   2.403 -0.2146  0.4076  0.4572
  716SOL     OW 5101   6.217   2.173   0.094 -0.1794  0.0224 -0.6506
  716SOL    HW1 5102   6.164   2.251   0.073  0.0851  0.2489 -0.4781
  716SOL    HW2 5103   6.303   2.192   0.057 -0.3664 -0.5832 -1.4133
  717SOL     OW 5104   3.738   3.760   0.674 -0.9196 -0.1345  0.4412
  717SOL    HW1 5105   3.789   3.705   0.733  0.2765 -0.1309 -0.5544
  717SOL    HW2 5106   3.738   3.712   0.591 -0.9595  0.7406 -0.0768
  718SOL     OW 5107   5.728   4.906   5.450  0.0273  0.3108 -0.5024
  718SOL    HW1 5108   5.791   4.864   5.391  0.6655 -0.4883  0.7126
  718SOL    HW2 5109   5.730   4.853   5.529  0.1936  2.1098  0.7739
  719SOL     OW 5110   6.179   3.568   6.694  0.2707  0.8125 -0.5357
  719SOL    HW1 5111   6.250   3.505   6.707  0.9550  1.5353 -0.7088
  719SOL    HW2 5112   6.100   3.514   6.690  0.9702 -0.1699 -2.0437
  720SOL     OW 5113   6.014   1.302   1.231  0.4252  0.0130  0.1590
  720SOL    HW1 5114   5.967   1.379   1.200 -0.4631 -0.5499  0.0927
  720SOL    HW2 5115   6.093   1.299   1.178  0.5053  0.9173  0.2093
  721SOL     OW 5116   7.859   0.033   1.438  0.2083 -0.3708  0.1260
  721SOL    HW1 5117   7.809  -0.034   1.484  0.2828 -0.6500 -0.2002
  721SOL    HW2 5118   7.950   0.004   1.445  0.3692  0.3014  1.0004
  722SOL     OW 5119   1.343   5.672   1.354  0.1615 -0.2206  0.1955
  722SOL    HW1 5120   1.401   5.747   1.369  0.7711 -0.4647 -0.8159
  722SOL    HW2 5121   1.269   5.708   1.306  0.4329 -0.2494 -0.2504
  723SOL     OW 5122   4.929   0.157   5.134  0.6701  0.6981  0.9085
  723SOL    HW1 5123   4.893   0.242   5.106 -0.2969  0.1601  0.4800
  723SOL    HW2 5124   4.939   0.166   5.228  0.1091  1.1215  0.9342
  724SOL     OW 5125   2.403   1.484   7.048  0.3926 -0.1262  0.6149
  724SOL    HW1 5126   2.430   1.543   7.118  2.2178  0.7199 -0.6872
  724SOL    HW2 5127   2.452   1.516   6.971 -3.9713  1.1919 -1.9854
  725SOL     OW 5128   2.535   3.306   0.507 -0.2344 -0.0035 -0.3918
  725SOL    HW1 5129   2.537   3.274   0.417  1.9073 -0.5726 -0.1779
  725SOL    HW2 5130   2.560   3.398   0.500  1.3677 -0.4085 -0.2718
  726SOL     OW 5131   6.677   3.564   5.485 -0.3037 -0.3976  0.2307
  726SOL    HW1 5132   6.765   3.561   5.523  0.2912 -0.3811 -1.0892
  726SOL    HW2 5133   6.636   3.482   5.513  0.6423 -1.0741 -0.3001
  727SOL     OW 5134   1.007   0.952   0.719 -0.3353  0.1319 -0.0189
  727SOL    HW1 5135   1.036   0.861   0.719 -1.3590 -0.2140 -0.3649
  727SOL    HW2 5136   0.954   0.960   0.639  0.4043  1.2538 -0.4190
  728SOL     OW 5137   2.974   0.640   6.256  0.6607 -0.3047  0.3497
  728SOL    HW1 5138   2.947   0.585   6.183 -1.1182  0.5177  0.3208
  728SOL    HW2 5139   3.007   0.720   6.216 -0.5803  0.2617  0.4074
  729SOL     OW 5140   4.448   2.162   6.955  0.6683  0.2429 -0.1892
  729SOL    HW1 5141   4.400   2.171   6.872 -1.5467  0.9758  1.0727
  729SOL    HW2 5142   4.416   2.081   6.993  0.8147  0.4709  0.4431
  730SOL     OW 5143   2.839   6.515   7.158  0.1912  0.2724  0.2395
  730SOL    HW1 5144   2.923   6.489   7.121  0.4637  0.6048  0.6083
  730SOL    HW2 5145   2.855   6.602   7.194 -0.6847  0.9653 -0.9502
  731SOL     OW 5146   4.949   2.193   7.690  0.5054 -0.4789 -0.2124
  731SOL    HW1 5147   4.933   2.125   7.755 -1.5754  0.0651 -0.0825
  731SOL    HW2 5148   4.933   2.275   7.736  1.4914  0.0451 -0.7644
  732SOL     OW 5149   4.499   3.783   1.836  0.5633  0.0661  0.2803
  732SOL    HW1 5150   4.535   3.822   1.757  1.6182 -1.4672 -0.0444
  732SOL    HW2 5151   4.517   3.689   1.827 -2.0485 -0.5752  0.9021
  733SOL     OW 5152   1.947   6.572   0.526 -0.2714 -0.3420 -0.1654
  733SOL    HW1 5153   1.965   6.559   0.433  0.8682 -0.9670  0.1154
  733SOL    HW2 5154   1.917   6.486   0.556  0.3114 -0.4133  0.2305
  734SOL     OW 5155   6.170   2.428   2.867  0.0155 -0.1388  0.1645
  734SOL    HW1 5156   6.184   2.362   2.799 -1.3701  0.0061 -0.2969
  734SOL    HW2 5157   6.143   2.506   2.819 -0.5443  0.0989  0.8565
  735SOL     OW 5158   2.310   3.696   7.486  0.1377 -0.0797  0.2771
  735SOL    HW1 5159   2.354   3.675   7.404  0.7089  0.8916  0.3207
  735SOL    HW2 5160   2.381   3.703   7.550  0.0192  2.1067  0.2199
  736SOL     OW 5161   2.701   6.031   7.406  0.3533  0.3540 -0.4292
  736SOL    HW1 5162   2.665   6.065   7.324  0.2611 -0.4612 -0.7396
  736SOL    HW2 5163   2.700   6.106   7.465  0.6038  1.0078 -1.2281
  737SOL     OW 5164   7.753   0.730   6.649 -0.2594 -0.2274  0.6820
  737SOL    HW1 5165   7.736   0.637   6.664  1.0975 -0.3574  1.5975
  737SOL    HW2 5166   7.686   0.776   6.699 -0.1663 -0.7143  1.2641
  738SOL     OW 5167   2.556   0.356   4.420 -0.2328 -0.3469  0.3730
  738SOL    HW1 5168   2.576   0.450   4.416 -0.8225 -0.2747 -2.1281
  738SOL    HW2 5169   2.585   0.330   4.508  2.5562  1.5641  0.1541
  739SOL     OW 5170   5.800   1.754   3.913 -0.3947  0.3831  0.2066
  739SOL    HW1 5171   5.784   1.704   3.993 -0.5629  0.5842  0.2980
  739SOL    HW2 5172   5.847   1.832   3.942  1.2342 -0.4366 -0.1150
  740SOL     OW 5173   1.499   0.486   4.777 -0.0157 -0.0983  0.1711
  740SOL    HW1 5174   1.515   0.440   4.860 -0.6296  1.8387  1.4382
  740SOL    HW2 5175   1.404   0.498   4.775  0.2013  2.1695  0.5590
  741SOL     OW 5176   5.217   6.719   5.244  0.6559  0.1752  0.2217
  741SOL    HW1 5177   5.161   6.740   5.169  0.4958 -0.4556  0.1601
  741SOL    HW2 5178   5.304   6.746   5.216  0.5172  0.3977 -0.0040
  742SOL     OW 5179   1.193   3.836   5.865 -0.2637  0.0387  0.2964
  742SOL    HW1 5180   1.124   3.868   5.923  0.6216  1.8489  0.4229
  742SOL    HW2 5181   1.236   3.915   5.833 -0.7151 -0.8793 -2.8760
  743SOL     OW 5182   0.675   0.341   7.352  0.5946  0.2245 -0.2377
  743SOL    HW1 5183   0.673   0.274   7.420  0.8259  0.2958 -0.1581
  743SOL    HW2 5184   0.583   0.359   7.332  0.5305 -0.0181 -0.1627
  744SOL     OW 5185   5.501   0.270   2.864 -0.1259 -0.1393 -0.1064
  744SOL    HW1 5186   5.422   0.320   2.847 -0.7273 -0.9543  0.2088
  744SOL    HW2 5187   5.543   0.261   2.778 -0.7904 -0.3639 -0.4140
  745SOL     OW 5188   2.611   0.903   3.172 -0.0019  0.6955 -0.6246
  745SOL    HW1 5189   2.700   0.870   3.187 -0.9798 -2.9768 -1.9258
  745SOL    HW2 5190   2.564   0.883   3.253 -0.6099 -1.4968 -1.4349
  746SOL     OW 5191   5.883   5.762   2.402 -0.4744 -0.3005  0.1320
  746SOL    HW1 5192   5.913   5.777   2.312 -2.1098 -2.4609 -0.8436
  746SOL    HW2 5193   5.804   5.815   2.410 -0.7135 -0.6517  0.0744
  747SOL     OW 5194   0.642   1.602   6.435  0.2787  0.2016 -0.0786
  747SOL    HW1 5195   0.701   1.582   6.508  0.9366  1.7550 -0.1316
  747SOL    HW2 5196   0.671   1.689   6.405  0.0312 -0.3940 -2.1850
  748SOL     OW 5197   4.106   0.572   5.745  0.3236 -0.4357  0.1709
  748SOL    HW1 5198   4.197   0.542   5.736  0.3992 -0.4365  0.9065
  748SOL    HW2 5199   4.107   0.631   5.820  0.0403  0.9455 -0.8742
  749SOL     OW 5200   6.109   5.945   4.996  0.4069  0.3743  0.1709
  749SOL    HW1 5201   6.153   6.025   5.025 -2.7959  2.5025 -0.2572
  749SOL    HW2 5202   6.087   5.900   5.078  1.2019  0.5243  0.4791
  750SOL     OW 5203   7.860   7.536   4.377  0.0291 -0.2663 -0.1316
  750SOL    HW1 5204   7.820   7.450   4.365 -0.3570 -0.0875 -0.1459
  750SOL    HW2 5205   7.786   7.596   4.385  0.2527  0.3389 -1.9634
  751SOL     OW 5206   5.333   4.267   3.731 -0.3068 -0.1287  0.2476
  751SOL    HW1 5207   5.410   4.323   3.737  0.4621 -0.9496 -1.2786
  751SOL    HW2 5208   5.298   4.284   3.644 -1.7578  0.0720  0.8448
  752SOL     OW 5209   3.339   1.574   2.807  0.1903 -0.4687 -0.2513
  752SOL    HW1 5210   3.253   1.615   2.802  0.5930  0.5649  0.8655
  752SOL    HW2 5211   3.399   1.640   2.770  0.4194 -1.5644 -1.9698
  753SOL     OW 5212   2.765   0.809   0.319  0.7432  0.0126 -0.0188
  753SOL    HW1 5213   2.724   0.894   0.302  1.4974  0.6256  1.0931
  753SOL    HW2 5214   2.854   0.817   0.284  1.4556  0.3910  1.7562
  754SOL     OW 5215   4.479   1.349   4.875  0.2375 -0.5972 -0.2240
  754SOL    HW1 5216   4.540   1.377   4.942  1.0716 -0.1928 -1.1369
  754SOL    HW2 5217   4.501   1.257   4.858  0.6303 -0.4410 -0.5793
  755SOL     OW 5218   7.279   4.369   2.162  0.0176  0.1872  0.1861
  755SOL    HW1 5219   7.193   4.395   2.195 -1.0521 -0.8358 -1.6245
  755SOL    HW2 5220   7.278   4.274   2.165  1.6548  0.1621  1.3938
  756SOL     OW 5221   1.791   0.834   3.654  0.1517 -0.3790  0.6123
  756SOL    HW1 5222   1.779   0.903   3.719  2.0089 -1.8455  2.6604
  756SOL    HW2 5223   1.703   0.796   3.644 -0.8164  1.9163 -0.2483
  757SOL     OW 5224   3.916   6.548   3.867 -0.1298 -0.5120 -0.5181
  757SOL    HW1 5225   3.920   6.539   3.772  1.6844 -0.2195 -0.5145
  757SOL    HW2 5226   3.879   6.466   3.898 -0.0642 -0.8968 -1.4458
  758SOL     OW 5227   0.932   7.541   1.882  0.3226  0.3147 -0.5600
  758SOL    HW1 5228   0.889   7.526   1.797  0.4908  0.4558 -0.6727
  758SOL    HW2 5229   0.914   7.463   1.933 -2.6161  1.5291  0.4789
  759SOL     OW 5230   4.563   5.814   0.352  0.6792  0.0759  0.1281
  759SOL    HW1 5231   4.612   5.855   0.280 -0.5760 -0.1242 -0.8699
  759SOL    HW2 5232   4.516   5.887   0.393  1.2705  0.1646  0.6697
  760SOL     OW 5233   3.485   2.696   3.413 -0.1919  0.3538 -0.0409
  760SOL    HW1 5234   3.416   2.668   3.473 -1.0940  1.7569 -0.3691
  760SOL    HW2 5235   3.482   2.634   3.341  0.5222 -1.0114  1.0644
  761SOL     OW 5236   0.391   0.525   4.867  0.0005  0.1098  0.3420
  761SOL    HW1 5237   0.404   0.508   4.774 -0.2359  0.8223  0.1694
  761SOL    HW2 5238   0.299   0.552   4.874 -0.5162 -1.7311  1.0667
  762SOL     OW 5239   3.136   0.541   0.614 -0.0396  0.2374  1.0054
  762SOL    HW1 5240   3.113   0.618   0.562 -0.4362 -0.5216  0.0285
  762SOL    HW2 5241   3.192   0.489   0.556 -0.0282 -0.3562  1.5454
  763SOL     OW 5242   3.366   3.138   3.976 -0.9704 -0.0910 -0.1803
  763SOL    HW1 5243   3.325   3.125   3.890 -1.4724  0.3105 -0.0086
  763SOL    HW2 5244   3.292   3.149   4.036 -0.6643 -1.6180  0.5213
  764SOL     OW 5245   3.356   3.650   4.326 -0.2652 -0.2317  0.2352
  764SOL    HW1 5246   3.289   3.601   4.374 -0.4218 -0.6737 -0.4161
  764SOL    HW2 5247   3.377   3.724   4.382  0.6821 -1.5533  1.7230
  765SOL     OW 5248   2.048   7.511   3.447 -0.7910  0.2701 -0.2297
  765SOL    HW1 5249   2.057   7.513   3.542  0.9570  1.7773 -0.3865
  765SOL    HW2 5250   2.131   7.544   3.414 -0.9405 -1.2543 -2.3331
  766SOL     OW 5251   0.891   4.480   6.272 -0.1722 -0.1149  0.7995
  766SOL    HW1 5252   0.926   4.564   6.243  1.1536 -0.8573  0.1404
  766SOL    HW2 5253   0.921   4.472   6.363 -0.3929  0.1554  0.8998
  767SOL     OW 5254   3.689   6.226   2.276  0.3423  0.3076  0.0183
  767SOL    HW1 5255   3.635   6.304   2.279 -0.7211 -0.2662 -1.9169
  767SOL    HW2 5256   3.756   6.245   2.210 -1.5999 -1.2700 -2.6240
  768SOL     OW 5257   3.688   4.774   6.607 -0.1037 -0.1830 -0.8990
  768SOL    HW1 5258   3.682   4.820   6.691  3.4421  0.2011 -0.7200
  768SOL    HW2 5259   3.597   4.764   6.579 -1.6609 -1.7307  3.6817
  769SOL     OW 5260   2.693   1.212   1.201  0.4211  0.0219 -0.2652
  769SOL    HW1 5261   2.724   1.247   1.284  0.0548 -0.3315  0.0284
  769SOL    HW2 5262   2.621   1.153   1.225 -0.1439  0.4432 -0.8876
  770SOL     OW 5263   0.558   0.766   0.145 -0.2663  0.7398  0.1079
  770SOL    HW1 5264   0.500   0.841   0.135  0.1271  0.9802 -0.4476
  770SOL    HW2 5265   0.586   0.746   0.055 -1.3686 -0.8737  0.0797
  771SOL     OW 5266   5.290   4.422   3.975 -0.4444  0.1064  0.6440
  771SOL    HW1 5267   5.288   4.357   3.905  0.6241 -0.3125  0.9767
  771SOL    HW2 5268   5.200   4.455   3.980 -0.6095 -0.1023 -0.6769
  772SOL     OW 5269   6.428   7.933   0.049 -0.4603 -0.2661  0.0139
  772SOL    HW1 5270   6.340   7.914   0.018 -1.5180  0.2051  2.4676
  772SOL    HW2 5271   6.486   7.908  -0.023 -2.5283 -1.4732 -1.3072
  773SOL     OW 5272   6.922   5.735   6.711  0.6677 -0.6738  0.1153
  773SOL    HW1 5273   6.908   5.817   6.663 -0.0209 -1.8074 -1.7585
  773SOL    HW2 5274   7.000   5.752   6.765  1.2216  0.8587 -1.0799
  774SOL     OW 5275   5.371   7.545   4.487 -0.1651 -1.0501  0.4872
  774SOL    HW1 5276   5.281   7.517   4.504 -1.4480  2.7237  1.0149
  774SOL    HW2 5277   5.422   7.513   4.561 -1.3631 -2.1323  0.8585
  775SOL     OW 5278   8.013   0.004   7.016  0.2355  0.4309 -0.8319
  775SOL    HW1 5279   8.000  -0.026   7.106  0.8209  0.5522 -0.7055
  775SOL    HW2 5280   7.956  -0.053   6.964  1.2342 -0.8344 -0.5845
  776SOL     OW 5281   7.745   7.269   4.587  0.5842  0.0885  0.3342
  776SOL    HW1 5282   7.737   7.285   4.681  0.1918  0.1852  0.2841
  776SOL    HW2 5283   7.839   7.259   4.573  0.7485  1.1991  0.5580
  777SOL     OW 5284   6.215   2.231   6.152  0.2125  0.2848  0.3193
  777SOL    HW1 5285   6.231   2.138   6.140 -0.2247 -0.1043  2.3938
  777SOL    HW2 5286   6.302   2.270   6.157  0.4382 -0.2860  1.1164
  778SOL     OW 5287   5.973   7.248   6.190  0.3920  0.3475 -0.2615
  778SOL    HW1 5288   5.965   7.155   6.168 -0.1641 -0.0725  1.5293
  778SOL    HW2 5289   6.066   7.260   6.208  0.1467 -0.5423  1.9980
  779SOL     OW 5290   3.071   2.314   7.534  0.2283 -0.7027 -0.5850
  779SOL    HW1 5291   2.994   2.318   7.477  2.4896 -0.1594 -3.8936
  779SOL    HW2 5292   3.071   2.224   7.566 -1.7506 -0.7163 -0.4955
  780SOL     OW 5293   0.472   1.775   6.917  0.1773  0.1760 -0.3643
  780SOL    HW1 5294   0.508   1.825   6.844  3.1104  1.6505  1.9084
  780SOL    HW2 5295   0.515   1.689   6.911 -0.6050 -0.1853 -1.0603
  781SOL     OW 5296   1.656   5.873   7.049 -0.0233 -0.5498  0.3609
  781SOL    HW1 5297   1.739   5.872   7.096  0.0856  2.6906  0.4188
  781SOL    HW2 5298   1.680   5.856   6.958  0.5079 -0.9484  0.5704
  782SOL     OW 5299   2.520   2.142   1.765  0.1468  0.2723  0.3986
  782SOL    HW1 5300   2.610   2.171   1.780  0.5453 -0.1901 -0.9268
  782SOL    HW2 5301   2.523   2.048   1.779 -0.6417  0.4987  2.4527
  783SOL     OW 5302   7.389   6.516   7.962 -0.3180 -0.4706  0.1767
  783SOL    HW1 5303   7.453   6.545   7.896  0.6418  0.1654  1.3433
  783SOL    HW2 5304   7.387   6.587   8.026 -2.5665 -0.2710 -0.0424
  784SOL     OW 5305   4.459   4.428   2.105 -0.3631  0.1860  0.3276
  784SOL    HW1 5306   4.465   4.453   2.197 -0.6691  0.1708  0.3546
  784SOL    HW2 5307   4.373   4.387   2.097 -0.0770 -0.4034  0.1782
  785SOL     OW 5308   0.579   5.711   7.682  0.5609 -0.3584 -0.0237
  785SOL    HW1 5309   0.506   5.768   7.707  1.1617  1.3024 -1.7509
  785SOL    HW2 5310   0.657   5.756   7.714  1.2151  1.0400 -3.1911
  786SOL     OW 5311   2.481   7.714   0.908 -0.5832 -0.0888 -0.4473
  786SOL    HW1 5312   2.433   7.739   0.830 -1.7630 -1.7644 -0.2975
  786SOL    HW2 5313   2.565   7.682   0.876 -0.9973 -0.6142 -1.0270
  787SOL     OW 5314   3.737   0.427   5.538  0.3114  0.3947  0.2997
  787SOL    HW1 5315   3.681   0.505   5.542  1.1248  0.9416  2.8917
  787SOL    HW2 5316   3.682   0.357   5.573  0.2154  0.2002 -0.2268
  788SOL     OW 5317   0.488   3.538   0.460  0.0174  0.2945 -0.6872
  788SOL    HW1 5318   0.472   3.517   0.368  0.2701  1.2828 -0.9602
  788SOL    HW2 5319   0.426   3.608   0.481  1.4940  1.6782 -0.7704
  789SOL     OW 5320   0.299   3.228   3.070 -0.3903 -1.0205 -0.4598
  789SOL    HW1 5321   0.205   3.233   3.087 -0.3313  1.0019 -0.4727
  789SOL    HW2 5322   0.339   3.268   3.147  0.2790  0.9183 -1.7385
  790SOL     OW 5323   6.398   1.008   5.667 -0.3222 -0.2819 -0.0665
  790SOL    HW1 5324   6.393   1.024   5.573  1.4956 -3.1536 -0.8009
  790SOL    HW2 5325   6.487   1.035   5.691 -1.4088  2.4313  1.4220
  791SOL     OW 5326   0.660   5.354   3.879  0.4129 -0.0166  0.1231
  791SOL    HW1 5327   0.636   5.445   3.863  1.9430  0.0687 -1.9512
  791SOL    HW2 5328   0.577   5.306   3.873 -0.2965  1.1192  0.5099
  792SOL     OW 5329   0.590   1.780   1.526 -0.1534 -0.7239  0.3053
  792SOL    HW1 5330   0.663   1.823   1.569 -0.8208  0.1183  0.6230
  792SOL    HW2 5331   0.615   1.778   1.433  0.3616 -0.6371  0.4404
  793SOL     OW 5332   0.222   3.504   2.354  0.3636 -0.4889  0.6656
  793SOL    HW1 5333   0.298   3.540   2.398  0.7488 -0.5952  0.0914
  793SOL    HW2 5334   0.257   3.462   2.275 -0.1098 -1.8556  1.1702
  794SOL     OW 5335   6.032   1.247   5.136 -0.4043  0.5954  1.0366
  794SOL    HW1 5336   6.077   1.240   5.051 -0.4521  1.7289  0.8952
  794SOL    HW2 5337   5.943   1.273   5.113 -0.3440  1.1823  1.4346
  795SOL     OW 5338   6.715   1.145   7.521 -0.1127  0.4192 -0.4010
  795SOL    HW1 5339   6.682   1.216   7.575  0.1728  0.3374 -0.1181
  795SOL    HW2 5340   6.794   1.180   7.480  1.1302 -0.3311  1.2198
  796SOL     OW 5341   2.296   5.062   5.967 -0.0682  0.0624  0.1039
  796SOL    HW1 5342   2.280   5.051   6.061  2.1039  1.1508  0.6586
  796SOL    HW2 5343   2.278   5.154   5.950  1.2029  0.2891 -0.1423
  797SOL     OW 5344   4.190   4.378   1.837  0.6891  0.2242 -0.2402
  797SOL    HW1 5345   4.177   4.294   1.794 -1.9692  0.5341 -0.2103
  797SOL    HW2 5346   4.190   4.358   1.930  0.1514  0.2136 -0.2367
  798SOL     OW 5347   7.347   0.748   3.914 -0.1399 -0.3682 -0.3609
  798SOL    HW1 5348   7.275   0.750   3.977  1.6795  1.2606  1.8408
  798SOL    HW2 5349   7.359   0.655   3.894 -1.3837 -0.8502  0.9741
  799SOL     OW 5350   2.418   2.597   5.410  0.6662 -0.2181  0.3787
  799SOL    HW1 5351   2.426   2.544   5.331  0.5061 -0.7515  0.7136
  799SOL    HW2 5352   2.492   2.658   5.406  0.5175 -0.0814 -0.2987
  800SOL     OW 5353   6.222   0.613   6.285 -0.7077 -0.0745 -0.4729
  800SOL    HW1 5354   6.193   0.700   6.314  1.0968 -0.0535  1.5605
  800SOL    HW2 5355   6.166   0.552   6.332  0.3450  0.0046  0.9585
  801SOL     OW 5356   4.375   5.926   5.916 -0.3599  0.4123  0.3696
  801SOL    HW1 5357   4.407   6.015   5.901  0.5960 -0.0064 -0.1733
  801SOL    HW2 5358   4.367   5.920   6.011 -2.1446  1.6371  0.3427
  802SOL     OW 5359   8.099   0.523   4.683 -0.4730  0.0569  0.5263
  802SOL    HW1 5360   8.128   0.431   4.691  0.2438  0.3251  1.1389
  802SOL    HW2 5361   8.061   0.528   4.596 -1.1883 -1.0063  0.7557
  803SOL     OW 5362   3.390   2.487   4.981  0.8821  0.3933 -0.4240
  803SOL    HW1 5363   3.391   2.492   5.077 -1.0829 -1.4129 -0.2147
  803SOL    HW2 5364   3.315   2.541   4.955 -0.8338 -1.8931 -0.5637
  804SOL     OW 5365   5.069   5.773   1.793 -0.5871 -0.2118  0.3749
  804SOL    HW1 5366   5.116   5.839   1.843  0.6288 -0.8260  0.0803
  804SOL    HW2 5367   5.104   5.689   1.825 -0.5655 -0.6431 -0.7485
  805SOL     OW 5368   1.472   4.728   5.567  0.3534 -0.0645  0.1155
  805SOL    HW1 5369   1.399   4.713   5.626  0.9724  0.3775  1.0290
  805SOL    HW2 5370   1.541   4.670   5.598  0.8201  0.4568  0.0758
  806SOL     OW 5371   2.876   0.502   6.059 -0.0951  0.3869 -0.0078
  806SOL    HW1 5372   2.839   0.421   6.094  0.5074  1.1220  2.5573
  806SOL    HW2 5373   2.814   0.531   5.993  0.1573 -2.6290 -1.7482
  807SOL     OW 5374   1.399   1.946   4.100  0.5698  0.4164 -0.3644
  807SOL    HW1 5375   1.444   2.008   4.044 -0.4310  1.0204 -0.5170
  807SOL    HW2 5376   1.325   1.995   4.136  0.1907 -0.4709  0.1008
  808SOL     OW 5377   6.067   4.575   0.166  0.5614 -0.1570 -0.2637
  808SOL    HW1 5378   6.016   4.650   0.197  0.2690 -0.7818  0.8224
  808SOL    HW2 5379   6.120   4.610   0.094  0.8959  1.2367  0.6208
  809SOL     OW 5380   7.441   7.183   7.823  0.3666 -0.2876  0.6981
  809SOL    HW1 5381   7.534   7.202   7.812  0.7210 -1.6978  1.1124
  809SOL    HW2 5382   7.413   7.150   7.738  0.3399 -0.2590  0.6958
  810SOL     OW 5383   2.926   0.716   2.688  0.0179  0.1659 -0.5250
  810SOL    HW1 5384   2.961   0.646   2.633 -0.0409  1.7779 -2.7008
  810SOL    HW2 5385   3.003   0.763   2.720  0.0235 -0.3559  0.2663
  811SOL     OW 5386   4.411   1.157   0.284 -0.0023 -0.2669  0.4887
  811SOL    HW1 5387   4.498   1.199   0.286 -0.4118  0.6183  0.1361
  811SOL    HW2 5388   4.362   1.201   0.353 -0.3552 -0.3692  0.3043
  812SOL     OW 5389   3.179   1.334   4.098 -0.6127  0.3730  0.0619
  812SOL    HW1 5390   3.221   1.418   4.083 -0.6344  0.5438  0.8664
  812SOL    HW2 5391   3.085   1.352   4.092 -0.5966  0.0903 -1.2556
  813SOL     OW 5392   3.622   0.537   6.958  0.1351  0.4058  0.0084
  813SOL    HW1 5393   3.700   0.505   6.913  0.8085  0.4610  1.1092
  813SOL    HW2 5394   3.578   0.593   6.893  0.9920  0.3594 -0.6236
  814SOL     OW 5395   2.700   2.500   7.828  0.2759 -0.2667  0.1106
  814SOL    HW1 5396   2.764   2.473   7.893  0.7032  0.4344 -0.0052
  814SOL    HW2 5397   2.623   2.448   7.847  0.8364 -1.0383  0.3307
  815SOL     OW 5398   1.136   0.542   0.197 -0.0972 -0.1412 -0.2261
  815SOL    HW1 5399   1.201   0.605   0.168 -0.3274  0.1693 -0.0677
  815SOL    HW2 5400   1.052   0.582   0.176 -0.2533 -0.2137  0.2347
  816SOL     OW 5401   4.042   0.902   0.599 -0.2322 -0.1870  0.4642
  816SOL    HW1 5402   3.983   0.954   0.654 -0.1469  0.8295 -0.3733
  816SOL    HW2 5403   4.126   0.948   0.604 -0.3248  0.1633 -0.8087
  817SOL     OW 5404   6.918   0.194   6.377  0.1044  0.0860 -0.5258
  817SOL    HW1 5405   6.838   0.157   6.337 -0.0352  0.7046 -0.8300
  817SOL    HW2 5406   6.939   0.269   6.322  1.3215 -0.4961 -0.8820
  818SOL     OW 5407   5.763   0.139   7.940 -0.0499  0.1899 -0.4002
  818SOL    HW1 5408   5.801   0.075   7.999  0.3124  2.3848  1.9610
  818SOL    HW2 5409   5.670   0.115   7.935  0.2036 -0.8808 -0.0859
  819SOL     OW 5410   3.947   0.269   2.092 -0.3397 -0.2489  0.2510
  819SOL    HW1 5411   3.947   0.179   2.125  1.6268 -0.6963 -0.8522
  819SOL    HW2 5412   3.960   0.323   2.170 -0.7687 -0.9550  0.8250
  820SOL     OW 5413   4.660   4.604   5.323  0.0140  0.5928 -0.1320
  820SOL    HW1 5414   4.575   4.571   5.351  0.6205 -0.3231  0.6889
  820SOL    HW2 5415   4.662   4.695   5.354 -1.0698  0.9780 -1.1052
  821SOL     OW 5416   5.238   0.507   4.449  0.3251 -0.6622 -0.9701
  821SOL    HW1 5417   5.190   0.427   4.429  0.9303 -1.2057 -0.2757
  821SOL    HW2 5418   5.234   0.514   4.545 -0.1221  0.3899 -1.0483
  822SOL     OW 5419   7.765   4.951   4.679  0.2106 -0.4132 -0.5433
  822SOL    HW1 5420   7.801   4.949   4.768  0.1945  0.6844 -0.4936
  822SOL    HW2 5421   7.728   5.039   4.671  0.7362 -0.2943 -1.8478
  823SOL     OW 5422   7.013   5.042   3.708 -0.2523  0.3036  0.0435
  823SOL    HW1 5423   6.928   5.033   3.750 -0.5300  0.2058 -0.5262
  823SOL    HW2 5424   7.066   5.092   3.770 -0.6381  0.1302  0.5171
  824SOL     OW 5425   2.072   2.102   7.796 -0.2869 -0.2252  0.0836
  824SOL    HW1 5426   2.138   2.081   7.862 -0.6916  0.0373  0.5821
  824SOL    HW2 5427   2.115   2.166   7.739 -0.1101 -0.0499  0.4074
  825SOL     OW 5428   7.856   4.554   7.394 -0.4301 -0.2905  0.8564
  825SOL    HW1 5429   7.762   4.567   7.400 -0.3565  0.8246  0.0018
  825SOL    HW2 5430   7.865   4.465   7.360 -1.1908 -0.2682  0.5680
  826SOL     OW 5431   5.978   7.126   4.174 -0.1374 -0.6810 -0.2357
  826SOL    HW1 5432   5.901   7.124   4.118 -0.2669 -0.6326 -0.0624
  826SOL    HW2 5433   6.000   7.219   4.181 -1.8675 -0.3614  2.1269
  827SOL     OW 5434   4.155   6.213   4.224  0.2233  0.1657  0.1620
  827SOL    HW1 5435   4.084   6.152   4.240  0.4294 -0.1412 -0.0870
  827SOL    HW2 5436   4.123   6.270   4.154  0.4034 -0.2725 -0.2797
  828SOL     OW 5437   2.023   4.684   5.586 -0.6885 -0.0190 -0.0953
  828SOL    HW1 5438   2.002   4.623   5.656 -0.7054  1.2037  0.9940
  828SOL    HW2 5439   2.081   4.634   5.528  1.3346 -0.3284  2.0701
  829SOL     OW 5440   5.398   5.851   0.612  0.0109 -0.2100  0.3787
  829SOL    HW1 5441   5.371   5.878   0.700 -1.2898 -1.3481  0.3585
  829SOL    HW2 5442   5.352   5.911   0.554 -0.9600 -0.9026  0.4144
  830SOL     OW 5443   4.965   5.545   7.765 -0.7845 -0.2225 -0.0771
  830SOL    HW1 5444   4.938   5.526   7.675 -1.7373  0.8172 -0.0308
  830SOL    HW2 5445   4.892   5.594   7.803 -0.3144 -0.4682  1.2097
  831SOL     OW 5446   3.627   5.254   5.490  0.1789  0.0900  0.4687
  831SOL    HW1 5447   3.536   5.270   5.464  0.4305 -0.3195 -0.7003
  831SOL    HW2 5448   3.629   5.277   5.583 -0.7017  1.8137  0.1082
  832SOL     OW 5449   4.473   0.993   6.258  0.4046 -0.1045 -0.0623
  832SOL    HW1 5450   4.415   0.973   6.185 -0.1990  2.3971 -0.3686
  832SOL    HW2 5451   4.558   0.956   6.232  0.0872  0.2923 -1.8300
  833SOL     OW 5452   2.161   2.670   0.676 -0.6888  0.3211  0.2481
  833SOL    HW1 5453   2.250   2.646   0.652  0.0207  0.4743  2.4938
  833SOL    HW2 5454   2.105   2.608   0.630  0.8043 -2.4936  2.0016
  834SOL     OW 5455   8.063   3.004   0.981 -0.1966  0.3341  0.6008
  834SOL    HW1 5456   7.980   2.961   1.001 -0.3590 -0.0952 -0.9131
  834SOL    HW2 5457   8.086   3.050   1.062 -0.5533 -1.6773  1.9110
  835SOL     OW 5458   4.943   5.140   6.537  1.5368 -0.0998 -0.1834
  835SOL    HW1 5459   5.027   5.116   6.576  1.5644 -0.5643 -0.5154
  835SOL    HW2 5460   4.931   5.077   6.466  0.8461 -0.1120 -0.0613
  836SOL     OW 5461   0.069   1.904   7.290 -0.2411 -0.4428  0.0500
  836SOL    HW1 5462   0.164   1.893   7.299 -0.3142 -1.0457  0.1224
  836SOL    HW2 5463   0.057   1.928   7.198 -0.0965 -1.3578 -0.2207
  837SOL     OW 5464   0.598   4.288   5.842  0.3200  0.1694 -0.2499
  837SOL    HW1 5465   0.507   4.317   5.855  0.6471  0.1086  2.9893
  837SOL    HW2 5466   0.650   4.353   5.889  1.6715 -1.5654  0.7515
  838SOL     OW 5467   1.018   3.436   3.682 -0.0520 -0.2039 -0.2882
  838SOL    HW1 5468   1.105   3.395   3.685  0.4098  0.6088 -1.6337
  838SOL    HW2 5469   1.032   3.518   3.634 -1.6019 -0.1493 -0.6986
  839SOL     OW 5470   7.122   0.442   1.270  0.5404 -0.1448  0.2912
  839SOL    HW1 5471   7.206   0.461   1.228  1.1575 -1.1231  1.0426
  839SOL    HW2 5472   7.057   0.478   1.209  1.3972 -1.4651 -1.5042
  840SOL     OW 5473   2.769   3.328   0.116 -0.0586 -0.0429  0.0111
  840SOL    HW1 5474   2.732   3.310   0.029  2.0298 -0.4543 -0.8700
  840SOL    HW2 5475   2.749   3.420   0.132 -0.2731  0.1086 -1.0459
  841SOL     OW 5476   1.315   1.989   5.953 -0.1955  0.1371  0.2498
  841SOL    HW1 5477   1.320   1.894   5.967  1.4368  0.3799  1.6641
  841SOL    HW2 5478   1.227   2.013   5.983  0.4818 -0.5203  3.0297
  842SOL     OW 5479   1.798   6.846   8.121  0.6380 -0.4268 -0.0837
  842SOL    HW1 5480   1.779   6.837   8.027 -0.5059 -0.6362  0.1493
  842SOL    HW2 5481   1.754   6.770   8.161  1.5112 -0.5957  0.5778
  843SOL     OW 5482   0.503   7.167   0.306 -0.0943  0.6942  0.2496
  843SOL    HW1 5483   0.594   7.192   0.323  0.7547 -1.0505 -1.2474
  843SOL    HW2 5484   0.483   7.205   0.221 -0.6442  0.7535  0.4006
  844SOL     OW 5485   2.705   0.217   6.602  0.0838  0.1547 -0.0549
  844SOL    HW1 5486   2.689   0.186   6.691  0.4389  0.5995  0.1618
  844SOL    HW2 5487   2.799   0.230   6.597 -0.2256  3.8670  0.7730
  845SOL     OW 5488   1.451   4.190   4.947  0.4511  0.1475  0.1855
  845SOL    HW1 5489   1.397   4.258   4.906 -1.2213 -1.4909 -0.4643
  845SOL    HW2 5490   1.536   4.232   4.959 -0.6169  2.4913  0.2365
  846SOL     OW 5491   2.128   5.392   0.332  0.3914  0.2808  0.0913
  846SOL    HW1 5492   2.128   5.339   0.412  0.5019 -0.4344 -0.3823
  846SOL    HW2 5493   2.159   5.478   0.361 -0.0438  0.1695  0.9124
  847SOL     OW 5494   6.526   8.091   2.881  0.5271 -0.2196  0.0170
  847SOL    HW1 5495   6.444   8.134   2.905  0.1212 -1.5801  1.2268
  847SOL    HW2 5496   6.580   8.096   2.960  0.6600 -1.4158  0.0312
  848SOL     OW 5497   2.020   6.737   5.322 -0.4059 -0.2472 -0.6634
  848SOL    HW1 5498   2.005   6.779   5.407  1.8617  1.3953 -0.9974
  848SOL    HW2 5499   2.027   6.644   5.343 -1.3996 -0.0516  0.7062
  849SOL     OW 5500   1.878   2.799   4.863 -0.2778 -0.0078 -0.6487
  849SOL    HW1 5501   1.845   2.878   4.907 -1.6684  0.0370 -1.7187
  849SOL    HW2 5502   1.802   2.740   4.859  0.5838 -1.1727 -0.4240
  850SOL     OW 5503   2.257   1.973   1.678 -0.2162 -0.3961 -0.5067
  850SOL    HW1 5504   2.283   2.041   1.616 -0.4004  1.3320  1.2316
  850SOL    HW2 5505   2.162   1.984   1.688  0.0054  0.2711  1.0894
  851SOL     OW 5506   7.422   5.503   0.319 -0.3891 -0.1429 -0.1870
  851SOL    HW1 5507   7.412   5.587   0.275  2.1355  0.7398  0.7205
  851SOL    HW2 5508   7.389   5.517   0.407 -0.7001 -0.3431 -0.2712
  852SOL     OW 5509   1.887   5.821   6.014 -0.7264  0.1656  0.3553
  852SOL    HW1 5510   1.861   5.850   5.927 -1.0895 -1.7707 -0.2291
  852SOL    HW2 5511   1.979   5.846   6.021 -1.2171  2.1449  0.2490
  853SOL     OW 5512   5.540   5.203   2.633 -0.3879  0.1051  0.0988
  853SOL    HW1 5513   5.464   5.255   2.658  0.6276  0.8438  1.8533
  853SOL    HW2 5514   5.600   5.267   2.594  0.1116 -0.0907  0.5352
  854SOL     OW 5515   1.546   8.028   0.768  0.2947  0.4343  0.0425
  854SOL    HW1 5516   1.627   7.993   0.730 -0.2051 -0.5481 -0.1605
  854SOL    HW2 5517   1.511   7.955   0.820 -0.6235  0.7310 -0.1401
  855SOL     OW 5518   7.933   0.318   4.045 -0.1347  0.0205 -0.1137
  855SOL    HW1 5519   7.942   0.237   4.096 -0.5709 -0.0546 -0.1507
  855SOL    HW2 5520   7.995   0.379   4.085  0.5137 -0.4616 -0.3476
  856SOL     OW 5521   4.958   7.232   4.250 -0.3231  0.1380  0.0317
  856SOL    HW1 5522   5.021   7.163   4.230  0.6805  1.0420 -0.0527
  856SOL    HW2 5523   4.913   7.203   4.329 -0.5779 -1.0232 -0.5200
  857SOL     OW 5524   6.535   1.390   7.535  0.3719  0.1045 -0.3641
  857SOL    HW1 5525   6.552   1.477   7.498  0.3991  0.1777 -0.1796
  857SOL    HW2 5526   6.539   1.403   7.630  0.5289 -0.1287 -0.3374
  858SOL     OW 5527   3.956   7.535   5.966 -0.3515 -0.4677  0.4854
  858SOL    HW1 5528   4.014   7.602   6.001 -0.6532  0.6852 -1.0933
  858SOL    HW2 5529   3.898   7.512   6.039  1.2558 -0.7722  1.7328
  859SOL     OW 5530   6.845   1.870   4.135  0.6884 -0.0155 -0.3132
  859SOL    HW1 5531   6.862   1.871   4.229  0.0075  0.5098 -0.1849
  859SOL    HW2 5532   6.829   1.778   4.114 -2.3904  0.1606  0.7203
  860SOL     OW 5533   3.948   0.894   6.277  0.5433  0.2344 -0.1616
  860SOL    HW1 5534   3.937   0.839   6.199 -1.9247 -0.7572  0.7618
  860SOL    HW2 5535   3.881   0.961   6.268 -0.8170 -0.7716  1.7309
  861SOL     OW 5536   4.114   0.611   3.195  0.6199 -0.6545 -0.0172
  861SOL    HW1 5537   4.099   0.569   3.280  2.8698 -2.6761 -0.5137
  861SOL    HW2 5538   4.027   0.640   3.167 -0.7692 -3.1131  1.3703
  862SOL     OW 5539   3.505   0.302   4.602  0.4697  0.0271 -0.0998
  862SOL    HW1 5540   3.536   0.359   4.530 -2.1007 -0.8538 -2.0354
  862SOL    HW2 5541   3.468   0.363   4.666 -0.6098  0.6875 -1.3049
  863SOL     OW 5542   5.521   1.651   2.165 -0.4801 -0.9684  0.9700
  863SOL    HW1 5543   5.493   1.570   2.123  0.6418 -0.9917  0.2070
  863SOL    HW2 5544   5.452   1.671   2.228 -0.7605 -2.5332  1.2003
  864SOL     OW 5545   0.886   4.797   2.689 -0.0311 -0.0048 -0.0855
  864SOL    HW1 5546   0.842   4.737   2.750  0.6914  0.2115  0.6676
  864SOL    HW2 5547   0.901   4.876   2.740  0.4985  0.2243 -0.5855
  865SOL     OW 5548   2.551   3.175   4.491 -0.3673  0.1801 -0.1320
  865SOL    HW1 5549   2.568   3.242   4.425  2.4316  0.8618  1.1308
  865SOL    HW2 5550   2.631   3.123   4.494 -0.5387 -0.0616  2.4438
  866SOL     OW 5551   0.158   5.104   3.464  0.4976  0.0263  0.1446
  866SOL    HW1 5552   0.110   5.132   3.386  1.0133  0.2936 -0.0879
  866SOL    HW2 5553   0.129   5.164   3.533  0.6078  0.2903 -0.0334
  867SOL     OW 5554   0.876   5.937   7.488  0.0366  0.1606 -0.1209
  867SOL    HW1 5555   0.878   5.868   7.422 -0.6385  0.3114 -0.3056
  867SOL    HW2 5556   0.954   5.989   7.470  0.0608 -0.0227 -0.5626
  868SOL     OW 5557   3.035   3.272   2.277  0.0020  0.1953 -0.7939
  868SOL    HW1 5558   3.043   3.178   2.290 -1.3432 -0.1381 -2.1226
  868SOL    HW2 5559   3.074   3.288   2.191 -1.1395  0.5849 -1.2622
  869SOL     OW 5560   2.903   4.286   0.088 -0.6727 -0.0635  0.2213
  869SOL    HW1 5561   2.903   4.346   0.014 -0.2632 -0.4147 -0.0653
  869SOL    HW2 5562   2.843   4.216   0.062 -2.1546  0.8292  1.0690
  870SOL     OW 5563   2.816   5.913   6.511 -0.3259 -0.0260  0.5199
  870SOL    HW1 5564   2.751   5.895   6.579 -0.3944 -0.1588  0.4206
  870SOL    HW2 5565   2.788   5.996   6.472  0.6172  0.9076  1.7290
  871SOL     OW 5566   3.846   6.978   2.918 -0.0159  0.6425  0.7097
  871SOL    HW1 5567   3.858   6.917   2.990  0.2711  0.9055  0.8856
  871SOL    HW2 5568   3.751   6.989   2.911 -0.0601  0.3248  0.7968
  872SOL     OW 5569   6.502   1.440   6.259 -0.3118  0.2265  0.5898
  872SOL    HW1 5570   6.425   1.394   6.291  0.2096 -1.1600 -0.0165
  872SOL    HW2 5571   6.495   1.435   6.164 -0.6660  2.2155  0.4781
  873SOL     OW 5572   2.108   1.869   2.819  0.7548  0.0620 -0.4359
  873SOL    HW1 5573   2.100   1.790   2.872 -0.6776  0.3916 -0.1367
  873SOL    HW2 5574   2.119   1.837   2.730  1.6038 -0.4792 -0.1479
  874SOL     OW 5575   7.388   0.519   3.745  0.3171  1.0434  0.5598
  874SOL    HW1 5576   7.359   0.557   3.662 -0.1414 -2.2111 -0.9355
  874SOL    HW2 5577   7.477   0.489   3.728  0.3366  0.6300  1.3545
  875SOL     OW 5578   3.192   5.723   0.428  0.4946 -0.1927 -0.1720
  875SOL    HW1 5579   3.108   5.768   0.419  1.5449  1.8814 -0.1664
  875SOL    HW2 5580   3.194   5.691   0.518  0.7047  1.9560  0.6288
  876SOL     OW 5581   3.176   7.973   3.670 -0.1660  0.0743 -0.1854
  876SOL    HW1 5582   3.096   7.944   3.626 -0.8953 -0.0181  1.1539
  876SOL    HW2 5583   3.147   8.003   3.756  1.1223  0.9357 -0.0208
  877SOL     OW 5584   5.529   2.775   2.237  0.3516  0.2281 -0.1128
  877SOL    HW1 5585   5.448   2.778   2.288 -0.8558 -0.8422 -1.8613
  877SOL    HW2 5586   5.596   2.746   2.299 -1.3206 -2.3385  0.6073
  878SOL     OW 5587   6.524   4.472   1.840 -0.0197  0.4806  0.3310
  878SOL    HW1 5588   6.594   4.533   1.864 -0.3415  0.4005  1.5053
  878SOL    HW2 5589   6.479   4.516   1.768  1.0299  0.6807 -0.2268
  879SOL     OW 5590   0.101   4.348   7.438 -0.6758 -0.3329  0.1153
  879SOL    HW1 5591   0.103   4.295   7.358 -1.4634  0.8521 -0.7317
  879SOL    HW2 5592   0.158   4.302   7.500  0.2094 -1.1001 -1.2334
  880SOL     OW 5593   3.292   6.592   3.481 -0.4051 -0.3238  0.3068
  880SOL    HW1 5594   3.266   6.637   3.561  1.1093  1.3317 -0.0621
  880SOL    HW2 5595   3.314   6.662   3.420  1.4663 -1.5271 -0.5000
  881SOL     OW 5596   5.328   5.175   5.177 -0.2036  0.1928  0.4566
  881SOL    HW1 5597   5.414   5.191   5.215 -0.0659  0.5083  0.0113
  881SOL    HW2 5598   5.272   5.242   5.217  0.1841  1.2630 -0.7392
  882SOL     OW 5599   0.097   0.973   6.230 -0.0175  0.0894  0.0988
  882SOL    HW1 5600   0.188   0.952   6.212 -0.3240 -1.0830 -0.1933
  882SOL    HW2 5601   0.097   1.008   6.319  0.9332  1.7489 -0.5223
  883SOL     OW 5602   3.842   1.788   4.653 -0.4538 -0.9078  0.1506
  883SOL    HW1 5603   3.855   1.696   4.634 -1.0760 -0.9714  0.0126
  883SOL    HW2 5604   3.761   1.791   4.704 -0.8601 -0.3724 -0.5029
  884SOL     OW 5605   5.613   4.219   3.569  0.1833  0.2166 -0.3005
  884SOL    HW1 5606   5.574   4.138   3.601 -1.7663  0.9493 -0.7100
  884SOL    HW2 5607   5.564   4.240   3.490  0.1489  2.1689  0.1883
  885SOL     OW 5608   2.970   4.551   0.455  0.3898  0.4462 -0.3583
  885SOL    HW1 5609   2.989   4.461   0.429 -2.5364 -0.1570 -0.7262
  885SOL    HW2 5610   2.954   4.547   0.549  0.2842  0.6024 -0.3686
  886SOL     OW 5611   2.186   3.928   7.817  0.0318 -0.2696  0.3038
  886SOL    HW1 5612   2.162   3.905   7.907  0.5583  1.9700  1.0800
  886SOL    HW2 5613   2.282   3.929   7.818  0.0412  1.6271  0.2750
  887SOL     OW 5614   6.832   6.343   4.692  0.8950 -0.4053  0.2114
  887SOL    HW1 5615   6.909   6.395   4.671  0.7312 -0.5438 -0.7803
  887SOL    HW2 5616   6.770   6.362   4.621  0.4284 -1.1274  0.4090
  888SOL     OW 5617   4.140   6.277   7.325  0.1071  0.0638 -0.1919
  888SOL    HW1 5618   4.105   6.282   7.236 -1.1170  0.1733  0.2714
  888SOL    HW2 5619   4.211   6.213   7.319 -0.3491 -0.3843 -1.1218
  889SOL     OW 5620   4.755   6.635   4.058  0.0764  0.2403 -0.1296
  889SOL    HW1 5621   4.780   6.613   3.968  0.4946 -0.3080  0.1176
  889SOL    HW2 5622   4.787   6.724   4.071  0.3246  0.1908 -0.4088
  890SOL     OW 5623   5.209   1.227   0.076  0.5078  0.1457  0.0793
  890SOL    HW1 5624   5.234   1.279  -0.001  1.5719  0.1763  0.4274
  890SOL    HW2 5625   5.286   1.230   0.133 -0.0414 -0.3994  0.8690
  891SOL     OW 5626   2.986   6.190   7.204 -0.0900  0.6786  0.5020
  891SOL    HW1 5627   3.070   6.186   7.159  0.4407 -0.2217  1.5323
  891SOL    HW2 5628   2.921   6.191   7.134  0.6383 -2.4272 -0.3757
  892SOL     OW 5629   3.984   6.761   5.362  0.3097  0.8940  0.1419
  892SOL    HW1 5630   3.930   6.830   5.401  0.4414  0.4623  1.1274
  892SOL    HW2 5631   3.930   6.682   5.369  1.3148  0.2951  1.8606
  893SOL     OW 5632   6.434   8.132   0.232  0.6979 -0.1893  0.3007
  893SOL    HW1 5633   6.453   8.067   0.165  1.4369  0.2341  0.0914
  893SOL    HW2 5634   6.407   8.210   0.183 -3.3873 -1.2179  0.5678
  894SOL     OW 5635   7.454   7.506   3.188  0.2973  0.3390 -0.9379
  894SOL    HW1 5636   7.376   7.561   3.197  1.2329  1.6003 -0.1630
  894SOL    HW2 5637   7.482   7.519   3.098  0.3441  0.9069 -0.8441
  895SOL     OW 5638   5.337   3.289   6.364  0.1216 -0.4771 -0.2863
  895SOL    HW1 5639   5.294   3.365   6.323  1.6393  0.4819 -0.1833
  895SOL    HW2 5640   5.382   3.245   6.292  2.0270  0.6869  0.1145
  896SOL     OW 5641   7.096   7.522   6.976 -0.5984  0.0087 -0.1892
  896SOL    HW1 5642   7.021   7.560   6.930 -0.2009 -0.1174 -0.9545
  896SOL    HW2 5643   7.061   7.498   7.061 -1.0297  1.4607  0.0814
  897SOL     OW 5644   3.806   1.374   4.032 -0.0887  0.8468 -0.1796
  897SOL    HW1 5645   3.716   1.378   4.062 -0.0665  2.0526 -0.2337
  897SOL    HW2 5646   3.859   1.381   4.111 -0.0410  3.0511 -0.3443
  898SOL     OW 5647   6.924   0.264   0.954 -0.0673  0.0204  0.0741
  898SOL    HW1 5648   7.018   0.254   0.966  0.1639  1.2855 -0.5151
  898SOL    HW2 5649   6.901   0.205   0.883  0.1780 -0.6956  0.5843
  899SOL     OW 5650   0.217   5.479   4.410 -0.2243  0.0428 -0.6211
  899SOL    HW1 5651   0.288   5.510   4.353 -0.1460 -1.0769 -1.1460
  899SOL    HW2 5652   0.164   5.557   4.425  1.5733  1.1265  0.4977
  900SOL     OW 5653   6.306   5.460   1.798  0.2827 -0.1910  0.2159
  900SOL    HW1 5654   6.343   5.459   1.710  0.8102  1.8226  0.3648
  900SOL    HW2 5655   6.313   5.551   1.826 -2.9093 -0.0852  1.0638
  901SOL     OW 5656   6.197   8.079   1.961  0.2148  0.0210 -0.1193
  901SOL    HW1 5657   6.181   7.998   2.010  0.2901  0.4287  0.5967
  901SOL    HW2 5658   6.112   8.123   1.959  0.6666  1.0805  1.6547
  902SOL     OW 5659   0.547   7.873   2.314 -0.1672 -0.1931 -0.8676
  902SOL    HW1 5660   0.480   7.879   2.246 -2.6998  1.3517  1.5323
  902SOL    HW2 5661   0.617   7.931   2.285 -2.4633  2.7747 -0.9747
  903SOL     OW 5662   4.638   7.430   3.119  0.6852 -0.0348 -0.1251
  903SOL    HW1 5663   4.694   7.418   3.196 -0.4779 -1.2548  0.5679
  903SOL    HW2 5664   4.557   7.466   3.153  1.0481  1.8976 -1.1494
  904SOL     OW 5665   3.807   3.660   3.093 -0.6779 -0.2908  0.0448
  904SOL    HW1 5666   3.711   3.663   3.096 -0.6593 -0.3545  0.7124
  904SOL    HW2 5667   3.835   3.685   3.181 -0.0512  0.8171 -0.4398
  905SOL     OW 5668   0.959   3.114   4.111 -0.4657 -0.1780 -0.4563
  905SOL    HW1 5669   1.030   3.134   4.172 -0.5054  0.0978 -0.4994
  905SOL    HW2 5670   0.913   3.197   4.099  0.2553  0.0552 -1.7682
  906SOL     OW 5671   1.142   3.566   5.925 -0.1659  0.5611 -0.4040
  906SOL    HW1 5672   1.123   3.564   6.019  1.0158 -1.5310 -0.1500
  906SOL    HW2 5673   1.145   3.659   5.903 -0.2706  1.1007  1.6544
  907SOL     OW 5674   4.512   0.753   3.282 -0.3843 -0.0370  0.1440
  907SOL    HW1 5675   4.450   0.825   3.293  1.1401  1.1991  0.9402
  907SOL    HW2 5676   4.571   0.782   3.212 -0.3002 -0.9356 -0.1809
  908SOL     OW 5677   3.916   6.976   7.882  0.7245  0.3809 -0.3574
  908SOL    HW1 5678   3.845   6.940   7.830  0.2829  0.0929  0.4202
  908SOL    HW2 5679   3.988   6.989   7.820  0.2884 -0.1516 -0.9817
  909SOL     OW 5680   1.030   0.768   2.693  0.0282  0.2127 -0.1364
  909SOL    HW1 5681   0.981   0.799   2.770  1.2019 -0.3710  0.8759
  909SOL    HW2 5682   1.122   0.777   2.718  0.4194 -1.8756 -0.7018
  910SOL     OW 5683   4.643   0.242   3.231 -0.3600  0.9800  0.7466
  910SOL    HW1 5684   4.660   0.179   3.301 -0.1189 -0.0912 -0.2655
  910SOL    HW2 5685   4.563   0.210   3.188  0.4282  0.6697 -0.5299
  911SOL     OW 5686   1.696   6.149   5.976  0.0196  0.5490  0.1418
  911SOL    HW1 5687   1.658   6.188   6.055 -0.1715  1.4429 -0.3754
  911SOL    HW2 5688   1.789   6.140   5.997 -0.0091  0.8903  0.4325
  912SOL     OW 5689   4.430   6.600   5.126  0.3912  0.4117  0.0224
  912SOL    HW1 5690   4.335   6.606   5.137  0.2289 -0.2785 -0.9469
  912SOL    HW2 5691   4.465   6.626   5.212 -0.6605  0.6350  0.4052
  913SOL     OW 5692   1.250   1.885   4.992  0.4536  0.3818 -0.2566
  913SOL    HW1 5693   1.303   1.936   4.930 -0.3296  0.8059 -0.5916
  913SOL    HW2 5694   1.310   1.818   5.026  1.2592  0.9931 -0.4549
  914SOL     OW 5695   2.118   5.677   3.274 -0.7999 -0.3219  0.0987
  914SOL    HW1 5696   2.135   5.587   3.301 -0.5319 -0.5327 -0.7271
  914SOL    HW2 5697   2.027   5.693   3.298 -1.0011 -0.9841 -0.2019
  915SOL     OW 5698   5.203   2.483   7.907 -0.5279 -0.1073  0.0283
  915SOL    HW1 5699   5.249   2.400   7.918 -0.9519 -0.4185 -0.4884
  915SOL    HW2 5700   5.190   2.516   7.996 -0.9454 -0.9292  0.2836
  916SOL     OW 5701   4.066   6.050   2.476 -1.1449 -0.5478  0.0313
  916SOL    HW1 5702   3.999   5.987   2.501 -1.0640 -0.8978 -0.6097
  916SOL    HW2 5703   4.138   6.033   2.536 -1.0267 -1.2390 -0.2976
  917SOL     OW 5704   3.408   2.135   2.325  0.4401 -0.3092  0.0368
  917SOL    HW1 5705   3.448   2.176   2.401 -0.0084  0.7901 -0.3049
  917SOL    HW2 5706   3.351   2.067   2.361  1.3716 -0.8123  0.5967
  918SOL     OW 5707   4.662   6.064   5.333  0.7294 -0.3847  0.2922
  918SOL    HW1 5708   4.704   6.100   5.255  1.4986  0.3734  1.0326
  918SOL    HW2 5709   4.680   5.970   5.329 -2.2543 -0.9965 -2.2544
  919SOL     OW 5710   1.515   7.207   0.582 -0.1983  0.0646 -0.2984
  919SOL    HW1 5711   1.488   7.291   0.544 -2.7197 -0.6038 -0.1800
  919SOL    HW2 5712   1.543   7.155   0.508 -2.9487 -0.4565 -1.0888
  920SOL     OW 5713   2.775   6.327   2.715  0.2373 -0.0156  0.2054
  920SOL    HW1 5714   2.804   6.394   2.776 -0.4981 -0.3517  0.9473
  920SOL    HW2 5715   2.855   6.285   2.685  0.6012  0.1020  1.0019
  921SOL     OW 5716   6.050   5.403   2.217  0.5936 -0.0190  0.7153
  921SOL    HW1 5717   6.003   5.328   2.182  0.9374 -0.1861  0.6072
  921SOL    HW2 5718   6.131   5.406   2.166  0.7736  0.1686  1.0113
  922SOL     OW 5719   4.323   0.365   5.508 -0.5236  0.2205  0.2274
  922SOL    HW1 5720   4.355   0.392   5.595 -1.2213 -1.7390  1.1591
  922SOL    HW2 5721   4.303   0.447   5.464 -0.2678  1.2856  1.9635
  923SOL     OW 5722   7.601   0.889   3.351  0.1983 -0.3484 -0.5303
  923SOL    HW1 5723   7.639   0.824   3.410 -2.3310  0.1165  1.7627
  923SOL    HW2 5724   7.631   0.973   3.385 -0.7864 -0.1027 -0.2506
  924SOL     OW 5725   6.454   3.473   2.897 -0.0447 -0.2164 -0.1812
  924SOL    HW1 5726   6.496   3.474   2.983  0.2438 -1.9501 -0.2662
  924SOL    HW2 5727   6.484   3.554   2.855 -0.5996  0.9237  1.5076
  925SOL     OW 5728   1.841   5.357   1.212 -0.0353 -0.6048 -0.1978
  925SOL    HW1 5729   1.796   5.286   1.166 -0.7056 -1.1866  1.2828
  925SOL    HW2 5730   1.777   5.428   1.214 -1.4159 -1.7645  2.7657
  926SOL     OW 5731   5.029   2.733   0.408  0.1492  0.0662 -0.1357
  926SOL    HW1 5732   5.008   2.805   0.349  1.8965  1.1755  0.5030
  926SOL    HW2 5733   5.125   2.729   0.408  0.1164 -1.8757  0.3315
  927SOL     OW 5734   0.721   5.516   1.403  0.0069 -0.2561  0.0265
  927SOL    HW1 5735   0.680   5.511   1.317 -1.0541  1.5911  0.3810
  927SOL    HW2 5736   0.700   5.431   1.443 -2.2421  0.0348 -0.3818
  928SOL     OW 5737   3.547   0.836   1.937  0.1400 -0.6519  0.0360
  928SOL    HW1 5738   3.471   0.882   1.903  1.7817  1.5552 -0.9194
  928SOL    HW2 5739   3.556   0.866   2.027 -0.2160 -1.0375  0.1988
  929SOL     OW 5740   7.540   5.131   7.224 -0.1165  0.5176  0.0294
  929SOL    HW1 5741   7.523   5.172   7.139 -0.5347 -1.2634 -0.7979
  929SOL    HW2 5742   7.629   5.098   7.217 -0.0958  0.5082  0.3465
  930SOL     OW 5743   2.172   1.527   3.425  0.4098 -0.1587  0.4112
  930SOL    HW1 5744   2.217   1.450   3.461  1.0472 -0.4187 -0.8735
  930SOL    HW2 5745   2.146   1.500   3.337  0.1781  0.9256  0.1401
  931SOL     OW 5746   1.516   0.121   3.484 -0.0533 -0.7784  0.5345
  931SOL    HW1 5747   1.584   0.161   3.538  0.5609 -0.3493 -0.5200
  931SOL    HW2 5748   1.562   0.057   3.430 -0.3468  0.0042 -0.6831
  932SOL     OW 5749   5.376   4.274   4.563  0.5024  0.1125 -0.2992
  932SOL    HW1 5750   5.334   4.244   4.482 -0.3580  1.0115 -0.2116
  932SOL    HW2 5751   5.468   4.250   4.554  0.2370 -0.5984 -1.1501
  933SOL     OW 5752   2.738   1.843   7.799  0.1354  0.0188 -0.0124
  933SOL    HW1 5753   2.768   1.787   7.727  0.4410  0.7295 -0.4432
  933SOL    HW2 5754   2.798   1.823   7.871  0.7114  0.3246 -0.3969
  934SOL     OW 5755   2.328   4.896   0.555 -0.2190 -0.0005  0.7072
  934SOL    HW1 5756   2.309   4.886   0.462  0.6540  0.9611  0.4158
  934SOL    HW2 5757   2.247   4.932   0.592 -0.3409  0.2618  0.1969
  935SOL     OW 5758   8.058   3.926   3.650 -0.4508 -0.4297 -0.0084
  935SOL    HW1 5759   8.064   3.999   3.712  1.0877  0.3063 -0.9685
  935SOL    HW2 5760   7.967   3.926   3.623 -0.5136  1.1067  0.0744
  936SOL     OW 5761   2.539   3.001   2.968 -0.1248  0.2328 -0.3825
  936SOL    HW1 5762   2.582   2.917   2.951  1.1244  1.0534 -1.4252
  936SOL    HW2 5763   2.595   3.045   3.031 -1.4058 -0.1603  1.1038
  937SOL     OW 5764   5.973   0.350   7.512 -0.0111  0.1710  0.3405
  937SOL    HW1 5765   5.909   0.282   7.532  1.5407 -1.2148  0.8124
  937SOL    HW2 5766   5.967   0.411   7.585  0.9947 -1.3546  1.7729
  938SOL     OW 5767   1.987   2.760   7.574 -0.3074  0.4062  0.2228
  938SOL    HW1 5768   2.045   2.792   7.505 -0.6644  2.1580  0.6705
  938SOL    HW2 5769   1.996   2.665   7.572  1.2391  0.5470 -0.8595
  939SOL     OW 5770   2.954   7.179   5.707  0.5669  0.1992  0.2387
  939SOL    HW1 5771   3.018   7.232   5.660  1.2117 -0.0586  0.8186
  939SOL    HW2 5772   2.914   7.239   5.769  1.4458 -0.0345  1.0409
  940SOL     OW 5773   4.216   2.039   2.657 -0.5666  0.4953  0.2743
  940SOL    HW1 5774   4.140   2.021   2.712 -1.1303 -0.3361 -0.7521
  940SOL    HW2 5775   4.203   1.985   2.579  0.4587  1.2719 -0.4616
  941SOL     OW 5776   3.585   5.015   1.230  0.4689 -0.0960  0.0676
  941SOL    HW1 5777   3.621   5.047   1.313 -1.9227  1.0807  0.7770
  941SOL    HW2 5778   3.612   5.081   1.166  2.5013 -1.1163 -0.1901
  942SOL     OW 5779   4.000   2.480   0.035  0.1849  0.1243 -0.0713
  942SOL    HW1 5780   4.090   2.461   0.061  0.1353  0.5307  0.4328
  942SOL    HW2 5781   3.989   2.439  -0.051 -0.0000 -2.2437  1.0306
  943SOL     OW 5782   4.213   3.693   6.063 -0.2972  0.1512 -0.4153
  943SOL    HW1 5783   4.294   3.740   6.080 -0.0695 -0.9723  1.9124
  943SOL    HW2 5784   4.144   3.757   6.082  0.0308  0.2479  0.5142
  944SOL     OW 5785   4.358   4.433   6.007  0.1643 -0.3982  0.1234
  944SOL    HW1 5786   4.438   4.422   6.058  1.3439  0.6603 -1.3693
  944SOL    HW2 5787   4.388   4.431   5.916 -1.2957  1.3642 -0.4590
  945SOL     OW 5788   5.737   4.483   4.978  0.2547 -0.1641  0.1315
  945SOL    HW1 5789   5.662   4.443   4.934 -0.0722  2.5537 -2.1034
  945SOL    HW2 5790   5.699   4.558   5.025  1.2812 -0.1491  0.9568
  946SOL     OW 5791   4.730   4.027   5.623 -0.0776  0.1558  0.1158
  946SOL    HW1 5792   4.803   3.999   5.568 -0.9292  0.5827 -1.2680
  946SOL    HW2 5793   4.675   3.949   5.632 -0.0218  0.1304  0.2469
  947SOL     OW 5794   1.044   5.875   1.527  0.4745  0.0695 -0.6677
  947SOL    HW1 5795   0.973   5.886   1.590 -0.5403  1.0301 -1.9255
  947SOL    HW2 5796   1.002   5.836   1.451  1.8647 -2.0071 -0.4475
  948SOL     OW 5797   4.874   5.600   4.930  0.2364  0.2004 -0.2787
  948SOL    HW1 5798   4.893   5.506   4.933 -0.9129 -0.0492 -0.6364
  948SOL    HW2 5799   4.915   5.630   4.849 -2.4939 -0.7374 -2.1519
  949SOL     OW 5800   2.921   1.585   6.762  0.3917 -0.3697  0.1043
  949SOL    HW1 5801   2.947   1.615   6.675 -1.6513  0.0929 -0.4013
  949SOL    HW2 5802   2.876   1.660   6.801  0.2958 -0.9326  1.1077
  950SOL     OW 5803   4.229   3.478   5.530  0.1466 -0.0811 -0.0057
  950SOL    HW1 5804   4.281   3.546   5.486 -0.3942  0.5840  0.3698
  950SOL    HW2 5805   4.256   3.397   5.487 -0.6807  0.5867 -1.9144
  951SOL     OW 5806   3.837   8.050   4.895  0.1989  0.1086 -0.2743
  951SOL    HW1 5807   3.893   8.059   4.972  1.5406  2.0260 -1.4025
  951SOL    HW2 5808   3.750   8.032   4.931  1.2253 -1.6216  1.5624
  952SOL     OW 5809   4.263   2.511   0.810  0.5394 -0.1629 -0.5183
  952SOL    HW1 5810   4.351   2.547   0.826 -0.0757  0.4706  1.8521
  952SOL    HW2 5811   4.279   2.418   0.795  1.6915  0.0788 -0.9435
  953SOL     OW 5812   5.770   5.877   3.004  0.4460  0.3770  0.0022
  953SOL    HW1 5813   5.855   5.900   2.967  0.3004  0.4831 -0.2681
  953SOL    HW2 5814   5.769   5.781   3.003  0.4073  0.3798 -0.3551
  954SOL     OW 5815   6.304   4.799   6.995  0.1499 -0.3284  0.1171
  954SOL    HW1 5816   6.386   4.778   6.951 -0.2169  0.3832 -0.9330
  954SOL    HW2 5817   6.240   4.738   6.958  0.2762 -1.2157  1.2897
  955SOL     OW 5818   4.160   3.047   7.540 -0.3518  0.0383  0.5040
  955SOL    HW1 5819   4.251   3.067   7.518 -1.0003  0.8323 -1.7079
  955SOL    HW2 5820   4.163   2.955   7.568  0.8057 -0.8484 -2.1528
  956SOL     OW 5821   7.768   6.728   6.224 -0.2419  0.0939  0.7744
  956SOL    HW1 5822   7.849   6.759   6.263 -0.1801 -1.2251  1.7595
  956SOL    HW2 5823   7.755   6.784   6.148  2.3342 -0.5376 -0.2270
  957SOL     OW 5824   5.724   2.988   2.372 -0.7690 -0.0777  0.3111
  957SOL    HW1 5825   5.684   3.020   2.291  1.0556  0.0223 -0.6108
  957SOL    HW2 5826   5.745   2.897   2.355 -1.5591 -0.4363  1.1737
  958SOL     OW 5827   3.922   3.214   0.015 -0.2536 -0.0071  0.4553
  958SOL    HW1 5828   3.968   3.235  -0.066 -1.3735  0.9363  0.0378
  958SOL    HW2 5829   3.887   3.298   0.045  0.0682 -0.3521  1.8768
  959SOL     OW 5830   6.279   7.638   8.058 -0.3192  0.0527  0.1454
  959SOL    HW1 5831   6.289   7.546   8.081 -0.2720  0.1878  0.6802
  959SOL    HW2 5832   6.368   7.672   8.052 -0.3041 -0.1956 -1.1512
  960SOL     OW 5833   7.885   7.738   5.527 -0.1295  0.6365  0.3436
  960SOL    HW1 5834   7.841   7.664   5.569 -2.5983  2.1110  0.5002
  960SOL    HW2 5835   7.883   7.808   5.593  1.4285  1.1401 -0.0989
  961SOL     OW 5836   1.347   8.044   7.569  0.4775 -0.5416 -0.1752
  961SOL    HW1 5837   1.426   8.008   7.529  0.3303 -0.8286 -0.2140
  961SOL    HW2 5838   1.377   8.088   7.648  0.9047  0.8785 -1.0889
  962SOL     OW 5839   7.601   0.727   4.393  0.1639 -0.6261 -0.2289
  962SOL    HW1 5840   7.557   0.775   4.322 -2.2857  0.6717  2.0082
  962SOL    HW2 5841   7.543   0.654   4.412  1.1891 -1.4025 -0.0234
  963SOL     OW 5842   2.679   4.853   0.930  0.2990  0.0172  0.0711
  963SOL    HW1 5843   2.651   4.856   0.838  1.4299  1.8336 -0.2769
  963SOL    HW2 5844   2.775   4.858   0.926  0.3551  0.3443  1.3549
  964SOL     OW 5845   3.563   0.400   7.624 -0.3995 -0.5760  0.3770
  964SOL    HW1 5846   3.652   0.422   7.654 -0.4859 -1.3425  1.2503
  964SOL    HW2 5847   3.530   0.481   7.586  1.0361 -0.5334 -0.8975
  965SOL     OW 5848   4.925   2.668   2.393  0.5803  0.3807  0.2634
  965SOL    HW1 5849   4.920   2.573   2.379 -2.8110  0.3442  0.9652
  965SOL    HW2 5850   4.950   2.677   2.485  0.7885  0.1609  0.2290
  966SOL     OW 5851   0.554   2.575   5.884  0.4886  0.0643 -0.5372
  966SOL    HW1 5852   0.595   2.488   5.884 -2.2941 -1.4144  1.2732
  966SOL    HW2 5853   0.627   2.636   5.888  2.5459 -2.2133 -0.8231
  967SOL     OW 5854   3.112   5.310   5.283 -0.3304 -0.1457  0.1843
  967SOL    HW1 5855   3.136   5.338   5.371  0.5659  1.1960 -0.4572
  967SOL    HW2 5856   3.173   5.356   5.225  0.3877 -2.4980 -1.0451
  968SOL     OW 5857   1.266   6.381   3.924 -0.7312 -0.4646 -0.1177
  968SOL    HW1 5858   1.307   6.339   3.848 -3.1155 -1.8586 -0.7369
  968SOL    HW2 5859   1.305   6.336   3.999 -0.6394 -1.2987 -0.6483
  969SOL     OW 5860   4.992   3.649   7.690  0.2512  0.1048 -0.1675
  969SOL    HW1 5861   5.037   3.571   7.658 -2.1768 -1.3900 -0.2007
  969SOL    HW2 5862   5.062   3.710   7.712  2.3684 -2.7416  1.6015
  970SOL     OW 5863   6.564   5.966   4.819  0.5055 -0.0409 -0.4259
  970SOL    HW1 5864   6.499   5.913   4.864  0.4178  0.3407 -0.0977
  970SOL    HW2 5865   6.607   6.016   4.889  0.7350  0.1577 -0.7046
  971SOL     OW 5866   5.464   4.974   7.475  0.2589 -0.2732  0.1927
  971SOL    HW1 5867   5.413   4.900   7.510 -0.2734  0.0253  0.0555
  971SOL    HW2 5868   5.434   4.983   7.385  1.4784 -0.9036 -0.2969
  972SOL     OW 5869   1.824   2.660   3.753 -0.3620 -0.1298  0.3472
  972SOL    HW1 5870   1.864   2.647   3.667 -1.9181  0.7435 -0.5698
  972SOL    HW2 5871   1.760   2.730   3.739  0.5206  1.2630  2.6283
  973SOL     OW 5872   1.047   6.458   7.832  0.7773 -0.3836 -0.1621
  973SOL    HW1 5873   1.041   6.550   7.861 -0.3396 -0.5504  0.2165
  973SOL    HW2 5874   1.140   6.443   7.819  1.0403  0.6252  0.3861
  974SOL     OW 5875   3.845   7.620   3.562 -0.0115 -0.2626  0.1808
  974SOL    HW1 5876   3.873   7.541   3.515  0.3204  1.0856 -2.0448
  974SOL    HW2 5877   3.926   7.663   3.588 -0.1222  0.2665 -0.3082
  975SOL     OW 5878   4.441   3.985   6.910  0.1190  0.1208  0.3683
  975SOL    HW1 5879   4.433   4.079   6.929  0.8235  0.4544 -0.8500
  975SOL    HW2 5880   4.534   3.973   6.890 -0.0665 -0.7366  0.0002
  976SOL     OW 5881   7.777   3.635   5.100  0.3454  0.2082  0.6797
  976SOL    HW1 5882   7.805   3.655   5.190  0.9631  0.1135  0.5106
  976SOL    HW2 5883   7.725   3.711   5.075  1.5615  1.0278  0.5304
  977SOL     OW 5884   2.230   3.355   2.320 -0.3050 -0.2761 -0.1294
  977SOL    HW1 5885   2.239   3.329   2.228 -1.6888 -0.2242 -0.3108
  977SOL    HW2 5886   2.147   3.404   2.323  0.3672  0.8534  0.9148
  978SOL     OW 5887   5.125   2.497   2.596  0.1781  1.0591  0.0554
  978SOL    HW1 5888   5.167   2.579   2.623  1.4590  0.8739 -1.2347
  978SOL    HW2 5889   5.109   2.451   2.678  0.2195  2.2343  0.7467
  979SOL     OW 5890   2.436   6.938   5.352  0.2266 -0.8213  0.1156
  979SOL    HW1 5891   2.404   6.862   5.401 -0.3894 -1.4614 -1.2355
  979SOL    HW2 5892   2.526   6.915   5.327 -0.7372 -2.2284 -2.3855
  980SOL     OW 5893   2.877   1.670   0.021 -0.4816  0.2234 -0.0146
  980SOL    HW1 5894   2.844   1.729   0.088 -0.0518  0.0697  0.3345
  980SOL    HW2 5895   2.894   1.588   0.066  0.5660  0.3556 -0.1279
  981SOL     OW 5896   4.217   1.708   5.985  0.1890 -0.2816 -0.0868
  981SOL    HW1 5897   4.155   1.776   5.961  0.9889  0.1127 -1.1287
  981SOL    HW2 5898   4.257   1.681   5.902  2.6299  0.6653  0.6798
  982SOL     OW 5899   5.213   2.493   3.099  0.2336  0.3812 -0.4466
  982SOL    HW1 5900   5.163   2.446   3.166  0.0446  0.3144 -0.6335
  982SOL    HW2 5901   5.304   2.486   3.128  0.5115 -2.1229 -1.6631
  983SOL     OW 5902   3.088   7.969   7.173 -0.3304  0.1193 -0.6497
  983SOL    HW1 5903   3.053   7.945   7.088  0.7595 -0.4663 -0.9566
  983SOL    HW2 5904   3.182   7.953   7.166  0.1396  2.2708 -0.0950
  984SOL     OW 5905   7.017   6.573   7.369 -0.4863 -0.1508  0.2580
  984SOL    HW1 5906   6.995   6.501   7.309  1.4445 -0.4759 -0.1179
  984SOL    HW2 5907   7.110   6.590   7.353 -0.2549  0.6726  2.2025
  985SOL     OW 5908   6.436   5.102   7.059  0.0945 -0.4066  0.0453
  985SOL    HW1 5909   6.346   5.100   7.025 -0.2113  2.0942  0.5122
  985SOL    HW2 5910   6.431   5.056   7.143 -0.8846  0.0737  0.2693
  986SOL     OW 5911   5.579   6.404   1.723  0.1544  0.4152 -0.0947
  986SOL    HW1 5912   5.555   6.342   1.654 -0.4058 -0.5954  0.9738
  986SOL    HW2 5913   5.654   6.363   1.766 -0.0807  0.5892  0.4802
  987SOL     OW 5914   3.555   7.244   0.991  0.5799 -0.3783 -0.3999
  987SOL    HW1 5915   3.620   7.274   1.056 -0.6851 -0.3895  0.9345
  987SOL    HW2 5916   3.518   7.165   1.029 -2.3154  1.2075  0.4033
  988SOL     OW 5917   6.859   2.219   0.115 -0.1635 -0.4956 -0.1146
  988SOL    HW1 5918   6.830   2.309   0.104  0.0060 -0.2326  1.3577
  988SOL    HW2 5919   6.779   2.166   0.111 -0.5921 -0.0202  1.4455
  989SOL     OW 5920   5.259   3.986   4.802  0.3298  0.1892 -0.2538
  989SOL    HW1 5921   5.346   4.000   4.839  0.3445 -1.0550  0.2584
  989SOL    HW2 5922   5.231   4.071   4.770  1.3190  0.8056  0.4944
  990SOL     OW 5923   4.213   2.303   0.497 -0.3874 -0.3964  0.3492
  990SOL    HW1 5924   4.182   2.348   0.418  0.3436 -1.2954 -0.4706
  990SOL    HW2 5925   4.137   2.300   0.554 -0.7589  0.8556 -0.0356
  991SOL     OW 5926   1.012   0.590   6.314  0.0480  0.4723  0.2233
  991SOL    HW1 5927   1.088   0.601   6.258  0.0266 -0.2677  0.0380
  991SOL    HW2 5928   1.040   0.528   6.381 -0.3340  0.3435  0.2648
  992SOL     OW 5929   2.762   0.781   1.611 -0.3140 -0.1116  0.3413
  992SOL    HW1 5930   2.760   0.875   1.630  2.5056 -0.1099  1.1051
  992SOL    HW2 5931   2.728   0.740   1.691 -1.3187  0.2150  0.0988
  993SOL     OW 5932   3.963   5.241   2.178 -0.0476 -0.5438 -0.1007
  993SOL    HW1 5933   3.959   5.337   2.176  0.7949 -0.4727  0.7778
  993SOL    HW2 5934   3.920   5.213   2.097 -1.6582  0.5203  0.3554
  994SOL     OW 5935   1.758   6.811   5.603 -0.0810 -0.0519 -0.6516
  994SOL    HW1 5936   1.737   6.764   5.522 -0.3881 -1.0097 -0.0338
  994SOL    HW2 5937   1.770   6.742   5.669  0.2649  0.7036  0.0993
  995SOL     OW 5938   4.941   3.839   0.158  0.0344  0.2153 -0.0595
  995SOL    HW1 5939   4.952   3.896   0.082  1.5135  1.5834  1.1303
  995SOL    HW2 5940   4.847   3.844   0.178 -0.4708 -0.5091 -1.9896
  996SOL     OW 5941   8.105   5.260   5.069 -0.3210  0.0765 -0.1566
  996SOL    HW1 5942   8.140   5.271   5.158  2.4965  0.1992 -1.1635
  996SOL    HW2 5943   8.084   5.349   5.040 -0.9546  0.0680  0.2604
  997SOL     OW 5944   2.071   8.036   1.293 -0.5418  0.8875 -0.2451
  997SOL    HW1 5945   2.151   8.086   1.277  0.4710  1.3596  4.6917
  997SOL    HW2 5946   2.006   8.103   1.314 -0.6313  0.3514  1.2687
  998SOL     OW 5947   1.459   0.992   5.443 -0.7350  0.1784 -0.1942
  998SOL    HW1 5948   1.382   0.958   5.489 -0.8030  0.0817 -0.3756
  998SOL    HW2 5949   1.527   0.927   5.460 -0.6419  0.3576  0.1183
  999SOL     OW 5950   7.926   0.259   0.456  0.4732 -0.7337  0.1147
  999SOL    HW1 5951   7.968   0.344   0.471  0.8952 -0.7185 -1.0816
  999SOL    HW2 5952   7.987   0.211   0.400 -0.4967 -1.2041 -0.5683
 1000SOL     OW 5953   3.616   7.009   0.064  0.4026 -0.1137  0.2413
 1000SOL    HW1 5954   3.656   7.077   0.010 -0.6588  1.0530  0.8655
 1000SOL    HW2 5955   3.582   6.945   0.002  0.8807  0.2358 -0.3845
 1001SOL     OW 5956   7.838   3.458   2.493  0.1132  0.1945  0.2822
 1001SOL    HW1 5957   7.777   3.532   2.482 -0.9651 -0.7258 -0.1420
 1001SOL    HW2 5958   7.920   3.489   2.456 -0.7097  0.7209 -1.2006
 1002SOL     OW 5959   4.635   6.081   0.068  0.7026  0.5390 -0.1466
 1002SOL    HW1 5960   4.625   6.145  -0.002 -0.6051  2.6364  1.7870
 1002SOL    HW2 5961   4.692   6.014   0.032  0.3014  1.6404 -3.0730
 1003SOL     OW 5962   3.095   2.063   7.244  0.0268  0.5300  0.4772
 1003SOL    HW1 5963   3.160   2.083   7.312  0.0678 -0.4159  0.7295
 1003SOL    HW2 5964   3.011   2.082   7.286  0.0880  0.7337  0.5109
 1004SOL     OW 5965   0.908   5.440   0.902  0.0808  0.0472  0.2484
 1004SOL    HW1 5966   0.970   5.385   0.950 -1.1709 -1.3419  0.3299
 1004SOL    HW2 5967   0.954   5.523   0.891  1.6407 -0.6728  1.0041
 1005SOL     OW 5968   2.472   3.612   2.201  1.1545  0.4176 -1.0468
 1005SOL    HW1 5969   2.407   3.655   2.145  0.2026 -0.6696 -0.8159
 1005SOL    HW2 5970   2.543   3.676   2.209  0.7784  1.0603 -2.5057
 1006SOL     OW 5971   6.627   3.261   7.608 -0.0194 -0.1373 -0.6109
 1006SOL    HW1 5972   6.687   3.197   7.570  0.2727 -0.5784  0.5673
 1006SOL    HW2 5973   6.682   3.314   7.666 -0.0227  1.9073 -2.3387
 1007SOL     OW 5974   3.776   4.331   2.041  0.2652 -0.2220 -0.0365
 1007SOL    HW1 5975   3.682   4.334   2.061 -0.2095 -0.6343 -2.0009
 1007SOL    HW2 5976   3.791   4.408   1.987  1.5575  1.0322  1.9920
 1008SOL     OW 5977   4.887   1.882   3.397 -0.6606 -0.5001 -0.5925
 1008SOL    HW1 5978   4.853   1.793   3.401  0.0077 -0.7298  0.3239
 1008SOL    HW2 5979   4.815   1.934   3.360 -2.6065 -0.6910  2.5914
 1009SOL     OW 5980   6.573   0.311   2.151 -0.3681  0.4854  0.0931
 1009SOL    HW1 5981   6.603   0.346   2.067  0.1196  0.0500  0.0796
 1009SOL    HW2 5982   6.625   0.358   2.217 -1.0424  1.1275  0.1878
 1010SOL     OW 5983   3.293   0.415   4.383  0.1928 -0.2987 -0.2623
 1010SOL    HW1 5984   3.377   0.458   4.402  0.0309 -0.7433  1.6480
 1010SOL    HW2 5985   3.270   0.372   4.465 -0.3393 -2.8976 -1.6848
 1011SOL     OW 5986   7.013   4.783   4.460 -0.4634  0.0194  0.4931
 1011SOL    HW1 5987   6.973   4.696   4.453 -1.1055  0.2054  1.5843
 1011SOL    HW2 5988   7.053   4.798   4.374 -2.4094 -0.3522 -0.5488
 1012SOL     OW 5989   0.711   7.569   0.232 -0.2311  0.9005 -0.1772
 1012SOL    HW1 5990   0.622   7.579   0.264 -0.7264 -1.0202 -0.8037
 1012SOL    HW2 5991   0.762   7.545   0.309 -0.6160  0.2636 -0.1180
 1013SOL     OW 5992   3.160   1.686   5.966 -0.2579  0.0005  0.2754
 1013SOL    HW1 5993   3.181   1.617   5.903 -0.3907  0.4511 -0.2629
 1013SOL    HW2 5994   3.173   1.644   6.051 -0.6203 -0.7767 -0.0405
 1014SOL     OW 5995   4.520   0.729   5.877 -0.2576 -0.6091  0.1386
 1014SOL    HW1 5996   4.540   0.636   5.869  0.3817 -0.3940 -0.9372
 1014SOL    HW2 5997   4.590   0.773   5.829  1.3416  0.6469  3.2910
 1015SOL     OW 5998   3.185   1.801   4.188 -0.0545 -0.3950 -0.3723
 1015SOL    HW1 5999   3.096   1.766   4.178 -0.0363 -0.1222 -1.6668
 1015SOL    HW2 6000   3.243   1.727   4.172 -0.0150 -0.9071  1.8280
 1016SOL     OW 6001   0.484   2.572   5.145  0.4050  0.0035  0.1542
 1016SOL    HW1 6002   0.466   2.653   5.097 -0.6834 -1.5665 -2.3314
 1016SOL    HW2 6003   0.575   2.580   5.174  0.2601  2.1510  0.1261
 1017SOL     OW 6004   5.580   6.555   3.792 -0.3981 -0.3025  0.9391
 1017SOL    HW1 6005   5.673   6.567   3.812 -0.0876 -0.3049 -0.4472
 1017SOL    HW2 6006   5.575   6.468   3.753 -0.7035  0.3351 -0.5123
 1018SOL     OW 6007   2.552   3.380   8.037 -0.0586 -0.2250  0.1736
 1018SOL    HW1 6008   2.542   3.446   8.106  0.4125 -1.3109  1.3100
 1018SOL    HW2 6009   2.582   3.430   7.961  1.3307  0.7345  1.3054
 1019SOL     OW 6010   0.225   1.266   3.852  0.0358 -0.4904  0.6336
 1019SOL    HW1 6011   0.298   1.211   3.882  0.5755 -0.5240 -0.6641
 1019SOL    HW2 6012   0.268   1.336   3.803 -0.8068 -0.5242 -0.1701
 1020SOL     OW 6013   1.832   1.657   5.340  0.2352 -0.1393  0.4135
 1020SOL    HW1 6014   1.798   1.587   5.284  1.3014 -0.7407  0.4986
 1020SOL    HW2 6015   1.907   1.691   5.292 -0.4128  1.1439  0.2529
 1021SOL     OW 6016   7.482   1.908   5.512 -0.0805  0.2622 -0.4688
 1021SOL    HW1 6017   7.449   1.820   5.531  0.3173  0.2871  0.3853
 1021SOL    HW2 6018   7.456   1.925   5.422  0.8567 -1.2077 -1.0469
 1022SOL     OW 6019   2.548   5.907   0.593 -0.7037 -0.3629  0.3363
 1022SOL    HW1 6020   2.466   5.858   0.602 -0.3865 -0.6237  2.3281
 1022SOL    HW2 6021   2.614   5.852   0.637  0.1405  0.7428  0.5048
 1023SOL     OW 6022   1.704   5.091   0.812  0.4091  0.4818 -0.6749
 1023SOL    HW1 6023   1.698   4.998   0.790 -1.2954  0.4534 -0.2038
 1023SOL    HW2 6024   1.638   5.133   0.756  0.8210  1.3498 -0.5277
 1024SOL     OW 6025   1.399   7.015   2.526 -0.2272 -0.6198 -0.3329
 1024SOL    HW1 6026   1.379   7.058   2.609 -0.6442 -1.8783  0.2436
 1024SOL    HW2 6027   1.491   6.991   2.533  0.0277  0.2127 -0.6877
 1025SOL     OW 6028   3.062   4.325   5.139 -0.0653  0.5759 -0.0021
 1025SOL    HW1 6029   2.991   4.267   5.114  0.1755  0.2231  0.1268
 1025SOL    HW2 6030   3.024   4.383   5.205 -0.0660 -0.0279  0.5411
 1026SOL     OW 6031   1.069   5.193   7.266 -0.3271  0.4158 -0.4067
 1026SOL    HW1 6032   1.001   5.240   7.314 -0.0195  0.7196 -0.2649
 1026SOL    HW2 6033   1.036   5.189   7.176 -1.0921 -0.5174 -0.0953
 1027SOL     OW 6034   5.063   1.952   1.225  0.2746 -0.0823 -0.4223
 1027SOL    HW1 6035   5.046   1.982   1.136 -0.2077  1.3500  0.1151
 1027SOL    HW2 6036   5.155   1.974   1.240  0.1427  0.4011 -0.3077
 1028SOL     OW 6037   6.153   8.074   0.031  0.4270 -0.0720 -0.2243
 1028SOL    HW1 6038   6.145   8.160  -0.009  1.9862  0.4611  0.4811
 1028SOL    HW2 6039   6.102   8.080   0.112 -0.8372 -0.3904 -0.9774
 1029SOL     OW 6040   5.795   3.424   7.163  0.1483  0.3209  0.1685
 1029SOL    HW1 6041   5.802   3.330   7.145 -0.9919  0.5418 -1.7777
 1029SOL    HW2 6042   5.859   3.441   7.232 -0.7491 -2.1662  1.7536
 1030SOL     OW 6043   0.356   3.003   1.052  0.3931 -0.0900  0.1009
 1030SOL    HW1 6044   0.314   2.944   1.116  1.0399 -1.7702 -0.9461
 1030SOL    HW2 6045   0.336   2.963   0.967  2.4595  0.1323 -0.5319
 1031SOL     OW 6046   4.873   4.894   0.538  0.0573 -0.1673 -0.1443
 1031SOL    HW1 6047   4.867   4.946   0.618  1.1267  1.3346 -0.9840
 1031SOL    HW2 6048   4.784   4.862   0.524 -0.7836  1.8662  0.1831
 1032SOL     OW 6049   0.172   5.055   2.963  0.3508 -0.1262 -0.2533
 1032SOL    HW1 6050   0.193   5.125   3.026  1.7982 -1.0584  0.3603
 1032SOL    HW2 6051   0.091   5.084   2.921  0.7493  1.7652  0.1995
 1033SOL     OW 6052   5.374   2.175   0.308 -0.4422  0.0685  0.3489
 1033SOL    HW1 6053   5.321   2.195   0.231 -1.2497  0.1288  0.9149
 1033SOL    HW2 6054   5.420   2.257   0.327  0.1883 -0.1000 -0.3878
 1034SOL     OW 6055   7.909   2.731   2.890  0.5660  0.1130  0.2941
 1034SOL    HW1 6056   7.827   2.769   2.859  0.3317 -0.6355 -0.0385
 1034SOL    HW2 6057   7.959   2.805   2.924 -0.4887  0.4958  1.0567
 1035SOL     OW 6058   0.879   5.044   4.842 -0.3172  0.1524 -0.1813
 1035SOL    HW1 6059   0.796   5.006   4.868  0.6357 -1.5157  0.5937
 1035SOL    HW2 6060   0.890   5.121   4.898 -1.6467  0.8322 -0.8154
 1036SOL     OW 6061   2.768   5.384   4.335 -0.1594  0.7136  0.2810
 1036SOL    HW1 6062   2.692   5.408   4.389 -0.1316  3.8188 -0.8461
 1036SOL    HW2 6063   2.837   5.364   4.398 -1.1054  0.6667  1.3401
 1037SOL     OW 6064   2.884   0.141   2.447  0.4582 -0.2227 -0.0769
 1037SOL    HW1 6065   2.863   0.227   2.481  0.4244  0.3896 -1.5826
 1037SOL    HW2 6066   2.799   0.098   2.434  0.4036  0.0483 -0.6375
 1038SOL     OW 6067   0.906   0.201   3.924  0.9373 -0.2097  0.0868
 1038SOL    HW1 6068   0.814   0.187   3.948  1.0435  0.6353  1.0416
 1038SOL    HW2 6069   0.955   0.156   3.992  1.2344 -0.5674 -0.3645
 1039SOL     OW 6070   7.548   1.337   1.368 -0.2811 -0.7581  0.3301
 1039SOL    HW1 6071   7.525   1.364   1.457 -1.3415  0.6227 -0.3365
 1039SOL    HW2 6072   7.490   1.387   1.312  0.4777 -1.5014 -1.1659
 1040SOL     OW 6073   7.502   4.089   6.175 -0.2303 -0.0450 -0.0767
 1040SOL    HW1 6074   7.575   4.026   6.179 -0.2530 -0.0408  3.0778
 1040SOL    HW2 6075   7.433   4.042   6.128  1.1273 -0.7794 -1.4321
 1041SOL     OW 6076   5.886   2.711   1.651  0.1373  0.3757  0.1211
 1041SOL    HW1 6077   5.844   2.773   1.592  0.4934  1.3854  0.8885
 1041SOL    HW2 6078   5.921   2.766   1.722 -0.6747 -0.8100  1.5065
 1042SOL     OW 6079   3.766   5.634   4.757 -0.0027 -0.4658  0.0019
 1042SOL    HW1 6080   3.848   5.678   4.734  0.6774 -0.7597  1.7170
 1042SOL    HW2 6081   3.702   5.704   4.766 -0.4185 -0.3450 -2.9355
 1043SOL     OW 6082   3.914   7.433   6.933  0.2854 -0.0803 -0.2109
 1043SOL    HW1 6083   3.884   7.376   6.862 -1.6080 -0.2176  0.6298
 1043SOL    HW2 6084   4.006   7.411   6.944 -0.0227 -1.8920 -0.9239
 1044SOL     OW 6085   3.051   5.731   3.086  0.4335  0.1965 -0.1072
 1044SOL    HW1 6086   3.055   5.654   3.031 -0.2284 -0.6161  0.9404
 1044SOL    HW2 6087   3.137   5.772   3.077  1.4302 -1.6089  0.6218
 1045SOL     OW 6088   8.029   7.054   6.334  0.7212  0.0410  0.1744
 1045SOL    HW1 6089   8.049   6.961   6.344 -0.2682 -0.1298  0.7073
 1045SOL    HW2 6090   8.107   7.099   6.364  0.5586 -0.5977  1.6115
 1046SOL     OW 6091   6.531   2.810   6.039 -0.7234 -0.1906  0.0022
 1046SOL    HW1 6092   6.542   2.786   6.131 -0.2438 -0.6474 -0.1658
 1046SOL    HW2 6093   6.619   2.835   6.011 -1.0961  1.2583  0.0175
 1047SOL     OW 6094   5.386   1.803   4.858  0.4357 -0.1851 -0.4863
 1047SOL    HW1 6095   5.316   1.820   4.920 -0.0501 -0.1951 -1.0256
 1047SOL    HW2 6096   5.460   1.774   4.912  1.4949  3.9424  0.5775
 1048SOL     OW 6097   5.026   7.562   7.456 -0.8706 -0.0747 -0.3410
 1048SOL    HW1 6098   4.957   7.623   7.433 -0.2922  0.7602  0.0790
 1048SOL    HW2 6099   5.026   7.562   7.552  0.4025  0.7636 -0.3203
 1049SOL     OW 6100   0.455   7.644   7.350  0.0336  0.2148 -0.7891
 1049SOL    HW1 6101   0.431   7.583   7.419  0.0432  0.1390 -0.8523
 1049SOL    HW2 6102   0.452   7.592   7.270  0.1593  0.2676 -0.8285
 1050SOL     OW 6103   3.992   7.661   5.594 -0.9911  0.3371  0.0900
 1050SOL    HW1 6104   3.903   7.670   5.627 -0.3103  4.8809  1.3946
 1050SOL    HW2 6105   4.047   7.668   5.673  0.5653 -1.2948 -0.7993
 1051SOL     OW 6106   3.877   6.337   6.085 -0.1598 -0.1494  0.0758
 1051SOL    HW1 6107   3.848   6.384   6.163  0.4064  2.4607 -1.1656
 1051SOL    HW2 6108   3.834   6.252   6.091 -1.4577  0.5809  2.3806
 1052SOL     OW 6109   5.387   3.248   4.442  0.4033 -0.5723  0.9406
 1052SOL    HW1 6110   5.423   3.159   4.444  0.4546 -0.5711  0.3461
 1052SOL    HW2 6111   5.388   3.272   4.349 -2.4021 -1.0978  0.6967
 1053SOL     OW 6112   8.069   2.829   5.178  0.0973 -0.0043  0.1301
 1053SOL    HW1 6113   8.013   2.759   5.210  0.0960 -0.0068  0.1222
 1053SOL    HW2 6114   8.034   2.909   5.219 -0.4014  0.1058 -0.4987
 1054SOL     OW 6115   1.327   6.733   0.085 -0.1157 -0.0148  0.1589
 1054SOL    HW1 6116   1.351   6.770   0.000 -0.7807  1.5614  0.6167
 1054SOL    HW2 6117   1.390   6.771   0.146  2.2374 -3.3749  0.0577
 1055SOL     OW 6118   7.529   2.805   6.263 -0.3616  0.5603  0.2737
 1055SOL    HW1 6119   7.548   2.717   6.232 -1.0114  0.7859 -0.8136
 1055SOL    HW2 6120   7.487   2.792   6.348  0.6414 -0.1094  0.6896
 1056SOL     OW 6121   8.047   2.633   3.176 -1.0749  0.4772 -0.2928
 1056SOL    HW1 6122   8.054   2.715   3.126 -0.9783  0.1408 -0.8492
 1056SOL    HW2 6123   7.993   2.576   3.120 -2.7558  0.7894  0.9477
 1057SOL     OW 6124   2.960   0.244   2.821  0.2483  1.0298  0.2679
 1057SOL    HW1 6125   2.976   0.212   2.910 -2.0038  0.2225  0.4402
 1057SOL    HW2 6126   2.926   0.333   2.834  0.4275  1.1102  0.1843
 1058SOL     OW 6127   5.196   5.067   6.720 -0.2715  0.6603 -0.2473
 1058SOL    HW1 6128   5.179   4.991   6.777 -0.5008  2.2217  1.8958
 1058SOL    HW2 6129   5.169   5.142   6.773  1.5123  2.3746 -1.6626
 1059SOL     OW 6130   7.569   3.922   6.568  0.5242 -0.2708  0.5797
 1059SOL    HW1 6131   7.493   3.928   6.510  0.1657  0.4848  1.1034
 1059SOL    HW2 6132   7.559   3.997   6.627  1.7708 -0.0744  0.5529
 1060SOL     OW 6133   3.012   0.794   7.557  0.6269  0.0359 -0.2548
 1060SOL    HW1 6134   2.991   0.719   7.613 -1.2183  0.8964  0.2871
 1060SOL    HW2 6135   2.927   0.835   7.540  1.6314  2.3122 -0.0973
 1061SOL     OW 6136   5.219   7.250   0.964  0.1632 -0.3906 -0.0126
 1061SOL    HW1 6137   5.298   7.303   0.948 -0.3259  0.5444  0.5375
 1061SOL    HW2 6138   5.200   7.210   0.879  1.4825 -1.0025 -0.0469
 1062SOL     OW 6139   8.005   2.908   0.397  0.2598  0.3828 -0.2379
 1062SOL    HW1 6140   7.981   2.978   0.457 -0.6632 -0.6099  0.5938
 1062SOL    HW2 6141   7.959   2.930   0.316 -0.0661  0.6991  0.0295
 1063SOL     OW 6142   2.311   7.956   0.628 -0.1302  0.2429 -0.5209
 1063SOL    HW1 6143   2.297   8.047   0.600  2.5442  0.2499 -2.2192
 1063SOL    HW2 6144   2.382   7.962   0.692 -0.0205 -0.6256 -0.5535
 1064SOL     OW 6145   0.729   4.859   7.728  0.5776 -0.2154  0.0972
 1064SOL    HW1 6146   0.662   4.802   7.690 -0.6888  2.2474 -1.6425
 1064SOL    HW2 6147   0.680   4.920   7.784  1.3271  1.4321 -0.9547
 1065SOL     OW 6148   7.000   7.751   5.310 -0.2884 -0.0990 -0.2691
 1065SOL    HW1 6149   7.050   7.825   5.344 -1.8019  0.7561  0.1677
 1065SOL    HW2 6150   6.983   7.774   5.218 -0.1614 -0.2386 -0.3283
 1066SOL     OW 6151   1.889   2.323   3.207  0.1127  0.2512  0.0401
 1066SOL    HW1 6152   1.817   2.280   3.252  0.4253 -0.6456 -0.3025
 1066SOL    HW2 6153   1.847   2.374   3.137 -0.2885  0.8626  0.7094
 1067SOL     OW 6154   1.585   2.662   2.230 -0.6396 -0.2647  0.1566
 1067SOL    HW1 6155   1.545   2.575   2.233  0.0197 -0.5489  1.9922
 1067SOL    HW2 6156   1.678   2.645   2.217 -0.3329  0.0743  1.7426
 1068SOL     OW 6157   3.568   6.770   6.448  0.5736 -0.2481 -0.0307
 1068SOL    HW1 6158   3.619   6.705   6.400  1.1035 -1.4589  2.0465
 1068SOL    HW2 6159   3.629   6.842   6.462  0.3168  0.2703 -1.3764
 1069SOL     OW 6160   5.122   0.168   7.057  0.1118 -0.7912 -0.0339
 1069SOL    HW1 6161   5.165   0.222   6.991 -0.3710 -1.3459 -0.8207
 1069SOL    HW2 6162   5.162   0.195   7.140 -2.3808  3.1720  0.1374
 1070SOL     OW 6163   0.821   4.406   7.470 -0.2557  0.5155  0.6231
 1070SOL    HW1 6164   0.818   4.501   7.453  1.3669  0.3259 -0.9751
 1070SOL    HW2 6165   0.896   4.395   7.527 -0.5307  0.1951  0.9233
 1071SOL     OW 6166   4.172   4.664   5.995  0.4754  0.4195  0.5334
 1071SOL    HW1 6167   4.257   4.705   5.981  0.6857  1.8227  4.6777
 1071SOL    HW2 6168   4.191   4.570   5.997  1.5055  0.5789 -0.6518
 1072SOL     OW 6169   4.238   5.159   8.021 -0.0114 -0.1925 -0.3310
 1072SOL    HW1 6170   4.156   5.205   8.005 -0.0381 -0.5675 -1.3305
 1072SOL    HW2 6171   4.222   5.106   8.098 -0.9031 -0.7113 -0.8619
 1073SOL     OW 6172   0.673   5.851   0.589  0.1320 -0.2842 -0.3566
 1073SOL    HW1 6173   0.614   5.822   0.658  1.7437 -1.7202  0.5135
 1073SOL    HW2 6174   0.672   5.947   0.595 -1.7688 -0.2835 -0.1484
 1074SOL     OW 6175   7.815   5.512   7.308  0.1443 -0.3152 -0.3407
 1074SOL    HW1 6176   7.833   5.500   7.215  1.3117  1.4628 -0.3972
 1074SOL    HW2 6177   7.724   5.485   7.319 -0.0114 -0.5517 -1.9878
 1075SOL     OW 6178   3.546   6.803   5.105  0.1356  0.0900  0.3801
 1075SOL    HW1 6179   3.515   6.844   5.025  1.8202  0.4943 -0.1107
 1075SOL    HW2 6180   3.633   6.841   5.120 -0.1685  0.1050  2.4562
 1076SOL     OW 6181   4.395   3.701   5.716  0.1603 -0.4785  0.0505
 1076SOL    HW1 6182   4.486   3.728   5.704  0.2332 -0.5378  0.4638
 1076SOL    HW2 6183   4.360   3.695   5.627  0.1500  0.9146 -0.0599
 1077SOL     OW 6184   1.742   2.505   6.353 -0.0716 -0.8416  0.0410
 1077SOL    HW1 6185   1.813   2.529   6.413  0.2300  0.3622 -0.7583
 1077SOL    HW2 6186   1.744   2.574   6.286 -0.5780 -1.9961 -1.1895
 1078SOL     OW 6187   7.612   7.908   3.247 -0.3489  0.1806  0.1866
 1078SOL    HW1 6188   7.645   7.864   3.325 -2.9903 -2.4411  0.0020
 1078SOL    HW2 6189   7.627   7.846   3.176 -1.2915  0.9480 -0.7149
 1079SOL     OW 6190   0.743   6.821   7.373  0.2102 -0.4342 -0.2262
 1079SOL    HW1 6191   0.783   6.804   7.287 -0.0329  1.0414 -0.6643
 1079SOL    HW2 6192   0.794   6.768   7.434  1.0729 -0.6971 -1.1417
 1080SOL     OW 6193   1.651   1.734   3.601  0.5057 -0.6013 -0.0187
 1080SOL    HW1 6194   1.728   1.679   3.586  0.8463  0.2949 -1.8749
 1080SOL    HW2 6195   1.580   1.688   3.556 -0.2734 -1.7843  2.2707
 1081SOL     OW 6196   0.359   0.684   0.472 -0.4351  0.2145 -0.3715
 1081SOL    HW1 6197   0.412   0.760   0.496  0.8209  0.3285 -3.1557
 1081SOL    HW2 6198   0.279   0.721   0.435 -1.2407  0.0788  1.1621
 1082SOL     OW 6199   4.393   3.182   4.808 -0.5799  0.1015 -0.4290
 1082SOL    HW1 6200   4.345   3.104   4.778 -1.2787  0.0732  0.7384
 1082SOL    HW2 6201   4.485   3.163   4.786 -0.7702 -0.9675 -0.3516
 1083SOL     OW 6202   1.551   7.414   5.521  0.4930 -0.3739  0.0992
 1083SOL    HW1 6203   1.484   7.371   5.468 -0.1470  0.7372 -0.0443
 1083SOL    HW2 6204   1.634   7.389   5.481 -0.0204  2.7237 -3.3961
 1084SOL     OW 6205   4.846   2.072   7.893 -0.0425  0.1639  0.0391
 1084SOL    HW1 6206   4.802   2.114   7.967  0.0256  0.8490 -0.3115
 1084SOL    HW2 6207   4.830   1.978   7.907  0.4231  0.2368  1.2180
 1085SOL     OW 6208   5.374   1.220   3.932 -0.3402  0.9547 -0.2639
 1085SOL    HW1 6209   5.396   1.127   3.941 -0.0867  1.0049 -0.3570
 1085SOL    HW2 6210   5.394   1.257   4.018  0.4848  1.1100 -0.5205
 1086SOL     OW 6211   1.389   2.000   1.017 -0.4875 -0.6073 -0.5585
 1086SOL    HW1 6212   1.478   2.018   0.988  0.5713  0.5733  2.9467
 1086SOL    HW2 6213   1.337   2.075   0.987  0.1733 -0.2338 -0.7693
 1087SOL     OW 6214   1.841   1.434   0.052  0.1874 -0.4927 -0.4715
 1087SOL    HW1 6215   1.855   1.484  -0.029  0.1591 -2.5727 -1.8367
 1087SOL    HW2 6216   1.758   1.465   0.086 -0.3403 -0.3148 -1.8510
 1088SOL     OW 6217   6.799   0.347   6.672  0.0994 -0.9821 -0.5371
 1088SOL    HW1 6218   6.808   0.438   6.644 -1.3542 -0.1473  1.4266
 1088SOL    HW2 6219   6.888   0.317   6.689  0.4964  0.7816  0.7204
 1089SOL     OW 6220   3.423   3.229   5.341  0.2129  0.5008  0.0628
 1089SOL    HW1 6221   3.510   3.237   5.304  0.6417 -0.0066  0.9252
 1089SOL    HW2 6222   3.437   3.196   5.430 -0.7074  2.4465  1.0071
 1090SOL     OW 6223   7.617   5.983   0.311 -0.4664  0.2208 -0.0018
 1090SOL    HW1 6224   7.522   5.977   0.298 -0.8424 -0.8153  2.5261
 1090SOL    HW2 6225   7.652   5.905   0.268 -0.5455  1.1617 -1.9103
 1091SOL     OW 6226   1.684   2.492   5.284 -0.4415  0.7326 -0.2284
 1091SOL    HW1 6227   1.632   2.509   5.362 -2.0849 -0.3945 -1.0213
 1091SOL    HW2 6228   1.773   2.476   5.317 -1.1351  0.0893  1.4383
 1092SOL     OW 6229   4.274   5.236   6.737  0.5393  0.6587 -0.0082
 1092SOL    HW1 6230   4.338   5.306   6.719  0.8130  0.2650 -0.5937
 1092SOL    HW2 6231   4.225   5.227   6.655  0.6255  0.0389  0.0084
 1093SOL     OW 6232   1.461   2.719   6.981 -0.2522  0.1276 -0.3020
 1093SOL    HW1 6233   1.462   2.757   6.893 -0.4574 -1.2622 -0.9339
 1093SOL    HW2 6234   1.373   2.738   7.014  0.2899  1.9329  0.2221
 1094SOL     OW 6235   1.485   5.181   4.319  0.3937  0.6365  0.0258
 1094SOL    HW1 6236   1.483   5.272   4.290 -0.8267  0.9829  1.1006
 1094SOL    HW2 6237   1.464   5.184   4.412  1.2492 -0.6834  0.2989
 1095SOL     OW 6238   2.075   3.053   0.464  0.1278  0.6195  0.1176
 1095SOL    HW1 6239   2.025   2.989   0.414  0.8733  1.0540 -1.2258
 1095SOL    HW2 6240   2.021   3.132   0.463  0.1640  0.6418 -0.0361
 1096SOL     OW 6241   2.937   3.064   1.498 -0.2877  0.3307 -0.0553
 1096SOL    HW1 6242   2.962   2.994   1.558  0.5247  0.2523 -0.4772
 1096SOL    HW2 6243   2.975   3.039   1.415 -2.5662 -0.2782 -1.0042
 1097SOL     OW 6244   4.274   5.669   7.415  0.0342  0.1467 -0.2272
 1097SOL    HW1 6245   4.333   5.680   7.340  1.1575  1.4872  0.7774
 1097SOL    HW2 6246   4.199   5.620   7.380  0.7391  0.2940 -2.0876
 1098SOL     OW 6247   3.278   3.815   0.011  0.1946 -0.3432  0.5338
 1098SOL    HW1 6248   3.275   3.719   0.004  0.7074 -0.4225  1.2132
 1098SOL    HW2 6249   3.224   3.835   0.087 -0.3626 -0.0428  0.0612
 1099SOL     OW 6250   7.908   2.881   4.848 -0.0911 -0.1487  0.2030
 1099SOL    HW1 6251   7.964   2.836   4.785  0.5314  0.2220  0.4824
 1099SOL    HW2 6252   7.883   2.813   4.911 -0.1532 -0.3667 -0.0532
 1100SOL     OW 6253   6.829   5.709   7.341 -0.1970  0.0157 -0.5590
 1100SOL    HW1 6254   6.809   5.711   7.248 -0.5486  0.1844 -0.4802
 1100SOL    HW2 6255   6.791   5.789   7.376 -1.1601 -0.6221 -0.0638
 1101SOL     OW 6256   2.503   2.339   3.469 -0.1368  0.0671  0.8770
 1101SOL    HW1 6257   2.594   2.320   3.448 -0.0199  0.0253  1.4076
 1101SOL    HW2 6258   2.496   2.434   3.460 -0.3659 -0.0576 -0.3986
 1102SOL     OW 6259   7.624   2.346   0.440  0.0157 -0.0113 -0.2217
 1102SOL    HW1 6260   7.572   2.423   0.416  0.6824  0.6426  0.3585
 1102SOL    HW2 6261   7.581   2.312   0.518 -1.5874 -1.5717 -1.7036
 1103SOL     OW 6262   5.147   0.111   7.581 -0.1676  0.0699 -0.0142
 1103SOL    HW1 6263   5.209   0.119   7.509 -0.2364 -0.9355 -0.1853
 1103SOL    HW2 6264   5.105   0.197   7.586 -0.7607 -0.1014 -1.7078
 1104SOL     OW 6265   5.709   4.754   5.667  0.2762 -0.2840  0.1288
 1104SOL    HW1 6266   5.720   4.845   5.693  2.6814  0.7480 -3.6333
 1104SOL    HW2 6267   5.783   4.708   5.707  1.4240  0.3488 -1.1981
 1105SOL     OW 6268   5.571   1.282   6.742 -0.1637 -0.0381  0.0890
 1105SOL    HW1 6269   5.559   1.377   6.735  0.0246 -0.0557 -0.6376
 1105SOL    HW2 6270   5.487   1.249   6.774 -1.2125  0.1087 -2.2691
 1106SOL     OW 6271   7.511   0.426   4.144 -0.0029 -0.5437 -0.1517
 1106SOL    HW1 6272   7.553   0.345   4.173  1.1787 -0.5993 -1.8792
 1106SOL    HW2 6273   7.514   0.483   4.221  0.3005 -1.6966  0.7148
 1107SOL     OW 6274   6.479   1.816   3.499 -0.4642 -0.0098 -0.0508
 1107SOL    HW1 6275   6.426   1.738   3.517  0.1228 -0.4845 -0.3539
 1107SOL    HW2 6276   6.558   1.804   3.551  0.3082 -0.3633 -1.2738
 1108SOL     OW 6277   1.652   0.560   1.852 -0.0575 -0.1697  0.2494
 1108SOL    HW1 6278   1.605   0.635   1.815 -0.5681 -0.8210 -0.4774
 1108SOL    HW2 6279   1.621   0.485   1.800  1.4624 -0.6822  0.0500
 1109SOL     OW 6280   4.559   5.621   3.428 -0.5620 -0.2124  0.0513
 1109SOL    HW1 6281   4.596   5.663   3.506  0.1118 -2.6910  1.1610
 1109SOL    HW2 6282   4.615   5.650   3.356  2.1688 -1.9183  1.3261
 1110SOL     OW 6283   0.334   5.750   4.430 -0.0423 -0.4893 -0.2642
 1110SOL    HW1 6284   0.350   5.844   4.434  0.6601 -0.5328 -1.5072
 1110SOL    HW2 6285   0.238   5.742   4.433 -0.2011  0.3987 -1.7994
 1111SOL     OW 6286   1.194   1.142   0.289  0.4471  0.2192  0.3763
 1111SOL    HW1 6287   1.139   1.216   0.265 -0.3736  0.0652  1.6295
 1111SOL    HW2 6288   1.249   1.175   0.360  0.6931 -0.1288  0.3492
 1112SOL     OW 6289   0.674   4.795   0.029 -0.3137  0.1094  0.1270
 1112SOL    HW1 6290   0.652   4.747  -0.051  0.7529  0.0812 -0.1606
 1112SOL    HW2 6291   0.608   4.766   0.092 -0.4310 -0.8066 -0.3874
 1113SOL     OW 6292   7.793   0.829   7.848  0.0710  0.0301  0.3303
 1113SOL    HW1 6293   7.860   0.780   7.893  1.2530  1.5336  0.3001
 1113SOL    HW2 6294   7.729   0.763   7.819  0.6106 -1.2279  1.8882
 1114SOL     OW 6295   3.916   3.562   6.629 -0.6839  0.2513  0.1676
 1114SOL    HW1 6296   3.962   3.538   6.549  1.0754 -0.9163  1.4598
 1114SOL    HW2 6297   3.974   3.625   6.672 -2.1373  1.7539  0.0378
 1115SOL     OW 6298   3.362   4.119   3.259  0.1349 -0.2902 -0.4657
 1115SOL    HW1 6299   3.433   4.066   3.223 -0.1705  1.6206 -4.3882
 1115SOL    HW2 6300   3.405   4.202   3.284 -0.2210 -0.3739  0.4634
 1116SOL     OW 6301   6.143   4.083   0.884 -0.1786  0.0732  0.0838
 1116SOL    HW1 6302   6.155   4.011   0.822  0.3652  0.2864 -0.0655
 1116SOL    HW2 6303   6.232   4.116   0.900 -0.3952  0.5306  0.3604
 1117SOL     OW 6304   7.608   5.188   7.482  0.5268  0.2792 -0.1830
 1117SOL    HW1 6305   7.555   5.148   7.551  0.2687  1.0135  0.0545
 1117SOL    HW2 6306   7.578   5.147   7.402 -0.6541  0.9236 -0.0894
 1118SOL     OW 6307   4.184   6.288   1.104  0.3885  0.3851 -0.0147
 1118SOL    HW1 6308   4.223   6.249   1.026 -1.4927  0.3498 -0.9854
 1118SOL    HW2 6309   4.193   6.383   1.091 -0.6097  0.4014 -0.6702
 1119SOL     OW 6310   2.151   0.674   1.726 -0.1644 -0.3289 -0.5027
 1119SOL    HW1 6311   2.159   0.745   1.789  0.2163  1.3814 -2.3844
 1119SOL    HW2 6312   2.081   0.619   1.761 -0.9043  1.2891  0.7005
 1120SOL     OW 6313   3.285   5.237   0.715 -0.2913 -0.2753  0.3151
 1120SOL    HW1 6314   3.288   5.143   0.734 -2.2385 -0.4977 -0.2305
 1120SOL    HW2 6315   3.253   5.242   0.625 -1.6187  0.9171  0.8166
 1121SOL     OW 6316   6.685   7.156   5.789  0.2481 -0.5034  0.1770
 1121SOL    HW1 6317   6.762   7.214   5.785  1.7105 -2.3720 -0.0158
 1121SOL    HW2 6318   6.612   7.212   5.764  0.9882  2.2108  3.3734
 1122SOL     OW 6319   3.834   6.338   0.260  0.5332  0.1709 -0.1132
 1122SOL    HW1 6320   3.913   6.295   0.228 -0.0450 -0.8798 -0.1893
 1122SOL    HW2 6321   3.824   6.305   0.350  0.2781  0.4407 -0.0406
 1123SOL     OW 6322   5.837   7.205   4.815 -0.1432  0.4809 -0.6819
 1123SOL    HW1 6323   5.914   7.252   4.847  0.0360 -1.5042  2.1421
 1123SOL    HW2 6324   5.763   7.250   4.855 -0.1781  0.1546 -0.3767
 1124SOL     OW 6325   0.366   1.681   6.508  0.3866 -0.0587  0.3959
 1124SOL    HW1 6326   0.304   1.611   6.485  0.5559 -0.5279  1.3112
 1124SOL    HW2 6327   0.451   1.646   6.484  0.2104  1.4345 -2.9305
 1125SOL     OW 6328   0.422   1.505   4.017  0.4153  0.2325  0.4168
 1125SOL    HW1 6329   0.440   1.597   4.035 -0.5518  0.3115  1.0617
 1125SOL    HW2 6330   0.379   1.506   3.931 -2.0627  0.7196  1.5591
 1126SOL     OW 6331   3.798   4.865   2.249 -0.0821  0.1314 -0.2351
 1126SOL    HW1 6332   3.848   4.908   2.319  0.1552  0.1598 -0.4196
 1126SOL    HW2 6333   3.864   4.840   2.184  0.0988 -2.4428  0.8212
 1127SOL     OW 6334   4.152   6.316   4.500  0.7975 -0.3966  0.3870
 1127SOL    HW1 6335   4.141   6.305   4.406 -3.6123  0.1628  0.6140
 1127SOL    HW2 6336   4.142   6.228   4.536  0.5117 -0.3537  0.4160
 1128SOL     OW 6337   1.735   1.149   6.553  0.0252 -0.0768  0.0904
 1128SOL    HW1 6338   1.826   1.161   6.526  1.3162 -3.5042  2.2701
 1128SOL    HW2 6339   1.730   1.192   6.639 -0.3412 -0.1370  0.1006
 1129SOL     OW 6340   6.797   6.571   3.731  0.1162 -0.7045  0.2110
 1129SOL    HW1 6341   6.723   6.610   3.777  0.5679 -0.0290  0.3758
 1129SOL    HW2 6342   6.771   6.570   3.639  0.0254 -0.1856  0.2309
 1130SOL     OW 6343   5.691   1.787   5.386  0.6308 -0.4250 -0.4498
 1130SOL    HW1 6344   5.719   1.710   5.435 -0.6797 -0.5741  0.0897
 1130SOL    HW2 6345   5.727   1.861   5.435  0.3844 -0.6223  0.0258
 1131SOL     OW 6346   5.553   1.671   5.707  0.3105  0.2243  0.6601
 1131SOL    HW1 6347   5.633   1.625   5.683  0.5214 -0.0478  1.8109
 1131SOL    HW2 6348   5.486   1.602   5.710 -0.2083  0.5817 -1.1869
 1132SOL     OW 6349   5.568   5.610   7.020  0.0813 -0.6256  0.5533
 1132SOL    HW1 6350   5.563   5.605   6.925 -0.6816  0.7182  0.5075
 1132SOL    HW2 6351   5.662   5.605   7.039  0.7442  3.5553 -0.6307
 1133SOL     OW 6352   0.297   4.349   5.908 -0.3460 -0.4343  0.0405
 1133SOL    HW1 6353   0.252   4.270   5.936 -1.1065  0.1939  0.6475
 1133SOL    HW2 6354   0.246   4.420   5.946  0.4418  0.3433 -0.3225
 1134SOL     OW 6355   0.817   3.915   2.431 -0.5419  0.4879 -0.0257
 1134SOL    HW1 6356   0.836   3.966   2.510 -0.8688 -0.1705  0.5019
 1134SOL    HW2 6357   0.871   3.837   2.440 -1.0781  0.0990 -0.1128
 1135SOL     OW 6358   1.909   5.284   0.829 -0.5444  0.3348 -0.1047
 1135SOL    HW1 6359   1.854   5.362   0.827 -2.6007 -1.0649 -1.0149
 1135SOL    HW2 6360   1.848   5.211   0.824  1.2335 -1.4183  1.8021
 1136SOL     OW 6361   0.724   5.556   4.736  0.1634 -0.1710  0.0660
 1136SOL    HW1 6362   0.656   5.564   4.804  0.4156 -0.9217  0.4177
 1136SOL    HW2 6363   0.738   5.646   4.706  0.3359  0.2377  1.3014
 1137SOL     OW 6364   3.909   7.369   4.487  0.5117 -0.4215 -0.3356
 1137SOL    HW1 6365   3.953   7.301   4.436  0.6347  0.0403 -0.8666
 1137SOL    HW2 6366   3.914   7.447   4.431 -0.4365 -0.2072 -0.1350
 1138SOL     OW 6367   2.711   6.267   7.534 -0.0354  0.7545 -0.0238
 1138SOL    HW1 6368   2.679   6.329   7.469 -0.3059 -0.5693 -1.2148
 1138SOL    HW2 6369   2.750   6.321   7.603 -2.0053  2.2904 -0.0460
 1139SOL     OW 6370   1.860   4.243   3.418  0.2529  0.0703  0.0113
 1139SOL    HW1 6371   1.938   4.297   3.407  0.2040 -0.0240 -0.8353
 1139SOL    HW2 6372   1.888   4.156   3.389 -0.0403 -0.0667  0.1411
 1140SOL     OW 6373   4.698   4.329   7.465  0.1398  0.3895 -0.2992
 1140SOL    HW1 6374   4.657   4.243   7.472  0.3768  0.4167  1.8871
 1140SOL    HW2 6375   4.629   4.385   7.428 -1.1822 -0.0285  1.4060
 1141SOL     OW 6376   6.016   3.346   5.543 -0.3193 -0.6056  0.3096
 1141SOL    HW1 6377   6.000   3.380   5.455  0.5532 -1.0984 -0.0438
 1141SOL    HW2 6378   5.995   3.419   5.601  2.0028  0.7367 -0.4554
 1142SOL     OW 6379   0.959   7.790   2.914 -0.3215  0.1133 -0.6938
 1142SOL    HW1 6380   0.934   7.823   3.000  0.3292 -0.1811 -0.3815
 1142SOL    HW2 6381   0.907   7.841   2.853  0.4662  1.5729 -0.2145
 1143SOL     OW 6382   0.746   7.444   7.021 -0.2657  0.0108  0.4798
 1143SOL    HW1 6383   0.802   7.470   7.095 -0.9983 -1.6448  1.6631
 1143SOL    HW2 6384   0.657   7.451   7.054 -0.6064 -0.7627 -0.2399
 1144SOL     OW 6385   3.929   5.037   7.855 -0.7382  0.0357  0.1817
 1144SOL    HW1 6386   3.985   4.987   7.795 -0.5170  0.4793  0.0147
 1144SOL    HW2 6387   3.844   4.994   7.848 -0.6471 -0.0868 -0.2461
 1145SOL     OW 6388   7.605   6.273   5.842 -0.0753  0.0245 -0.1865
 1145SOL    HW1 6389   7.573   6.329   5.914 -1.7467 -0.9890 -0.0829
 1145SOL    HW2 6390   7.544   6.289   5.771 -0.0832 -1.0407 -0.4309
 1146SOL     OW 6391   3.673   0.481   5.004  0.6140  0.0204  0.0439
 1146SOL    HW1 6392   3.679   0.430   5.084  0.7470  1.3457  0.9025
 1146SOL    HW2 6393   3.648   0.569   5.033 -0.2119  0.3086 -1.4410
 1147SOL     OW 6394   3.960   5.872   7.387  0.7310 -0.1785  0.6329
 1147SOL    HW1 6395   3.998   5.803   7.442 -0.7429 -2.9815 -1.5646
 1147SOL    HW2 6396   3.948   5.830   7.301  0.2797  3.0556 -1.0564
 1148SOL     OW 6397   0.831   6.174   5.030 -0.0242  0.3125 -0.2730
 1148SOL    HW1 6398   0.902   6.154   4.969 -0.1531  1.9870 -1.0267
 1148SOL    HW2 6399   0.875   6.204   5.109  0.1206  0.2992 -0.3479
 1149SOL     OW 6400   0.081   0.775   0.952  0.4782 -0.2392 -0.1536
 1149SOL    HW1 6401   0.143   0.796   1.022  0.2647  0.4627 -0.1648
 1149SOL    HW2 6402   0.016   0.718   0.994  1.4438 -1.4910 -0.2923
 1150SOL     OW 6403   5.410   1.920   6.609 -0.1441  0.0450  0.1476
 1150SOL    HW1 6404   5.364   1.969   6.677  0.2934  1.1106 -0.3106
 1150SOL    HW2 6405   5.498   1.906   6.645  0.3032  1.1947 -0.4384
 1151SOL     OW 6406   1.862   5.453   4.448 -0.2884 -0.1935 -0.0740
 1151SOL    HW1 6407   1.826   5.477   4.363 -4.1586 -2.5609  0.6615
 1151SOL    HW2 6408   1.928   5.387   4.429  0.5043  0.8824 -1.2541
 1152SOL     OW 6409   5.154   2.933   3.286  0.6606 -0.3957  0.0995
 1152SOL    HW1 6410   5.238   2.941   3.240  1.8122 -0.6657  2.0451
 1152SOL    HW2 6411   5.137   3.021   3.321  0.0543 -0.3128 -0.3843
 1153SOL     OW 6412   2.015   2.550   4.575  0.5127  0.2447 -0.2737
 1153SOL    HW1 6413   1.990   2.629   4.623  0.1478 -0.2351  0.3550
 1153SOL    HW2 6414   2.051   2.492   4.642  0.4121 -0.2685 -0.6578
 1154SOL     OW 6415   7.459   5.489   4.277 -0.5714  0.0036 -0.3500
 1154SOL    HW1 6416   7.432   5.463   4.365 -1.2915  0.6065 -0.3822
 1154SOL    HW2 6417   7.407   5.567   4.258  1.0514  1.0879 -0.5125
 1155SOL     OW 6418   6.450   6.393   7.425  0.5988 -0.6478 -0.3632
 1155SOL    HW1 6419   6.417   6.353   7.344  2.7572 -0.5251 -1.3744
 1155SOL    HW2 6420   6.417   6.482   7.423  1.3733 -0.3675 -1.6072
 1156SOL     OW 6421   3.267   0.916   4.479 -0.3493  0.0090 -0.1261
 1156SOL    HW1 6422   3.225   0.831   4.488 -1.2358  0.5105  0.5936
 1156SOL    HW2 6423   3.223   0.972   4.543 -0.2253  1.1858 -1.0337
 1157SOL     OW 6424   2.861   7.297   4.172 -0.5815 -0.7235  0.0404
 1157SOL    HW1 6425   2.800   7.223   4.178 -1.6065 -0.1385 -2.2700
 1157SOL    HW2 6426   2.918   7.275   4.098  0.1921  0.0554  0.3903
 1158SOL     OW 6427   0.392   0.929   4.091  0.3655  0.3380 -0.0139
 1158SOL    HW1 6428   0.469   0.962   4.136  1.7873 -2.7072  0.0200
 1158SOL    HW2 6429   0.404   0.955   4.000 -0.9822  3.8256  0.6427
 1159SOL     OW 6430   5.590   0.111   0.804  0.0735  0.6297 -1.0027
 1159SOL    HW1 6431   5.530   0.077   0.870  0.6569 -1.6890 -1.5876
 1159SOL    HW2 6432   5.604   0.203   0.830  1.7590 -0.5756  3.3029
 1160SOL     OW 6433   1.481   4.958   3.393 -0.2187  0.0121 -0.1876
 1160SOL    HW1 6434   1.477   5.037   3.446 -0.0972  0.4500 -0.8161
 1160SOL    HW2 6435   1.391   4.945   3.363 -0.3486 -0.4135  0.3729
 1161SOL     OW 6436   1.905   7.070   3.894  0.2600 -0.2840  0.5098
 1161SOL    HW1 6437   1.966   6.999   3.914  1.8117  0.7148 -0.4757
 1161SOL    HW2 6438   1.879   7.055   3.804 -1.7410 -1.2083  1.1838
 1162SOL     OW 6439   2.676   4.685   3.542  0.0366  0.4174  0.6188
 1162SOL    HW1 6440   2.748   4.711   3.599  0.7769  0.5100 -0.3429
 1162SOL    HW2 6441   2.718   4.648   3.465 -0.9739 -2.0451  1.1598
 1163SOL     OW 6442   7.253   2.619   0.082  0.5508  0.0465  0.6429
 1163SOL    HW1 6443   7.158   2.628   0.090  0.8167  2.4085  2.0244
 1163SOL    HW2 6444   7.288   2.661   0.160  2.7825  0.2763 -0.4002
 1164SOL     OW 6445   2.497   0.658   4.081  0.8661 -0.0330 -0.3082
 1164SOL    HW1 6446   2.443   0.602   4.137  1.5415 -0.0485  0.3486
 1164SOL    HW2 6447   2.535   0.722   4.141  0.0849  1.1782 -1.0459
 1165SOL     OW 6448   7.728   7.470   3.823  0.3427 -0.2509  0.4895
 1165SOL    HW1 6449   7.799   7.502   3.767 -2.8341  3.0108 -2.2091
 1165SOL    HW2 6450   7.675   7.415   3.766 -1.1899  0.3037  1.3226
 1166SOL     OW 6451   0.587   5.323   6.006 -0.2932 -0.6924 -0.0118
 1166SOL    HW1 6452   0.570   5.417   6.012 -0.1209 -0.5092 -1.8090
 1166SOL    HW2 6453   0.679   5.317   5.982 -0.6108 -1.2406 -1.1970
 1167SOL     OW 6454   0.034   7.358   7.812 -0.6360 -0.1421  0.1179
 1167SOL    HW1 6455  -0.031   7.346   7.743 -0.8987  0.4609  0.2455
 1167SOL    HW2 6456  -0.013   7.340   7.893 -0.1740 -1.4321  0.1223
 1168SOL     OW 6457   0.027   0.523   3.215 -0.1374 -0.1164  0.7648
 1168SOL    HW1 6458   0.073   0.494   3.136 -0.1490  0.9306  0.3473
 1168SOL    HW2 6459   0.045   0.617   3.219  0.2518 -0.2273  2.2718
 1169SOL     OW 6460   1.603   0.156   0.856 -0.2663 -0.6012 -0.1730
 1169SOL    HW1 6461   1.598   0.075   0.804  2.3098 -0.9041 -0.0975
 1169SOL    HW2 6462   1.555   0.136   0.936 -1.6244 -1.2254 -1.1025
 1170SOL     OW 6463   2.922   6.866   5.658 -0.2364 -0.1187  0.4205
 1170SOL    HW1 6464   2.968   6.942   5.695 -2.0160  2.3040 -1.9260
 1170SOL    HW2 6465   2.871   6.831   5.730 -2.0472  3.1640  0.9501
 1171SOL     OW 6466   2.304   2.982   1.267  0.3235 -0.2970  0.2676
 1171SOL    HW1 6467   2.267   2.895   1.253 -0.4600 -0.2310  1.6333
 1171SOL    HW2 6468   2.298   3.026   1.182  0.4707 -1.4747 -0.3615
 1172SOL     OW 6469   2.862   1.710   0.960  0.2896 -0.0895  0.4081
 1172SOL    HW1 6470   2.906   1.774   0.904 -2.4085  2.2981  0.7633
 1172SOL    HW2 6471   2.853   1.632   0.905 -0.6436  1.5583 -1.9359
 1173SOL     OW 6472   6.690   7.401   7.451 -0.4896  0.0660  0.0747
 1173SOL    HW1 6473   6.628   7.329   7.462 -0.8182  0.4204  0.5732
 1173SOL    HW2 6474   6.760   7.364   7.397 -0.3891 -0.7850  0.7722
 1174SOL     OW 6475   5.357   7.932   6.362 -0.5678  0.4048 -0.2902
 1174SOL    HW1 6476   5.340   7.981   6.281  0.4492  1.6337  0.2167
 1174SOL    HW2 6477   5.418   7.864   6.336 -0.2024  0.8291 -0.5563
 1175SOL     OW 6478   1.409   1.013   6.579 -0.0692  0.0909 -0.4910
 1175SOL    HW1 6479   1.377   0.930   6.545  1.1285 -0.0441 -1.3849
 1175SOL    HW2 6480   1.449   1.056   6.503  0.3452  0.9641  0.2023
 1176SOL     OW 6481   0.570   0.820   2.547  0.4176  0.1018 -0.8898
 1176SOL    HW1 6482   0.634   0.838   2.479  2.1500 -0.4025  0.5254
 1176SOL    HW2 6483   0.604   0.743   2.592 -1.2370 -0.2157 -0.1251
 1177SOL     OW 6484   3.940   3.111   7.384 -0.7022  0.1248 -0.3394
 1177SOL    HW1 6485   3.997   3.061   7.442 -0.3261  1.3025  0.3295
 1177SOL    HW2 6486   3.995   3.129   7.307 -1.1394 -1.2617 -1.0278
 1178SOL     OW 6487   4.238   1.827   1.111  0.3911  0.1601 -0.2295
 1178SOL    HW1 6488   4.268   1.773   1.184 -0.0733 -0.0425 -0.1870
 1178SOL    HW2 6489   4.261   1.917   1.136 -1.2592  0.3081  0.9526
 1179SOL     OW 6490   6.325   2.008   7.793  0.3225 -0.1074  0.6600
 1179SOL    HW1 6491   6.273   1.974   7.720  1.5317 -1.2721  0.3187
 1179SOL    HW2 6492   6.260   2.028   7.861 -0.5899 -1.2980  0.1702
 1180SOL     OW 6493   2.847   5.663   0.274 -0.1749  0.3421 -0.1778
 1180SOL    HW1 6494   2.871   5.592   0.333 -1.5463  1.0012  1.2307
 1180SOL    HW2 6495   2.916   5.663   0.207  1.2449 -0.6405  1.2275
 1181SOL     OW 6496   1.268   6.113   5.705 -0.2860 -0.3055  0.1318
 1181SOL    HW1 6497   1.347   6.161   5.680 -0.5952 -0.3372 -0.9302
 1181SOL    HW2 6498   1.197   6.177   5.698 -0.3217 -0.1790  1.4353
 1182SOL     OW 6499   1.206   6.917   6.902  0.0254  0.1680  0.4416
 1182SOL    HW1 6500   1.240   6.871   6.979 -2.1131 -2.5784 -0.1119
 1182SOL    HW2 6501   1.232   6.863   6.828 -2.8094 -0.4314 -0.2182
 1183SOL     OW 6502   7.478   0.455   1.058 -0.2405  0.2035 -0.0228
 1183SOL    HW1 6503   7.464   0.492   1.145  1.1835  0.8276 -0.0340
 1183SOL    HW2 6504   7.395   0.414   1.036 -0.2309 -1.2441  2.2479
 1184SOL     OW 6505   0.205   4.963   5.993 -0.4974  0.1835 -0.1568
 1184SOL    HW1 6506   0.173   4.887   5.944  1.7252 -0.5402 -0.6128
 1184SOL    HW2 6507   0.254   4.926   6.066 -0.0235  1.1996  0.0631
 1185SOL     OW 6508   3.507   4.827   0.764  0.5141  0.5615 -0.1116
 1185SOL    HW1 6509   3.482   4.737   0.744 -0.6853  1.2918 -2.1881
 1185SOL    HW2 6510   3.603   4.824   0.771  0.4900 -0.8795  0.0627
 1186SOL     OW 6511   5.081   3.601   1.254 -0.1288  0.2728  0.0299
 1186SOL    HW1 6512   5.016   3.579   1.187 -0.5660  0.6212  0.3303
 1186SOL    HW2 6513   5.165   3.602   1.208 -0.1375 -1.5779 -0.0945
 1187SOL     OW 6514   2.572   6.990   3.662  0.1721  0.2121 -0.3480
 1187SOL    HW1 6515   2.638   6.959   3.723  0.8698  1.8057 -0.2451
 1187SOL    HW2 6516   2.536   7.069   3.703 -1.2123 -0.1458 -0.7984
 1188SOL     OW 6517   0.367   0.520   0.719 -0.0130 -0.4183  0.0528
 1188SOL    HW1 6518   0.396   0.515   0.627  0.6436  1.3993  0.1153
 1188SOL    HW2 6519   0.302   0.590   0.720 -1.4540 -1.7198  0.6688
 1189SOL     OW 6520   2.692   4.914   6.265 -0.2289 -0.0317  0.1065
 1189SOL    HW1 6521   2.609   4.954   6.238 -2.5731 -3.0510  2.1211
 1189SOL    HW2 6522   2.702   4.938   6.357  0.8650 -0.1473  0.0360
 1190SOL     OW 6523   6.310   5.769   3.694 -0.8309 -0.0178 -0.2339
 1190SOL    HW1 6524   6.358   5.759   3.776  0.0758 -0.7440 -0.8372
 1190SOL    HW2 6525   6.368   5.820   3.638 -1.8573  1.3426 -0.1146
 1191SOL     OW 6526   5.580   5.788   4.358 -0.4984 -0.0915 -0.0921
 1191SOL    HW1 6527   5.597   5.694   4.370 -1.3219 -0.4888 -1.7633
 1191SOL    HW2 6528   5.541   5.816   4.441  0.4499 -1.0412  0.7038
 1192SOL     OW 6529   5.570   2.474   4.511 -0.6063 -0.4390 -0.1306
 1192SOL    HW1 6530   5.476   2.468   4.494 -0.5885  0.7623 -0.7599
 1192SOL    HW2 6531   5.604   2.388   4.489 -1.6096 -1.0245  0.5115
 1193SOL     OW 6532   7.448   6.246   8.049 -0.1684  0.2785 -0.3857
 1193SOL    HW1 6533   7.458   6.192   7.971  0.2646  0.6961 -0.6193
 1193SOL    HW2 6534   7.437   6.335   8.016  1.0603  0.6114  0.0530
 1194SOL     OW 6535   4.384   7.967   6.506 -0.2107 -0.2696  0.3877
 1194SOL    HW1 6536   4.317   7.988   6.571  0.7556  0.3526  1.2044
 1194SOL    HW2 6537   4.380   7.871   6.498 -1.9820 -0.1656 -0.4664
 1195SOL     OW 6538   1.064   3.881   4.458 -0.6501  0.5771 -0.2216
 1195SOL    HW1 6539   1.090   3.798   4.498 -0.5648  0.8147  0.2211
 1195SOL    HW2 6540   1.131   3.943   4.485 -0.2180  0.6046 -1.2906
 1196SOL     OW 6541   6.753   3.023   3.610  0.1407 -0.1373 -0.0150
 1196SOL    HW1 6542   6.786   3.093   3.666 -0.8214  0.1964  0.1538
 1196SOL    HW2 6543   6.776   3.051   3.521 -0.2770  0.4244  0.0458
 1197SOL     OW 6544   5.700   7.429   1.735 -0.4805  0.2500  0.1038
 1197SOL    HW1 6545   5.739   7.510   1.704 -0.9604  0.8731  1.0702
 1197SOL    HW2 6546   5.687   7.443   1.829  0.9259 -1.5662  0.6082
 1198SOL     OW 6547   7.708   6.910   6.047 -0.4304  0.2044 -0.4205
 1198SOL    HW1 6548   7.708   7.001   6.019 -1.4428  0.2065 -0.4552
 1198SOL    HW2 6549   7.656   6.864   5.980  0.9577 -0.5964 -0.9839
 1199SOL     OW 6550   6.464   4.138   5.088 -0.0210 -0.0786 -0.6978
 1199SOL    HW1 6551   6.400   4.203   5.060 -1.1063 -1.2135 -0.9492
 1199SOL    HW2 6552   6.545   4.188   5.101 -0.9075  1.3770 -0.4915
 1200SOL     OW 6553   5.704   3.254   1.760 -0.4381  0.1846  0.4194
 1200SOL    HW1 6554   5.701   3.158   1.770  1.4761  0.0751  0.3411
 1200SOL    HW2 6555   5.780   3.269   1.703 -0.4735  1.7847  0.7676
 1201SOL     OW 6556   8.134   0.264   7.758  0.2022  0.0586 -0.0635
 1201SOL    HW1 6557   8.145   0.359   7.761  1.7098 -0.1098  2.2931
 1201SOL    HW2 6558   8.058   0.250   7.700 -0.1964  2.6806 -0.2767
 1202SOL     OW 6559   4.033   7.822   4.954 -0.3871  0.5397 -0.0675
 1202SOL    HW1 6560   3.998   7.800   4.868  0.8684 -0.4016 -0.3794
 1202SOL    HW2 6561   4.128   7.811   4.945 -0.0349  2.3081  0.9172
 1203SOL     OW 6562   2.753   2.671   4.598  0.0848  0.4770  0.2799
 1203SOL    HW1 6563   2.849   2.671   4.608 -0.0088 -0.8560  1.5798
 1203SOL    HW2 6564   2.736   2.606   4.531 -0.0021 -1.5061  2.1121
 1204SOL     OW 6565   5.569   3.762   4.668 -0.4796  0.5064 -0.1721
 1204SOL    HW1 6566   5.557   3.849   4.707  0.9792  0.7960 -0.3151
 1204SOL    HW2 6567   5.663   3.756   4.651 -0.2260 -1.8623  1.5906
 1205SOL     OW 6568   6.768   5.587   3.206 -0.1211 -0.0127 -0.8701
 1205SOL    HW1 6569   6.709   5.559   3.276  1.7852  0.6808  1.1426
 1205SOL    HW2 6570   6.812   5.507   3.177  0.8507 -0.0289  0.5305
 1206SOL     OW 6571   6.192   5.009   7.513  0.0578 -0.3289  0.0787
 1206SOL    HW1 6572   6.270   5.057   7.485 -0.0628 -0.1830 -0.0075
 1206SOL    HW2 6573   6.171   4.952   7.438 -2.5378  2.7840 -1.8295
 1207SOL     OW 6574   0.115   7.183   4.945  0.1397 -0.6065  0.3432
 1207SOL    HW1 6575   0.205   7.165   4.972  1.8361 -0.0341 -4.1042
 1207SOL    HW2 6576   0.076   7.096   4.933  1.4026 -0.9871 -1.2806
 1208SOL     OW 6577   0.245   1.911   5.521 -0.1306 -0.3157  0.2736
 1208SOL    HW1 6578   0.177   1.856   5.483  1.0752 -0.3054 -2.1030
 1208SOL    HW2 6579   0.308   1.848   5.557  0.9037 -0.5814 -1.8248
 1209SOL     OW 6580   4.131   5.782   3.953 -0.0353 -1.0847  0.0879
 1209SOL    HW1 6581   4.132   5.688   3.974  0.4988 -0.9483  0.7184
 1209SOL    HW2 6582   4.193   5.821   4.015 -1.9322  0.0039  1.3896
 1210SOL     OW 6583   4.565   2.775   4.738 -0.2058 -0.4860 -0.1286
 1210SOL    HW1 6584   4.660   2.761   4.735 -0.4088 -2.6160  1.1114
 1210SOL    HW2 6585   4.530   2.706   4.682 -1.0685 -0.3885  0.2901
 1211SOL     OW 6586   3.531   1.791   3.530 -0.1752 -0.1878  0.2692
 1211SOL    HW1 6587   3.460   1.750   3.578  0.2523 -1.3664 -0.0532
 1211SOL    HW2 6588   3.579   1.842   3.595 -0.5427 -0.4660  0.7597
 1212SOL     OW 6589   3.608   2.624   8.062 -0.0017 -0.3592  0.0148
 1212SOL    HW1 6590   3.670   2.669   8.005  0.5830 -1.5731 -0.3504
 1212SOL    HW2 6591   3.622   2.662   8.148 -1.7449  2.3846 -0.7998
 1213SOL     OW 6592   6.838   0.072   1.679  0.0784  0.3430 -0.1171
 1213SOL    HW1 6593   6.876   0.000   1.730  1.7043  2.2675  1.5201
 1213SOL    HW2 6594   6.835   0.038   1.589  0.9940 -1.6702  0.5493
 1214SOL     OW 6595   1.715   5.994   4.893 -0.1661 -0.0101 -0.1188
 1214SOL    HW1 6596   1.754   6.034   4.970  0.7156  0.2648 -0.6854
 1214SOL    HW2 6597   1.638   6.047   4.873 -0.8751 -0.5664  1.0257
 1215SOL     OW 6598   4.194   1.655   6.748  0.2320 -0.2028 -0.1655
 1215SOL    HW1 6599   4.219   1.619   6.662  3.8534  1.5917 -0.0465
 1215SOL    HW2 6600   4.240   1.600   6.811  0.8657  0.9065  0.3620
 1216SOL     OW 6601   4.767   1.213   6.568 -0.3898  0.0652 -0.1895
 1216SOL    HW1 6602   4.776   1.122   6.595  0.0655  0.6190  1.7627
 1216SOL    HW2 6603   4.792   1.263   6.646  0.3174  1.8713 -1.5021
 1217SOL     OW 6604   0.818   2.033   8.009  0.3640 -0.2308  0.1971
 1217SOL    HW1 6605   0.827   1.963   7.944  1.8773  0.6281 -0.5987
 1217SOL    HW2 6606   0.725   2.055   8.009 -0.1648 -2.3097  0.5786
 1218SOL     OW 6607   3.835   5.773   7.175 -0.0495 -0.8257  0.1178
 1218SOL    HW1 6608   3.799   5.685   7.188 -1.2675 -0.6176 -1.4320
 1218SOL    HW2 6609   3.759   5.831   7.183  0.6546  0.0414  0.6362
 1219SOL     OW 6610   4.834   2.309   1.003 -0.1117  0.3522  0.2364
 1219SOL    HW1 6611   4.819   2.257   1.081  0.7923  0.0639  0.2249
 1219SOL    HW2 6612   4.918   2.278   0.968  0.1122  1.3282 -0.1474
 1220SOL     OW 6613   7.975   1.793   2.433 -0.1165  0.1013 -0.0445
 1220SOL    HW1 6614   7.910   1.726   2.415 -0.6412  0.5692  0.0910
 1220SOL    HW2 6615   8.059   1.751   2.416 -0.4994 -0.1585 -1.3483
 1221SOL     OW 6616   5.455   4.170   1.022 -0.0916 -0.1491  0.2927
 1221SOL    HW1 6617   5.482   4.170   0.930 -0.5876  2.8145  0.0314
 1221SOL    HW2 6618   5.533   4.195   1.071 -0.1777 -0.2834  0.5004
 1222SOL     OW 6619   5.092   4.883   0.238  0.2688  0.1170  0.3478
 1222SOL    HW1 6620   5.030   4.932   0.291  1.7692  0.9200  1.4493
 1222SOL    HW2 6621   5.053   4.795   0.230 -1.7394  1.0199 -0.4012
 1223SOL     OW 6622   0.724   7.642   2.330 -0.0437  0.0047  0.1511
 1223SOL    HW1 6623   0.681   7.557   2.319  0.9062 -0.3919 -0.6265
 1223SOL    HW2 6624   0.658   7.706   2.303  0.1512 -0.6467 -2.0599
 1224SOL     OW 6625   3.671   5.481   2.043 -0.0412  0.3528 -0.2119
 1224SOL    HW1 6626   3.629   5.399   2.069 -1.6872  1.2646  0.1874
 1224SOL    HW2 6627   3.763   5.458   2.029 -0.5446 -1.6348 -0.5482
 1225SOL     OW 6628   6.026   4.498   2.212 -0.0892 -0.4432  0.1795
 1225SOL    HW1 6629   5.971   4.471   2.139  0.1463 -0.8557  0.1471
 1225SOL    HW2 6630   5.987   4.579   2.244 -1.2897 -1.2395  0.7781
 1226SOL     OW 6631   7.637   6.198   1.073  0.0685  0.4043 -0.5251
 1226SOL    HW1 6632   7.681   6.215   1.157 -0.6668  1.0578 -0.2591
 1226SOL    HW2 6633   7.701   6.224   1.007  0.0820  1.4041 -0.1432
 1227SOL     OW 6634   0.393   5.003   3.291 -0.8577  0.1078  0.0634
 1227SOL    HW1 6635   0.319   5.064   3.283 -0.4844  0.5968  0.2800
 1227SOL    HW2 6636   0.426   4.993   3.201 -0.7186  0.4832  0.0711
 1228SOL     OW 6637   2.725   1.034   0.137 -0.5066  0.1992 -0.5942
 1228SOL    HW1 6638   2.787   1.017   0.066 -1.5809  1.3508 -1.8792
 1228SOL    HW2 6639   2.730   1.129   0.150  0.4803 -0.1099  1.6844
 1229SOL     OW 6640   2.010   6.534   0.259  0.7960 -0.0679 -0.6358
 1229SOL    HW1 6641   2.094   6.492   0.242 -0.1572 -2.4747  0.1521
 1229SOL    HW2 6642   1.951   6.495   0.195  0.1715  1.3784 -0.9956
 1230SOL     OW 6643   1.676   4.948   7.173 -0.3789  0.3281  0.0059
 1230SOL    HW1 6644   1.595   4.999   7.178 -1.2349 -0.9597 -0.0782
 1230SOL    HW2 6645   1.745   5.013   7.163 -1.4179  1.4536 -0.1194
 1231SOL     OW 6646   1.603   1.010   4.120  0.1547  0.2958 -0.6424
 1231SOL    HW1 6647   1.528   1.026   4.177 -0.0382 -1.8665 -0.2124
 1231SOL    HW2 6648   1.566   0.999   4.033 -0.1468 -1.5103 -0.3102
 1232SOL     OW 6649   7.309   3.599   6.617 -0.2715 -0.4906 -0.4720
 1232SOL    HW1 6650   7.256   3.536   6.666 -2.9298  0.5381 -1.8055
 1232SOL    HW2 6651   7.281   3.685   6.650 -0.2699  0.1188 -1.9578
 1233SOL     OW 6652   7.749   6.818   5.100 -0.6883 -0.2044 -0.2589
 1233SOL    HW1 6653   7.731   6.725   5.088  0.7150 -1.2585  4.0009
 1233SOL    HW2 6654   7.834   6.831   5.057 -1.4547 -0.5283 -1.9342
 1234SOL     OW 6655   5.472   2.405   3.216  0.0758  0.2162  1.0394
 1234SOL    HW1 6656   5.565   2.424   3.199 -0.1925  2.0039  1.3020
 1234SOL    HW2 6657   5.449   2.338   3.152  1.0540  1.1822 -0.3935
 1235SOL     OW 6658   4.270   7.224   3.231  0.3400  0.2547 -0.3431
 1235SOL    HW1 6659   4.238   7.184   3.149  0.1854 -2.1467  0.7920
 1235SOL    HW2 6660   4.345   7.170   3.255 -0.3440  0.1413  1.7019
 1236SOL     OW 6661   5.485   3.989   0.690 -0.1707  0.5320  0.5705
 1236SOL    HW1 6662   5.522   4.058   0.746 -1.1268  1.1522  0.4622
 1236SOL    HW2 6663   5.403   4.026   0.657  0.1337  0.0089 -0.8816
 1237SOL     OW 6664   5.118   6.550   7.004  0.2943  0.3301 -0.2793
 1237SOL    HW1 6665   5.183   6.617   6.984  2.4065 -1.7365 -0.7541
 1237SOL    HW2 6666   5.154   6.503   7.080  0.5641 -2.2359 -1.8716
 1238SOL     OW 6667   0.127   4.143   1.461 -0.3022  0.2719 -0.6471
 1238SOL    HW1 6668   0.220   4.126   1.447 -0.0388  0.4238  0.7006
 1238SOL    HW2 6669   0.086   4.127   1.376  0.9068 -0.1063 -1.1846
 1239SOL     OW 6670   7.697   3.834   6.024  0.0330  0.2756  0.1044
 1239SOL    HW1 6671   7.687   3.739   6.020  1.9295 -0.0973  2.2302
 1239SOL    HW2 6672   7.633   3.868   5.962 -0.6572 -2.3815 -0.7430
 1240SOL     OW 6673   6.352   2.632   5.936 -0.0649 -0.7340  0.1825
 1240SOL    HW1 6674   6.305   2.609   6.017  0.0107 -1.1181  0.1168
 1240SOL    HW2 6675   6.416   2.697   5.964 -1.5001  0.8073  0.0533
 1241SOL     OW 6676   0.376   3.570   7.924 -0.3475  0.5379  0.2995
 1241SOL    HW1 6677   0.376   3.479   7.953  0.4968  0.6186  0.5676
 1241SOL    HW2 6678   0.285   3.588   7.901 -1.1573  0.5654  3.1989
 1242SOL     OW 6679   5.479   2.213   4.220  0.0765  0.1177  0.1947
 1242SOL    HW1 6680   5.534   2.280   4.180 -0.7720  0.7554  0.0637
 1242SOL    HW2 6681   5.515   2.200   4.308 -1.2608  2.6333  1.2062
 1243SOL     OW 6682   7.450   0.462   7.314  0.1177 -0.2495  0.0488
 1243SOL    HW1 6683   7.452   0.474   7.219 -2.2352  1.2271  0.1130
 1243SOL    HW2 6684   7.536   0.426   7.335  0.7889 -0.4061 -2.5966
 1244SOL     OW 6685   2.131   2.903   4.836  0.2771 -0.0309  0.6514
 1244SOL    HW1 6686   2.151   2.959   4.911  0.2540 -1.3251  1.6599
 1244SOL    HW2 6687   2.039   2.879   4.848 -0.4767  1.6817 -1.1412
 1245SOL     OW 6688   4.942   4.122   4.167 -0.1384  0.0870 -0.2054
 1245SOL    HW1 6689   4.907   4.075   4.091 -0.9975  0.2283  0.0904
 1245SOL    HW2 6690   5.036   4.121   4.154 -0.2455 -0.2941 -1.0411
 1246SOL     OW 6691   1.307   0.793   2.704  0.0809 -0.5225  0.2806
 1246SOL    HW1 6692   1.332   0.836   2.622  0.0602 -1.3881 -0.1890
 1246SOL    HW2 6693   1.338   0.853   2.772  0.4820  0.0047 -0.3488
 1247SOL     OW 6694   6.840   6.210   5.202  0.2721  0.2428 -0.4070
 1247SOL    HW1 6695   6.903   6.169   5.261 -0.2395  1.5889  1.1270
 1247SOL    HW2 6696   6.888   6.281   5.160 -0.1998  1.2597  0.7518
 1248SOL     OW 6697   7.034   3.965   1.021  0.2308 -0.6988 -0.5416
 1248SOL    HW1 6698   7.086   3.898   1.067  1.5212 -0.1537 -1.1520
 1248SOL    HW2 6699   6.944   3.936   1.031  0.6612 -1.8254  0.3462
 1249SOL     OW 6700   4.851   5.431   3.776  0.3715  0.6687 -0.1987
 1249SOL    HW1 6701   4.858   5.520   3.740 -2.2126  0.8555 -0.4327
 1249SOL    HW2 6702   4.849   5.375   3.698  0.3698  0.5429 -0.1071
 1250SOL     OW 6703   2.642   3.487   6.935 -0.2852 -0.1265  0.2431
 1250SOL    HW1 6704   2.656   3.579   6.915 -0.4096 -0.2965 -0.6614
 1250SOL    HW2 6705   2.550   3.481   6.960 -0.1583  0.0674  0.7699
 1251SOL     OW 6706   1.277   5.645   3.742 -0.6104  0.0776 -0.6370
 1251SOL    HW1 6707   1.335   5.571   3.761 -0.6524  0.3851  0.8240
 1251SOL    HW2 6708   1.257   5.682   3.828 -2.1774  0.5902 -1.1842
 1252SOL     OW 6709   0.744   5.542   1.824  0.3351  0.7328 -0.4248
 1252SOL    HW1 6710   0.758   5.614   1.762  1.4630  1.6470  0.8556
 1252SOL    HW2 6711   0.828   5.496   1.828  0.0063  0.1334 -0.2253
 1253SOL     OW 6712   1.289   4.489   4.076  0.8537  0.5300  0.9952
 1253SOL    HW1 6713   1.229   4.529   4.013  0.8834 -0.0707  0.5838
 1253SOL    HW2 6714   1.353   4.443   4.022  0.2131 -0.9553  1.4747
 1254SOL     OW 6715   2.089   0.008   0.808  0.0939 -0.4580 -0.4520
 1254SOL    HW1 6716   2.142  -0.033   0.877  0.3442  1.3328  0.4808
 1254SOL    HW2 6717   2.004  -0.035   0.814  0.0271 -0.1485  1.1732
 1255SOL     OW 6718   2.302   2.142   6.542 -0.1537  0.0295  0.4673
 1255SOL    HW1 6719   2.371   2.143   6.476 -0.3783  0.8172  0.2362
 1255SOL    HW2 6720   2.327   2.212   6.603 -1.5362  1.4075 -0.4618
 1256SOL     OW 6721   3.347   7.247   4.632  0.6216  0.0965 -0.5515
 1256SOL    HW1 6722   3.440   7.225   4.634  0.2206 -1.8283 -1.3919
 1256SOL    HW2 6723   3.302   7.164   4.620 -1.2386  0.9758 -0.0923
 1257SOL     OW 6724   2.004   0.045   4.362  0.3010  0.4788  0.4186
 1257SOL    HW1 6725   2.050  -0.034   4.332  0.1463  1.0979 -1.5739
 1257SOL    HW2 6726   2.074   0.106   4.385  0.4393  0.3782  0.2679
 1258SOL     OW 6727   7.849   4.152   6.685  0.2351  0.4110 -0.6686
 1258SOL    HW1 6728   7.837   4.069   6.638 -1.0660 -0.8036  1.6277
 1258SOL    HW2 6729   7.940   4.148   6.716 -0.4488 -1.3656  1.3876
 1259SOL     OW 6730   6.641   6.633   7.172 -0.3043  0.7214  0.1484
 1259SOL    HW1 6731   6.546   6.632   7.187 -0.5759  1.7674 -1.2940
 1259SOL    HW2 6732   6.650   6.661   7.081  1.4356  1.5277  0.5455
 1260SOL     OW 6733   7.536   0.873   7.261  0.1911 -0.0076 -0.3804
 1260SOL    HW1 6734   7.604   0.810   7.237  0.9759  0.7754 -0.2532
 1260SOL    HW2 6735   7.524   0.861   7.355  1.1183  0.7617 -0.1514
 1261SOL     OW 6736   6.459   1.262   4.048 -0.5128 -0.1491 -0.0426
 1261SOL    HW1 6737   6.552   1.264   4.069 -0.0057  1.1676 -2.1331
 1261SOL    HW2 6738   6.432   1.354   4.053 -1.5683 -0.4471 -0.0492
 1262SOL     OW 6739   1.219   5.624   4.766  0.2247 -0.0111  0.3575
 1262SOL    HW1 6740   1.245   5.683   4.836  2.1001  0.8533 -0.9613
 1262SOL    HW2 6741   1.282   5.553   4.770  0.7119  0.3328 -0.7539
 1263SOL     OW 6742   0.564   4.506   4.407  0.0758  0.1248 -0.0780
 1263SOL    HW1 6743   0.658   4.487   4.399  0.4386  1.4223  0.7831
 1263SOL    HW2 6744   0.525   4.464   4.331  1.4820  0.2896 -0.9317
 1264SOL     OW 6745   6.256   1.267   6.303 -0.0090  0.0539 -0.7906
 1264SOL    HW1 6746   6.266   1.195   6.365  0.9482 -0.4689 -1.5161
 1264SOL    HW2 6747   6.250   1.224   6.217  1.7401  0.8249 -1.3630
 1265SOL     OW 6748   3.032   4.126   6.370 -0.0614 -0.1006 -0.2089
 1265SOL    HW1 6749   3.087   4.051   6.347 -0.0478 -0.1433 -0.0333
 1265SOL    HW2 6750   2.945   4.089   6.383  0.0133 -0.1345  0.2019
 1266SOL     OW 6751   2.598   1.649   4.701  0.0837 -0.4994 -0.4947
 1266SOL    HW1 6752   2.648   1.681   4.776  1.3553 -1.9847 -0.6510
 1266SOL    HW2 6753   2.593   1.554   4.715 -1.4790 -0.5433 -1.2340
 1267SOL     OW 6754   0.207   6.587   1.339  0.4413  0.6973  0.5798
 1267SOL    HW1 6755   0.132   6.633   1.302 -1.4919 -1.6793  1.2811
 1267SOL    HW2 6756   0.259   6.561   1.263  0.4217  2.1171  0.0614
 1268SOL     OW 6757   4.596   7.302   4.041  0.6000  0.2911  0.5772
 1268SOL    HW1 6758   4.574   7.328   3.951 -1.3651 -0.3896  0.8171
 1268SOL    HW2 6759   4.566   7.375   4.095 -1.0812 -0.5766  0.8941
 1269SOL     OW 6760   1.348   1.765   0.817  0.3384  0.7189 -0.5783
 1269SOL    HW1 6761   1.422   1.774   0.757  1.1035  0.5615  0.3068
 1269SOL    HW2 6762   1.359   1.838   0.879 -0.2335  0.6791 -0.4196
 1270SOL     OW 6763   0.119   1.506   2.500  0.0970  0.1817 -0.2412
 1270SOL    HW1 6764   0.102   1.440   2.432 -2.9106  1.0227 -0.4543
 1270SOL    HW2 6765   0.061   1.481   2.572  1.7882  0.4423  1.2741
 1271SOL     OW 6766   3.100   4.773   4.960 -0.4902  0.4646  0.1928
 1271SOL    HW1 6767   3.063   4.712   4.896 -2.2571 -0.1366  1.6848
 1271SOL    HW2 6768   3.137   4.717   5.028 -3.2742  0.8941  2.2325
 1272SOL     OW 6769   2.513   7.331   7.774 -0.2137 -0.4215 -0.1141
 1272SOL    HW1 6770   2.438   7.368   7.819 -0.1818 -0.5588  0.0530
 1272SOL    HW2 6771   2.586   7.389   7.797  0.1334 -1.3451  1.2837
 1273SOL     OW 6772   5.842   2.384   1.281 -0.2878  0.2179  0.0977
 1273SOL    HW1 6773   5.925   2.427   1.257 -1.1129  1.6853 -0.2100
 1273SOL    HW2 6774   5.868   2.293   1.300  1.5024  0.8120  0.7457
 1274SOL     OW 6775   7.316   7.746   0.244 -0.1509 -0.1006 -0.0294
 1274SOL    HW1 6776   7.314   7.826   0.296  0.2191 -0.6244  0.8051
 1274SOL    HW2 6777   7.257   7.764   0.170  1.1698  1.5449 -0.7616
 1275SOL     OW 6778   3.132   3.076   3.422  0.3932 -0.5383  0.1712
 1275SOL    HW1 6779   3.227   3.080   3.420  0.4885 -2.1486 -2.2010
 1275SOL    HW2 6780   3.103   3.132   3.350 -0.3654 -1.3245 -0.1573
 1276SOL     OW 6781   6.927   3.754   0.666 -0.2998 -0.1049 -0.0867
 1276SOL    HW1 6782   6.899   3.718   0.583 -0.1000  0.5297 -0.4351
 1276SOL    HW2 6783   6.970   3.837   0.644  0.8643 -0.5172  0.5199
 1277SOL     OW 6784   4.388   0.566   5.131  0.0284 -0.4744  0.0201
 1277SOL    HW1 6785   4.340   0.509   5.070  1.3899 -2.0573  0.3399
 1277SOL    HW2 6786   4.326   0.584   5.201 -0.6989 -0.8789 -0.5002
 1278SOL     OW 6787   4.244   7.785   0.535  0.1205 -0.3256 -0.0056
 1278SOL    HW1 6788   4.297   7.725   0.588  1.0278 -0.7923 -1.3930
 1278SOL    HW2 6789   4.183   7.728   0.488 -0.7468  0.0949  0.5612
 1279SOL     OW 6790   4.771   7.604   5.772  0.0722  0.1079 -0.3989
 1279SOL    HW1 6791   4.724   7.679   5.809 -0.7561 -1.1193  1.1327
 1279SOL    HW2 6792   4.787   7.629   5.681 -1.9371  1.3211 -0.4853
 1280SOL     OW 6793   4.052   0.959   2.568 -0.2480  0.2397  0.5113
 1280SOL    HW1 6794   4.085   0.871   2.550  2.1788  1.1506  0.1809
 1280SOL    HW2 6795   4.126   1.006   2.605 -0.7949  2.7659 -1.2846
 1281SOL     OW 6796   1.952   1.909   3.823  0.1016 -0.0812  0.1529
 1281SOL    HW1 6797   2.027   1.959   3.856  0.2522  0.2722 -0.7144
 1281SOL    HW2 6798   1.969   1.897   3.730  0.3029 -2.1706  0.3997
 1282SOL     OW 6799   2.686   7.509   7.930  0.1094 -0.0849  0.3492
 1282SOL    HW1 6800   2.607   7.559   7.951  1.1230  0.7865  2.2898
 1282SOL    HW2 6801   2.738   7.569   7.876  0.2217 -0.0031  0.5502
 1283SOL     OW 6802   5.029   7.838   0.064 -0.2067  0.3299  0.0154
 1283SOL    HW1 6803   4.983   7.755   0.050 -1.4336  1.1489 -1.0220
 1283SOL    HW2 6804   5.041   7.873  -0.024 -0.5473  1.6929  0.4952
 1284SOL     OW 6805   5.205   0.677   5.419  0.3683  0.1386 -0.1016
 1284SOL    HW1 6806   5.267   0.617   5.377  2.3025  0.6401  1.8664
 1284SOL    HW2 6807   5.188   0.744   5.353 -1.0312 -1.9279 -1.9775
 1285SOL     OW 6808   2.971   1.006   5.202  0.0557  0.0549  0.0583
 1285SOL    HW1 6809   2.902   0.966   5.254  0.5385 -0.1486  0.5461
 1285SOL    HW2 6810   3.032   0.935   5.184  0.7548  0.4967  0.6549
 1286SOL     OW 6811   5.587   4.479   7.517 -0.3524  0.2660 -0.0354
 1286SOL    HW1 6812   5.651   4.549   7.506 -1.1633  0.8766 -0.9927
 1286SOL    HW2 6813   5.529   4.487   7.442 -1.4882 -0.3429  0.7423
 1287SOL     OW 6814   5.530   1.603   1.002  0.0795  0.3207  0.4373
 1287SOL    HW1 6815   5.478   1.544   1.057 -0.5050 -1.1386 -1.5436
 1287SOL    HW2 6816   5.619   1.567   1.005  0.5877  1.6087  2.1919
 1288SOL     OW 6817   4.605   5.643   5.603  0.1094  0.2303 -0.1744
 1288SOL    HW1 6818   4.563   5.692   5.673  1.3065  0.9170  0.0879
 1288SOL    HW2 6819   4.578   5.687   5.522 -1.2578 -0.5511 -0.1683
 1289SOL     OW 6820   6.852   4.503   5.296 -0.2006 -0.1223 -0.0939
 1289SOL    HW1 6821   6.854   4.407   5.301  1.8334 -0.0613  1.7311
 1289SOL    HW2 6822   6.830   4.530   5.385  0.7655  1.1049 -0.2055
 1290SOL     OW 6823   4.621   3.626   5.131  0.4165  0.6244  0.3751
 1290SOL    HW1 6824   4.675   3.620   5.053 -0.2552  2.1286 -0.2372
 1290SOL    HW2 6825   4.536   3.589   5.104  0.3236  0.7224  0.5314
 1291SOL     OW 6826   4.094   0.619   1.270 -0.3262 -0.3591 -0.5937
 1291SOL    HW1 6827   4.011   0.576   1.248 -2.0702  2.1520  0.5435
 1291SOL    HW2 6828   4.107   0.684   1.202 -0.1358  0.2979  0.0527
 1292SOL     OW 6829   4.637   2.213   6.081 -0.1995  0.0058 -0.5004
 1292SOL    HW1 6830   4.555   2.211   6.031 -1.1366 -0.5210  0.9767
 1292SOL    HW2 6831   4.633   2.135   6.137  1.1373  0.1757 -0.1243
 1293SOL     OW 6832   1.764   6.066   5.173  0.0492  0.2011 -0.0142
 1293SOL    HW1 6833   1.856   6.092   5.181  0.0830  0.4361 -0.9855
 1293SOL    HW2 6834   1.754   5.995   5.236  1.0722 -0.2611 -0.3408
 1294SOL     OW 6835   1.201   0.444   8.043  0.3205  0.1249  0.0902
 1294SOL    HW1 6836   1.194   0.470   7.951 -1.8565  0.6139  0.3531
 1294SOL    HW2 6837   1.183   0.523   8.093 -1.2618 -0.6962  0.9050
 1295SOL     OW 6838   1.767   2.277   6.156  0.4579  0.4421  0.0108
 1295SOL    HW1 6839   1.781   2.367   6.187 -0.4280  0.3886  0.5855
 1295SOL    HW2 6840   1.799   2.278   6.066  0.2163  1.4056 -0.0785
 1296SOL     OW 6841   7.290   4.292   3.838 -0.2984 -0.5777 -0.2239
 1296SOL    HW1 6842   7.197   4.269   3.831  0.1239 -2.8214  0.5206
 1296SOL    HW2 6843   7.335   4.223   3.790  0.9843  1.2020 -1.7268
 1297SOL     OW 6844   2.797   0.351   7.758 -0.2674 -0.5711  0.1859
 1297SOL    HW1 6845   2.745   0.297   7.818 -2.6006 -1.2492 -2.2646
 1297SOL    HW2 6846   2.857   0.291   7.716  0.8398 -0.2239  1.1960
 1298SOL     OW 6847   2.979   7.875   5.531 -0.2880 -0.1985  0.5724
 1298SOL    HW1 6848   2.967   7.838   5.443  0.5354 -2.0367  1.1770
 1298SOL    HW2 6849   3.041   7.947   5.517 -1.1617  0.3774 -0.5159
 1299SOL     OW 6850   4.625   2.923   8.008 -0.0865  0.5811 -0.1931
 1299SOL    HW1 6851   4.673   2.842   8.017  0.0669  0.6605 -0.2969
 1299SOL    HW2 6852   4.534   2.900   8.030 -0.0845  0.3354 -0.4468
 1300SOL     OW 6853   3.008   6.522   5.371 -0.1506  0.1194 -0.2084
 1300SOL    HW1 6854   3.010   6.427   5.383  3.2672 -0.1070 -1.3414
 1300SOL    HW2 6855   3.076   6.554   5.431 -2.5255  2.1462  1.5651
 1301SOL     OW 6856   4.784   3.152   2.464  0.3747 -0.2304  0.1540
 1301SOL    HW1 6857   4.845   3.176   2.394  0.3286  0.5542  0.3677
 1301SOL    HW2 6858   4.780   3.230   2.520 -0.6846 -0.3315  0.2457
 1302SOL     OW 6859   5.817   5.860   5.827  0.2598  0.4790 -0.1430
 1302SOL    HW1 6860   5.798   5.838   5.918  1.9697  0.9767  0.3648
 1302SOL    HW2 6861   5.830   5.776   5.783  1.1333  0.2839  0.4775
 1303SOL     OW 6862   0.691   5.300   6.305  0.2888  0.6398 -0.0145
 1303SOL    HW1 6863   0.666   5.350   6.227  0.2117  0.3312 -0.1876
 1303SOL    HW2 6864   0.787   5.302   6.305  0.2827  1.0134  0.1265
 1304SOL     OW 6865   5.075   5.888   3.595 -0.2992  0.3277 -0.0553
 1304SOL    HW1 6866   4.995   5.915   3.639 -0.9284  0.5404 -1.2747
 1304SOL    HW2 6867   5.140   5.954   3.621 -0.0251 -0.7858  2.2771
 1305SOL     OW 6868   7.095   4.442   0.253 -0.0496  0.3363 -0.4155
 1305SOL    HW1 6869   7.031   4.501   0.212 -0.5373  0.1064  0.0079
 1305SOL    HW2 6870   7.049   4.359   0.261  0.9683 -0.4084 -1.9387
 1306SOL     OW 6871   1.383   1.762   1.195  0.0425  0.1093  0.3245
 1306SOL    HW1 6872   1.292   1.737   1.212  0.0750 -0.0675  0.2384
 1306SOL    HW2 6873   1.377   1.848   1.153 -0.1553 -0.5079 -0.9395
 1307SOL     OW 6874   1.875   2.861   4.581 -0.1984 -0.1360  0.1499
 1307SOL    HW1 6875   1.878   2.835   4.673  1.0849  0.5785  0.3296
 1307SOL    HW2 6876   1.788   2.900   4.571 -0.3648 -0.2459  1.0604
 1308SOL     OW 6877   3.561   7.045   0.792  0.3374  0.4948  0.2817
 1308SOL    HW1 6878   3.544   7.123   0.844  0.6396  1.5857 -1.1965
 1308SOL    HW2 6879   3.656   7.041   0.785  0.3089  0.2160  0.0434
 1309SOL     OW 6880   7.598   7.429   0.290  0.1278 -0.6414 -0.0638
 1309SOL    HW1 6881   7.604   7.480   0.372 -1.8303  0.4986 -0.5593
 1309SOL    HW2 6882   7.591   7.496   0.222  0.4423 -1.5908 -1.0419
 1310SOL     OW 6883   0.454   3.469   6.955 -0.0486 -0.2191  0.1896
 1310SOL    HW1 6884   0.483   3.524   6.882  0.5027  2.1762  2.0786
 1310SOL    HW2 6885   0.417   3.391   6.913  0.2360  1.0275 -2.6228
 1311SOL     OW 6886   0.750   2.238   0.207 -0.1261 -0.0661  0.1805
 1311SOL    HW1 6887   0.814   2.168   0.197 -0.2723 -0.1631 -0.0906
 1311SOL    HW2 6888   0.770   2.278   0.292  0.4884  0.1069 -0.0427
 1312SOL     OW 6889   7.607   1.373   0.874 -0.0122  0.2394 -0.1891
 1312SOL    HW1 6890   7.622   1.405   0.785 -0.8817  1.2822  0.0298
 1312SOL    HW2 6891   7.552   1.295   0.863 -0.4448  0.5944 -0.5334
 1313SOL     OW 6892   5.972   3.420   7.635 -0.4694  0.1234  0.3965
 1313SOL    HW1 6893   5.961   3.493   7.695  1.3521 -0.1752  1.1675
 1313SOL    HW2 6894   5.942   3.344   7.684  0.4582 -0.0374  0.7360
 1314SOL     OW 6895   7.676   0.706   3.539 -0.0923 -0.3222 -0.4074
 1314SOL    HW1 6896   7.767   0.693   3.566  0.1276  1.8009  0.0475
 1314SOL    HW2 6897   7.631   0.735   3.619 -1.1569 -1.1810 -0.6674
 1315SOL     OW 6898   4.861   0.884   0.949 -0.0318 -0.4850  0.4893
 1315SOL    HW1 6899   4.955   0.887   0.930  0.3209  1.8073  2.1539
 1315SOL    HW2 6900   4.856   0.870   1.044 -1.3967 -1.1369  0.3465
 1316SOL     OW 6901   3.080   5.956   1.595 -0.1894  0.0350 -0.1224
 1316SOL    HW1 6902   3.094   6.036   1.545  0.3105  0.0925  0.1107
 1316SOL    HW2 6903   3.018   5.980   1.664  0.0311  0.2423  0.0031
 1317SOL     OW 6904   6.473   3.261   8.110 -0.2305  0.2222 -0.5261
 1317SOL    HW1 6905   6.426   3.177   8.106  0.2092 -0.1113  0.7220
 1317SOL    HW2 6906   6.433   3.314   8.041 -1.4421 -0.5486 -0.4514
 1318SOL     OW 6907   1.467   3.242   2.338 -0.1327  0.3908  0.2510
 1318SOL    HW1 6908   1.553   3.200   2.344 -0.2820  0.1045  0.4223
 1318SOL    HW2 6909   1.426   3.223   2.422 -0.9267 -0.7386 -0.3601
 1319SOL     OW 6910   1.139   2.633   3.019  0.1568  0.2077 -0.3630
 1319SOL    HW1 6911   1.100   2.711   3.058 -1.6111 -0.4495 -0.7354
 1319SOL    HW2 6912   1.156   2.575   3.093  2.0275  1.1398 -0.0192
 1320SOL     OW 6913   4.119   5.839   5.708  0.0894  0.2086  0.0334
 1320SOL    HW1 6914   4.210   5.809   5.705  0.7454  2.0621 -0.4033
 1320SOL    HW2 6915   4.091   5.821   5.797  0.3938 -1.6330 -0.1975
 1321SOL     OW 6916   1.701   3.363   5.839  0.4375  0.6061  0.5228
 1321SOL    HW1 6917   1.786   3.363   5.794  0.0366  0.7756 -0.2498
 1321SOL    HW2 6918   1.682   3.271   5.856  0.9016  0.5861  0.9398
 1322SOL     OW 6919   3.491   7.421   6.064  0.2658 -1.0262 -0.0266
 1322SOL    HW1 6920   3.413   7.439   6.012 -0.4989 -0.9123  1.1066
 1322SOL    HW2 6921   3.564   7.425   6.002 -0.3489  1.3307 -0.6747
 1323SOL     OW 6922   5.978   2.330   4.826  0.2720  0.3463  0.0286
 1323SOL    HW1 6923   5.899   2.383   4.819  1.0520  1.3856 -1.1679
 1323SOL    HW2 6924   6.050   2.393   4.833  1.0363 -0.5728  1.0478
 1324SOL     OW 6925   1.429   5.644   5.465  0.1701  0.5937  0.2508
 1324SOL    HW1 6926   1.358   5.632   5.528 -2.2996  0.0580 -2.3971
 1324SOL    HW2 6927   1.440   5.739   5.460 -0.0935  0.6719  0.9797
 1325SOL     OW 6928   5.282   1.120   4.941 -0.4137 -0.2619  0.0366
 1325SOL    HW1 6929   5.341   1.119   5.016 -0.3922  3.5913  0.2730
 1325SOL    HW2 6930   5.209   1.063   4.966  0.4483 -0.4992  2.1903
 1326SOL     OW 6931   3.770   1.065   7.570  0.9055  0.5519  0.9329
 1326SOL    HW1 6932   3.702   0.999   7.583 -0.2938  0.9969 -2.0559
 1326SOL    HW2 6933   3.736   1.144   7.611 -0.8762  0.9640 -1.1379
 1327SOL     OW 6934   4.789   6.482   4.772  0.1706 -0.0925 -0.4453
 1327SOL    HW1 6935   4.869   6.432   4.756  0.6220  0.0490  1.1516
 1327SOL    HW2 6936   4.798   6.513   4.862 -1.1687  0.9021 -0.6192
 1328SOL     OW 6937   3.616   0.579   1.745  0.3892  0.2958  0.0944
 1328SOL    HW1 6938   3.521   0.587   1.756 -0.4255 -3.8358 -1.9072
 1328SOL    HW2 6939   3.637   0.645   1.679 -0.9391  1.6513  0.9512
 1329SOL     OW 6940   3.212   0.824   0.040  0.1249 -0.4123  0.1084
 1329SOL    HW1 6941   3.209   0.731   0.020 -0.0006 -0.4568  0.3399
 1329SOL    HW2 6942   3.170   0.866  -0.036 -0.2949 -0.5801  0.2430
 1330SOL     OW 6943   2.189   0.958   3.720 -0.0782  0.1333 -0.3275
 1330SOL    HW1 6944   2.281   0.977   3.702 -0.1864  0.1930 -0.8404
 1330SOL    HW2 6945   2.190   0.895   3.793  0.3923 -0.4160 -0.8008
 1331SOL     OW 6946   5.957   2.883   6.719 -0.1313 -0.2979  0.1376
 1331SOL    HW1 6947   6.028   2.912   6.777 -0.2143 -1.9094  1.1114
 1331SOL    HW2 6948   6.002   2.856   6.638  0.0875  1.0113 -0.1951
 1332SOL     OW 6949   0.166   0.282   2.753 -0.3411  0.1906  0.3697
 1332SOL    HW1 6950   0.246   0.313   2.710 -1.1417  1.4609 -0.2553
 1332SOL    HW2 6951   0.102   0.276   2.682 -1.1794  0.5271  1.0839
 1333SOL     OW 6952   1.057   1.812   0.360  0.2046 -0.7308 -0.2198
 1333SOL    HW1 6953   1.067   1.891   0.307 -0.9512  0.3532  1.1092
 1333SOL    HW2 6954   1.099   1.832   0.443 -0.0738 -1.5321  0.1310
 1334SOL     OW 6955   0.032   7.022   7.742  0.3767  0.2324  0.3349
 1334SOL    HW1 6956   0.025   7.099   7.798 -2.2927  1.3194 -1.3239
 1334SOL    HW2 6957  -0.008   6.952   7.793 -1.5834  1.0956  0.0678
 1335SOL     OW 6958   1.872   1.856   4.185 -0.1905 -0.0217  0.5205
 1335SOL    HW1 6959   1.904   1.942   4.159  0.5456 -0.5344 -0.3151
 1335SOL    HW2 6960   1.778   1.868   4.198  0.0656  1.1423  1.4691
 1336SOL     OW 6961   0.552   5.062   7.474 -0.3338  0.6526 -0.1805
 1336SOL    HW1 6962   0.647   5.060   7.473 -0.2612  2.4284 -0.5964
 1336SOL    HW2 6963   0.529   5.055   7.567  0.0847 -1.4581 -0.1825
 1337SOL     OW 6964   6.923   5.467   0.582  0.2546  0.1355 -0.0974
 1337SOL    HW1 6965   6.953   5.557   0.590 -0.1702  0.2311  0.4785
 1337SOL    HW2 6966   6.915   5.436   0.673 -1.3389  0.1077 -0.2197
 1338SOL     OW 6967   6.586   5.521   3.389  0.3261  0.3347  0.1804
 1338SOL    HW1 6968   6.607   5.513   3.482  0.8083 -0.4072  0.0153
 1338SOL    HW2 6969   6.496   5.556   3.388  0.9346  2.0426  0.8994
 1339SOL     OW 6970   6.357   2.476   5.197  0.3946 -0.0398  0.4126
 1339SOL    HW1 6971   6.443   2.509   5.171 -0.0244  0.9248  0.2010
 1339SOL    HW2 6972   6.369   2.448   5.288  1.1520 -0.7723  0.1034
 1340SOL     OW 6973   0.518   0.212   6.719  0.2717  0.2208  0.3718
 1340SOL    HW1 6974   0.447   0.205   6.655 -0.5053  0.8222  1.1593
 1340SOL    HW2 6975   0.590   0.254   6.671 -0.3981  0.9181 -0.0301
 1341SOL     OW 6976   0.648   4.725   3.845 -0.0396 -0.1317  0.3912
 1341SOL    HW1 6977   0.702   4.799   3.874  3.2557 -1.9035 -0.7217
 1341SOL    HW2 6978   0.664   4.657   3.909  1.1148 -1.5076 -1.2704
 1342SOL     OW 6979   4.111   6.327   5.958 -0.3562 -0.4805 -0.3896
 1342SOL    HW1 6980   4.105   6.233   5.944  0.6413 -1.2480  3.2286
 1342SOL    HW2 6981   4.037   6.347   6.016  0.5543  0.5209  0.4880
 1343SOL     OW 6982   4.910   2.680   5.257  0.1956 -0.1557  0.3666
 1343SOL    HW1 6983   4.817   2.662   5.274  0.4927 -1.4440  0.7521
 1343SOL    HW2 6984   4.942   2.600   5.214  1.0160  0.4664 -0.2170
 1344SOL     OW 6985   4.490   7.520   4.458  0.1075  0.1276  0.4525
 1344SOL    HW1 6986   4.516   7.471   4.536  0.9167  1.7356  1.2553
 1344SOL    HW2 6987   4.396   7.504   4.450  0.3605 -1.5738  0.6330
 1345SOL     OW 6988   5.131   2.697   5.896  0.1067 -0.3141  0.0030
 1345SOL    HW1 6989   5.166   2.616   5.858 -2.2362 -0.1998 -2.8290
 1345SOL    HW2 6990   5.062   2.667   5.956 -0.6558 -0.4885 -0.9263
 1346SOL     OW 6991   1.460   7.489   3.031  0.2132 -0.1698 -0.0992
 1346SOL    HW1 6992   1.375   7.492   3.076  0.3712 -1.4510  0.3436
 1346SOL    HW2 6993   1.463   7.569   2.979 -0.6906  0.5525  0.9124
 1347SOL     OW 6994   7.666   1.346   3.577  0.3998  0.1306  0.3380
 1347SOL    HW1 6995   7.687   1.423   3.631  1.0984  0.4805 -0.4274
 1347SOL    HW2 6996   7.613   1.291   3.635  0.2108  1.0087  1.0253
 1348SOL     OW 6997   1.778   1.092   0.514  0.0630  0.1398  0.3100
 1348SOL    HW1 6998   1.864   1.051   0.523  0.1380  0.4480  1.1478
 1348SOL    HW2 6999   1.717   1.028   0.551 -0.2421 -0.5947 -1.3657
 1349SOL     OW 7000   2.120   3.526   6.530  0.5678 -0.0390  0.1703
 1349SOL    HW1 7001   2.031   3.559   6.516  0.8990  1.0589  0.6012
 1349SOL    HW2 7002   2.140   3.547   6.622  0.8355 -1.3443  0.4275
 1350SOL     OW 7003   6.885   7.127   0.541 -0.6398  0.1325  0.4201
 1350SOL    HW1 7004   6.979   7.112   0.555 -0.2346  3.1542  1.8089
 1350SOL    HW2 7005   6.845   7.102   0.624 -0.8557  0.2650  0.3553
 1351SOL     OW 7006   3.606   0.758   5.082 -0.4609  0.0857  0.2056
 1351SOL    HW1 7007   3.701   0.760   5.089 -0.4916 -0.3148  0.7670
 1351SOL    HW2 7008   3.583   0.845   5.048  0.1457 -0.0483 -0.5674
 1352SOL     OW 7009   6.012   3.817   0.077  0.1463 -0.6591 -0.0099
 1352SOL    HW1 7010   6.040   3.785   0.163 -0.1050 -1.1922 -0.1208
 1352SOL    HW2 7011   6.090   3.860   0.041 -0.3719  1.6516  1.4224
 1353SOL     OW 7012   2.733   7.141   0.042  0.1652 -0.0260 -0.7519
 1353SOL    HW1 7013   2.757   7.211  -0.019  0.8765  1.3414  1.0029
 1353SOL    HW2 7014   2.783   7.065   0.012  0.2534  0.5100 -2.0422
 1354SOL     OW 7015   6.525   1.166   4.670  0.3231  0.9440 -0.1896
 1354SOL    HW1 7016   6.451   1.110   4.647  0.6630 -0.0100  0.9529
 1354SOL    HW2 7017   6.577   1.171   4.590 -0.2508  0.4850 -0.6007
 1355SOL     OW 7018   7.207   4.658   2.010 -0.6682  0.2061 -0.0049
 1355SOL    HW1 7019   7.122   4.613   2.008 -0.8066  0.4773 -0.3250
 1355SOL    HW2 7020   7.251   4.628   1.931  1.1109 -2.9226  1.9719
 1356SOL     OW 7021   7.233   4.931   2.059 -0.2400 -0.6225 -0.3399
 1356SOL    HW1 7022   7.264   4.932   2.150 -1.4281 -0.1466  0.0891
 1356SOL    HW2 7023   7.239   4.840   2.032 -1.9469 -1.1923  0.9986
 1357SOL     OW 7024   2.745   1.034   4.976  0.2178 -0.4969  0.2942
 1357SOL    HW1 7025   2.686   1.002   5.044  0.7844 -1.0131  0.5493
 1357SOL    HW2 7026   2.716   1.124   4.959 -1.0269 -0.9508 -0.0260
 1358SOL     OW 7027   7.221   4.704   7.034  0.4557  0.5672  0.1772
 1358SOL    HW1 7028   7.278   4.633   7.064 -1.0096 -0.4573  0.6497
 1358SOL    HW2 7029   7.156   4.714   7.104 -2.1501 -0.8507 -1.8499
 1359SOL     OW 7030   2.446   4.531   5.127 -0.2222 -0.3762  0.3717
 1359SOL    HW1 7031   2.351   4.527   5.138 -0.2123 -0.0886  0.5923
 1359SOL    HW2 7032   2.462   4.616   5.085 -0.0099 -0.1069  0.9832
 1360SOL     OW 7033   0.172   3.051   6.855  0.3176 -0.1347 -0.2603
 1360SOL    HW1 7034   0.194   2.958   6.845 -1.4440 -1.0003  2.7948
 1360SOL    HW2 7035   0.096   3.064   6.799  2.0222  0.2520 -2.6901
 1361SOL     OW 7036   0.993   1.210   3.117 -0.4526 -0.0060 -0.1998
 1361SOL    HW1 7037   0.944   1.288   3.144 -1.0237 -0.3671 -0.1870
 1361SOL    HW2 7038   1.084   1.240   3.111 -0.3073  0.1318  1.9624
 1362SOL     OW 7039   6.211   2.879   5.294  0.0857  0.5770 -0.2969
 1362SOL    HW1 7040   6.184   2.802   5.243 -0.4376 -1.3497  2.6666
 1362SOL    HW2 7041   6.307   2.876   5.293  0.0685  0.0577 -0.4295
 1363SOL     OW 7042   2.997   1.252   2.793  0.2838  0.9084  0.0606
 1363SOL    HW1 7043   3.027   1.217   2.877  0.4138  0.2105 -0.2652
 1363SOL    HW2 7044   3.056   1.211   2.728 -1.6412 -0.9223 -0.6638
 1364SOL     OW 7045   6.030   6.327   3.400 -0.4384  0.4046 -0.3596
 1364SOL    HW1 7046   6.115   6.311   3.442 -2.4623 -1.4206  3.6914
 1364SOL    HW2 7047   6.012   6.419   3.417  0.3205  0.5553 -0.3428
 1365SOL     OW 7048   2.534   3.569   4.030  0.4604  0.1561  0.0137
 1365SOL    HW1 7049   2.553   3.481   3.996 -1.0769 -1.3751  2.7850
 1365SOL    HW2 7050   2.619   3.602   4.058  1.1247 -0.2277 -1.4329
 1366SOL     OW 7051   6.685   5.857   5.350  0.3858 -0.9339 -0.1541
 1366SOL    HW1 7052   6.694   5.819   5.437  1.2414  0.5093  0.4146
 1366SOL    HW2 7053   6.736   5.799   5.293  1.0929 -1.0343  0.5732
 1367SOL     OW 7054   2.743   4.740   5.326  0.7931  0.4884  0.4183
 1367SOL    HW1 7055   2.832   4.756   5.294  0.7481  1.6059  0.8121
 1367SOL    HW2 7056   2.739   4.787   5.409  1.3631 -3.4322  2.9581
 1368SOL     OW 7057   0.748   0.318   2.598 -0.3196 -0.4013  0.1627
 1368SOL    HW1 7058   0.805   0.243   2.612  0.4628  0.1526  0.0036
 1368SOL    HW2 7059   0.763   0.343   2.507 -1.8058 -1.0451 -0.2960
 1369SOL     OW 7060   3.727   2.100   1.870 -0.3315  0.2290 -0.2147
 1369SOL    HW1 7061   3.805   2.045   1.863  1.1139  1.9644  1.1068
 1369SOL    HW2 7062   3.680   2.066   1.946 -0.6815 -0.5877 -0.7881
 1370SOL     OW 7063   1.765   3.969   7.232  0.3438 -0.3026 -0.0863
 1370SOL    HW1 7064   1.691   3.929   7.186 -0.1287  0.1303  0.2835
 1370SOL    HW2 7065   1.725   4.026   7.298  1.0162 -1.1244  1.0611
 1371SOL     OW 7066   7.109   2.287   3.559 -0.2854 -0.5312  0.2003
 1371SOL    HW1 7067   7.108   2.215   3.622  1.0512  0.7490  1.7605
 1371SOL    HW2 7068   7.096   2.366   3.612 -0.4292  0.4857 -1.2976
 1372SOL     OW 7069   0.454   4.062   3.406 -0.3067  0.0008 -0.3762
 1372SOL    HW1 7070   0.417   4.127   3.346 -1.3346  0.3976  0.6551
 1372SOL    HW2 7071   0.378   4.018   3.444  0.3179 -0.1278  0.7704
 1373SOL     OW 7072   3.728   2.904   0.409  0.3673 -0.3622 -0.5881
 1373SOL    HW1 7073   3.808   2.891   0.359  0.8376  0.2268 -0.0095
 1373SOL    HW2 7074   3.737   2.846   0.484  1.0180  0.8722  0.3302
 1374SOL     OW 7075   5.931   3.679   3.674 -0.4672  0.0815 -0.1687
 1374SOL    HW1 7076   5.846   3.653   3.640 -0.1222  0.0557 -1.0278
 1374SOL    HW2 7077   5.984   3.599   3.672 -1.0617 -0.5122  2.5592
 1375SOL     OW 7078   4.594   6.491   3.598  0.2598 -0.4938 -0.4249
 1375SOL    HW1 7079   4.563   6.401   3.591  1.1434 -0.8757  0.4153
 1375SOL    HW2 7080   4.659   6.489   3.667 -1.4420  1.2561  1.3797
 1376SOL     OW 7081   7.926   2.241   6.839 -0.3076 -0.0769 -0.1775
 1376SOL    HW1 7082   7.870   2.284   6.774  0.3465  1.5668  0.2728
 1376SOL    HW2 7083   7.922   2.298   6.916  3.0034  0.9329 -0.5846
 1377SOL     OW 7084   3.877   2.712   0.123  0.6132 -0.1774 -0.2468
 1377SOL    HW1 7085   3.892   2.778   0.055  1.9603 -1.0017 -0.7993
 1377SOL    HW2 7086   3.905   2.629   0.082  0.9776 -0.7638  1.1377
 1378SOL     OW 7087   4.214   4.641   0.623 -0.0389 -0.4053  0.2028
 1378SOL    HW1 7088   4.183   4.560   0.664  0.1075 -0.7654 -0.3918
 1378SOL    HW2 7089   4.222   4.620   0.530  3.1900 -0.7469  0.4411
 1379SOL     OW 7090   6.656   6.880   6.157  0.0368  0.5951  0.0512
 1379SOL    HW1 7091   6.642   6.790   6.186  0.4847  0.4276 -0.2379
 1379SOL    HW2 7092   6.573   6.906   6.117 -0.6219  0.8527  1.4968
 1380SOL     OW 7093   2.288   1.735   2.633  0.0775  0.4349  0.2077
 1380SOL    HW1 7094   2.268   1.724   2.540 -1.7950  1.2738  0.4604
 1380SOL    HW2 7095   2.323   1.651   2.661 -0.3217 -0.1632 -1.0281
 1381SOL     OW 7096   1.583   1.145   5.869  0.6107 -0.1680 -0.3862
 1381SOL    HW1 7097   1.538   1.091   5.804 -1.0404 -0.9754  1.3312
 1381SOL    HW2 7098   1.620   1.081   5.931 -0.2144  0.6145  0.9484
 1382SOL     OW 7099   2.301   6.986   0.660  0.0598  0.2948  0.1860
 1382SOL    HW1 7100   2.332   6.903   0.625 -0.8844 -0.0040  0.0310
 1382SOL    HW2 7101   2.223   6.963   0.710 -1.6430  1.3273 -1.8213
 1383SOL     OW 7102   6.390   5.957   7.787  0.0127  0.4149 -0.6796
 1383SOL    HW1 7103   6.301   5.976   7.816  0.1658  0.4093 -0.2067
 1383SOL    HW2 7104   6.432   5.918   7.863  0.5040  0.6698 -0.8197
 1384SOL     OW 7105   2.115   1.277   4.609  0.1279  0.2537  0.1519
 1384SOL    HW1 7106   2.134   1.201   4.663 -1.1740 -0.1885  0.0035
 1384SOL    HW2 7107   2.060   1.333   4.664  0.5967  0.8252  0.0527
 1385SOL     OW 7108   1.292   7.876   0.571 -0.5527 -0.6434 -0.3989
 1385SOL    HW1 7109   1.271   7.937   0.641 -2.5632 -0.8652 -0.7480
 1385SOL    HW2 7110   1.344   7.807   0.613  2.2569  1.4856 -0.1107
 1386SOL     OW 7111   2.863   4.200   7.632  0.1977 -0.1098 -0.3473
 1386SOL    HW1 7112   2.888   4.196   7.540  0.1996 -0.4567 -0.3356
 1386SOL    HW2 7113   2.785   4.255   7.634  0.6604  0.5674 -0.4488
 1387SOL     OW 7114   3.462   2.884   2.648 -0.1964 -0.2827 -0.1884
 1387SOL    HW1 7115   3.537   2.914   2.596  0.6000 -1.8361  0.0163
 1387SOL    HW2 7116   3.426   2.811   2.599 -2.2999  1.0788 -0.8297
 1388SOL     OW 7117   1.245   2.737   4.067  0.4346  0.5742 -0.2737
 1388SOL    HW1 7118   1.209   2.654   4.097 -0.8815  1.4443  0.7118
 1388SOL    HW2 7119   1.340   2.727   4.076  0.2785 -0.6803  0.1813
 1389SOL     OW 7120   5.712   1.870   7.738 -0.0707 -0.2495  0.1527
 1389SOL    HW1 7121   5.785   1.854   7.798 -1.3124 -0.5108  1.6938
 1389SOL    HW2 7122   5.658   1.935   7.783 -1.6815 -1.3629 -0.0824
 1390SOL     OW 7123   5.732   6.241   4.913 -0.0715  0.4814 -0.0888
 1390SOL    HW1 7124   5.808   6.209   4.865 -0.6901 -1.8685  0.3733
 1390SOL    HW2 7125   5.733   6.335   4.900  1.2065  0.1885 -2.5711
 1391SOL     OW 7126   2.711   6.830   3.866 -0.1608  0.1202 -0.1974
 1391SOL    HW1 7127   2.667   6.752   3.833  0.8667 -0.0274 -1.3061
 1391SOL    HW2 7128   2.782   6.796   3.920 -1.4978  0.3592  1.8037
 1392SOL     OW 7129   5.251   2.864   3.705 -0.0610  0.4499  0.7189
 1392SOL    HW1 7130   5.263   2.795   3.640 -0.0811  1.7268 -0.6800
 1392SOL    HW2 7131   5.158   2.887   3.699  0.1963  1.4133  0.3255
 1393SOL     OW 7132   1.967   4.376   4.784 -0.4523 -0.1026  0.5874
 1393SOL    HW1 7133   2.015   4.448   4.824  0.5315  0.0939 -0.8634
 1393SOL    HW2 7134   1.901   4.419   4.730  0.2072 -0.2586 -0.3666
 1394SOL     OW 7135   5.082   3.117   6.518 -0.1824  0.5118 -0.0908
 1394SOL    HW1 7136   5.140   3.099   6.592 -1.7477 -0.3768  0.9847
 1394SOL    HW2 7137   5.141   3.138   6.446  1.5013 -1.2594  0.6853
 1395SOL     OW 7138   0.763   4.820   0.620 -0.0202  0.0029  0.2666
 1395SOL    HW1 7139   0.708   4.767   0.561  0.1940 -1.4703  1.3169
 1395SOL    HW2 7140   0.836   4.848   0.566  0.8272 -2.3641  0.0359
 1396SOL     OW 7141   2.376   2.992   5.359 -0.5418  0.9017 -0.2996
 1396SOL    HW1 7142   2.424   3.040   5.292  1.2335  0.7008  0.7885
 1396SOL    HW2 7143   2.351   2.910   5.316  1.2528  0.4377 -0.5225
 1397SOL     OW 7144   2.230   7.690   2.184 -0.1103  0.1299  0.0342
 1397SOL    HW1 7145   2.213   7.725   2.272  0.5822  0.2051  0.1426
 1397SOL    HW2 7146   2.323   7.668   2.185 -0.0250  0.4398 -0.7889
 1398SOL     OW 7147   6.519   2.697   2.742  0.3873 -0.1285  0.3465
 1398SOL    HW1 7148   6.541   2.709   2.650 -0.4177  0.8587  0.2610
 1398SOL    HW2 7149   6.436   2.743   2.752  0.4152 -0.3227  1.5461
 1399SOL     OW 7150   0.113   1.009   4.498  0.3565  0.5110 -0.0260
 1399SOL    HW1 7151   0.033   0.968   4.531 -0.8112  0.3798 -2.7545
 1399SOL    HW2 7152   0.170   0.936   4.474  0.8691  0.5975  0.8844
 1400SOL     OW 7153   3.172   2.814   2.072  0.1850  0.2484 -0.3212
 1400SOL    HW1 7154   3.262   2.837   2.051  0.6902 -0.6360  0.7817
 1400SOL    HW2 7155   3.179   2.755   2.147 -1.3523  0.7796  0.2755
 1401SOL     OW 7156   4.211   6.078   3.810  0.0805  0.6384  0.4682
 1401SOL    HW1 7157   4.203   6.173   3.804 -0.1471  0.6750  1.1809
 1401SOL    HW2 7158   4.145   6.053   3.875  0.0192 -0.0292  0.1582
 1402SOL     OW 7159   2.214   2.554   5.021  0.4557  0.2133  0.8345
 1402SOL    HW1 7160   2.119   2.544   5.027  0.3406 -0.5643 -1.2885
 1402SOL    HW2 7161   2.231   2.571   4.928  2.3667  0.9081  1.2469
 1403SOL     OW 7162   5.914   0.406   0.036 -0.1662  0.1994 -0.2404
 1403SOL    HW1 7163   5.872   0.335   0.085  0.9058 -0.6299 -0.4764
 1403SOL    HW2 7164   5.868   0.407  -0.048 -2.4820  2.0914  0.9388
 1404SOL     OW 7165   1.120   4.951   4.604  0.4960  0.3095 -0.1183
 1404SOL    HW1 7166   1.121   4.995   4.519 -0.0593  2.4330  0.8880
 1404SOL    HW2 7167   1.031   4.916   4.612  0.3981  0.5201 -0.2466
 1405SOL     OW 7168   6.732   5.206   1.700  0.2105  0.1279  0.1881
 1405SOL    HW1 7169   6.729   5.302   1.697  2.3386  0.2498 -2.5814
 1405SOL    HW2 7170   6.664   5.178   1.639  0.1097 -0.1053  0.4052
 1406SOL     OW 7171   2.649   4.313   0.262 -0.2710  0.5360 -0.3653
 1406SOL    HW1 7172   2.620   4.326   0.172 -2.7952 -0.6845  0.1933
 1406SOL    HW2 7173   2.629   4.222   0.281 -1.7566  1.2812  2.0567
 1407SOL     OW 7174   0.470   4.919   1.462  0.6728  0.1675 -0.0646
 1407SOL    HW1 7175   0.505   4.970   1.536 -0.7148 -0.5428  1.1331
 1407SOL    HW2 7176   0.375   4.923   1.473  0.4877 -1.6251 -0.6410
 1408SOL     OW 7177   1.908   3.265   3.856 -0.1225  0.2833 -0.0145
 1408SOL    HW1 7178   1.856   3.197   3.899  0.9959 -1.4371 -1.2908
 1408SOL    HW2 7179   1.987   3.272   3.910  1.8389 -2.7255 -2.2031
 1409SOL     OW 7180   2.597   2.904   6.090  0.3337  0.2139  0.1249
 1409SOL    HW1 7181   2.638   2.978   6.135  0.2270  1.0763 -1.1274
 1409SOL    HW2 7182   2.549   2.944   6.017  0.0391 -1.0738 -0.4250
 1410SOL     OW 7183   4.790   3.054   3.289  0.2413 -0.1908 -0.5318
 1410SOL    HW1 7184   4.827   2.975   3.329  2.8599  0.5945 -1.1951
 1410SOL    HW2 7185   4.739   3.094   3.359 -2.4221 -3.1031 -0.5690
 1411SOL     OW 7186   6.319   4.474   7.180  0.3250  0.0235  0.2697
 1411SOL    HW1 7187   6.384   4.413   7.215 -0.2968 -1.7572 -1.4987
 1411SOL    HW2 7188   6.319   4.457   7.086 -3.5199 -0.9243  0.2998
 1412SOL     OW 7189   1.351   6.904   5.961 -0.3553  0.1825 -0.3218
 1412SOL    HW1 7190   1.403   6.955   6.023  2.6943 -1.2728 -1.5053
 1412SOL    HW2 7191   1.332   6.966   5.890  0.5571  0.5317 -0.2767
 1413SOL     OW 7192   5.522   7.147   7.555  0.1027 -0.9161  0.5183
 1413SOL    HW1 7193   5.436   7.184   7.576  0.4452 -0.6391  1.4825
 1413SOL    HW2 7194   5.551   7.198   7.479  0.0965  0.0967  1.1692
 1414SOL     OW 7195   6.997   2.762   4.483 -0.1150 -0.3560  0.2945
 1414SOL    HW1 7196   6.904   2.758   4.461 -0.2555  1.4283  0.4880
 1414SOL    HW2 7197   7.000   2.808   4.567  1.0378  0.9476 -0.4300
 1415SOL     OW 7198   1.701   2.542   7.490  0.2254 -0.1291  0.0251
 1415SOL    HW1 7199   1.677   2.450   7.497 -0.8526 -0.0141 -1.4681
 1415SOL    HW2 7200   1.688   2.562   7.397  0.0663  1.6133  0.3930
 1416SOL     OW 7201   3.558   6.746   2.749  0.7540 -0.6903  0.6051
 1416SOL    HW1 7202   3.521   6.732   2.662 -0.3676 -0.2375  0.9792
 1416SOL    HW2 7203   3.495   6.705   2.809 -0.3252  1.8885  1.4024
 1417SOL     OW 7204   5.147   7.898   1.847 -0.3052 -0.0160  0.6867
 1417SOL    HW1 7205   5.233   7.881   1.886  0.8583 -0.2685 -1.7996
 1417SOL    HW2 7206   5.095   7.822   1.870  0.1006  0.1567  2.2734
 1418SOL     OW 7207   1.451   0.744   8.025 -0.3735  0.0432 -0.2866
 1418SOL    HW1 7208   1.426   0.802   7.953  1.3241  0.5156 -0.5210
 1418SOL    HW2 7209   1.465   0.659   7.984  3.1711  0.8740 -1.0674
 1419SOL     OW 7210   6.795   7.902   2.075 -0.1182  0.0988 -0.3960
 1419SOL    HW1 7211   6.781   7.887   2.168  1.4776  0.9154 -0.0035
 1419SOL    HW2 7212   6.884   7.872   2.058 -0.0695  0.7926 -1.4783
 1420SOL     OW 7213   4.496   1.763   4.240 -0.2786  0.2891  0.2703
 1420SOL    HW1 7214   4.546   1.765   4.158  0.5567  2.4412  0.7480
 1420SOL    HW2 7215   4.552   1.714   4.300 -0.1281  0.1016 -0.0202
 1421SOL     OW 7216   8.046   7.771   5.299  0.1315  0.5884  0.6700
 1421SOL    HW1 7217   8.044   7.857   5.255 -0.5802  1.3343  2.0884
 1421SOL    HW2 7218   8.009   7.788   5.385 -1.3776 -1.4497  0.4803
 1422SOL     OW 7219   1.555   3.351   5.265  0.7289 -0.7443 -0.3494
 1422SOL    HW1 7220   1.481   3.412   5.262  1.7166  0.5000 -0.3350
 1422SOL    HW2 7221   1.518   3.268   5.235 -0.3220  0.2078 -1.8535
 1423SOL     OW 7222   3.898   8.067   1.158 -0.6603 -0.6232 -0.5144
 1423SOL    HW1 7223   3.915   8.007   1.085  0.7613  0.5050 -1.1634
 1423SOL    HW2 7224   3.807   8.096   1.145 -0.5518 -0.7444 -1.6094
 1424SOL     OW 7225   4.507   3.575   3.411 -0.0612 -0.1267  0.0557
 1424SOL    HW1 7226   4.537   3.489   3.438  0.2340 -0.3371 -0.8850
 1424SOL    HW2 7227   4.414   3.577   3.434  0.3138 -0.0310  1.6415
 1425SOL     OW 7228   3.317   1.360   0.494 -0.1355  0.2321  0.6422
 1425SOL    HW1 7229   3.304   1.441   0.544 -1.9687 -0.0777  0.7331
 1425SOL    HW2 7230   3.238   1.308   0.511 -1.6158  0.6788 -3.5980
 1426SOL     OW 7231   1.548   4.537   5.826  0.2838 -0.0695 -0.0194
 1426SOL    HW1 7232   1.618   4.587   5.783 -0.3033 -0.5690 -1.6344
 1426SOL    HW2 7233   1.534   4.581   5.909  2.0217  0.4795  0.0218
 1427SOL     OW 7234   0.473   0.003   1.756 -0.7709  0.8833 -0.5558
 1427SOL    HW1 7235   0.435   0.073   1.809 -1.7180 -0.3023  0.4131
 1427SOL    HW2 7236   0.567   0.014   1.765 -0.7173 -0.9849  3.9843
 1428SOL     OW 7237   5.092   5.534   7.466  0.1506 -0.2066  0.6103
 1428SOL    HW1 7238   5.015   5.588   7.485  0.2010  0.2268 -0.3800
 1428SOL    HW2 7239   5.153   5.593   7.422  0.6329 -0.8013  0.4704
 1429SOL     OW 7240   6.191   0.834   7.175  0.2625 -0.1198 -0.1409
 1429SOL    HW1 7241   6.210   0.744   7.201  0.7665 -0.3768 -1.3117
 1429SOL    HW2 7242   6.099   0.848   7.199  0.7839 -0.1753  2.0690
 1430SOL     OW 7243   2.169   0.422   5.819  0.4600 -0.1599  0.3451
 1430SOL    HW1 7244   2.179   0.359   5.747 -1.4082  0.0627 -0.1703
 1430SOL    HW2 7245   2.137   0.369   5.892 -0.2389  0.0173  0.1797
 1431SOL     OW 7246   6.072   5.630   4.888  0.4873  0.0993 -0.1154
 1431SOL    HW1 7247   6.053   5.541   4.859 -0.1417  0.5581 -1.1777
 1431SOL    HW2 7248   6.151   5.621   4.942 -0.8377 -1.3910  1.7026
 1432SOL     OW 7249   4.941   4.470   1.916 -0.0352 -0.6882 -0.1691
 1432SOL    HW1 7250   4.852   4.435   1.913 -0.5777  0.6242 -0.2418
 1432SOL    HW2 7251   4.996   4.396   1.943 -1.0628 -1.6611 -0.6872
 1433SOL     OW 7252   1.621   6.167   4.554 -0.0738 -0.3498  0.9417
 1433SOL    HW1 7253   1.682   6.210   4.614 -2.4838  4.7082  0.2815
 1433SOL    HW2 7254   1.674   6.148   4.476  1.6252 -0.7413  2.1310
 1434SOL     OW 7255   0.003   4.200   6.734  0.0604 -0.5569  0.0797
 1434SOL    HW1 7256   0.032   4.183   6.645  0.8488 -0.1856  0.2565
 1434SOL    HW2 7257   0.043   4.130   6.786 -0.5378 -0.8739  0.1250
 1435SOL     OW 7258   2.821   1.378   4.541 -0.5299 -0.1790  0.0272
 1435SOL    HW1 7259   2.851   1.298   4.498  2.7732  0.7964  0.2774
 1435SOL    HW2 7260   2.841   1.365   4.634  0.7642  1.1565 -0.0282
 1436SOL     OW 7261   7.360   3.470   0.988 -0.4527 -0.2380  0.0869
 1436SOL    HW1 7262   7.352   3.490   0.894  0.4194 -0.1919  0.0178
 1436SOL    HW2 7263   7.381   3.555   1.028 -2.7714  0.1522  0.6035
 1437SOL     OW 7264   4.144   3.475   1.490  0.3222 -0.6728  0.2562
 1437SOL    HW1 7265   4.071   3.494   1.549  1.0257 -1.3341  1.3827
 1437SOL    HW2 7266   4.213   3.442   1.548  1.8031  0.6453 -0.6596
 1438SOL     OW 7267   3.357   7.455   0.559 -0.1300 -0.7783  0.1223
 1438SOL    HW1 7268   3.444   7.486   0.535 -0.7822  1.0000 -0.1012
 1438SOL    HW2 7269   3.299   7.487   0.489 -1.0192 -1.5685  0.4731
 1439SOL     OW 7270   0.651   0.818   7.998 -0.6704  0.2738  0.2379
 1439SOL    HW1 7271   0.626   0.789   7.910  0.3594 -1.7466  0.5310
 1439SOL    HW2 7272   0.745   0.833   7.992 -0.2404 -1.6296  1.3491
 1440SOL     OW 7273   5.907   2.216   2.118 -0.5426 -0.1219  0.2474
 1440SOL    HW1 7274   5.823   2.172   2.128 -0.0107 -0.9730  1.0678
 1440SOL    HW2 7275   5.888   2.309   2.133 -1.3177 -0.3127  0.4661
 1441SOL     OW 7276   4.479   3.080   2.760  1.1016 -0.1143 -0.3563
 1441SOL    HW1 7277   4.459   2.988   2.744  0.7212 -0.2841  0.9894
 1441SOL    HW2 7278   4.501   3.084   2.853 -1.6419  1.6019  0.3181
 1442SOL     OW 7279   6.363   4.446   3.798 -0.6835  0.0679  0.3767
 1442SOL    HW1 7280   6.333   4.357   3.820  3.2367 -1.9692 -1.5313
 1442SOL    HW2 7281   6.435   4.462   3.859 -0.4096  1.3600 -0.2693
 1443SOL     OW 7282   7.953   6.622   0.680 -0.1611  0.4218 -0.0941
 1443SOL    HW1 7283   7.955   6.675   0.600 -2.3041  0.6871 -0.0265
 1443SOL    HW2 7284   7.915   6.539   0.652  0.4864 -0.0414  0.3778
 1444SOL     OW 7285   3.754   0.255   3.822  0.3350  0.3172  0.1592
 1444SOL    HW1 7286   3.802   0.335   3.800 -0.7592  0.8449 -0.3433
 1444SOL    HW2 7287   3.756   0.203   3.742 -1.0878  0.9432 -0.3086
 1445SOL     OW 7288   5.146   1.375   5.226 -0.0721  0.0447 -0.1293
 1445SOL    HW1 7289   5.145   1.420   5.142  2.1382  2.6250  1.0762
 1445SOL    HW2 7290   5.076   1.416   5.277 -1.8824 -2.0020 -0.8382
 1446SOL     OW 7291   3.983   4.084   4.237 -0.2492  0.3417 -0.3348
 1446SOL    HW1 7292   3.986   4.008   4.180 -0.5037 -0.5240  0.7729
 1446SOL    HW2 7293   3.985   4.159   4.177  2.7043 -0.4536 -1.3711
 1447SOL     OW 7294   5.922   7.756   2.397  0.1342 -0.2537 -0.0052
 1447SOL    HW1 7295   5.848   7.696   2.401 -0.1551  0.1328  0.6213
 1447SOL    HW2 7296   5.882   7.842   2.383  0.4211  0.0240  0.8039
 1448SOL     OW 7297   0.928   6.800   6.472 -0.5916 -0.1217 -0.4968
 1448SOL    HW1 7298   0.988   6.726   6.462  3.1388  2.6053 -0.4474
 1448SOL    HW2 7299   0.892   6.815   6.385 -0.5058 -1.2216 -0.7363
 1449SOL     OW 7300   1.588   4.212   2.964 -0.3059  0.2390 -0.3836
 1449SOL    HW1 7301   1.502   4.220   3.004  0.1037  2.5680  0.2133
 1449SOL    HW2 7302   1.643   4.171   3.031 -0.8340 -0.9279 -0.6395
 1450SOL     OW 7303   6.332   4.484   1.317  0.2974  0.0696 -0.5375
 1450SOL    HW1 7304   6.384   4.558   1.347  0.4851  0.6108 -2.1292
 1450SOL    HW2 7305   6.271   4.467   1.389  0.4429  1.5811 -0.0290
 1451SOL     OW 7306   0.965   2.500   5.154 -0.3470  0.3901  0.0660
 1451SOL    HW1 7307   0.971   2.405   5.164 -0.6171  0.1080 -2.1021
 1451SOL    HW2 7308   1.056   2.530   5.160 -0.2980  0.0778  1.1696
 1452SOL     OW 7309   0.892   6.936   3.266 -0.2020 -0.6278  0.4151
 1452SOL    HW1 7310   0.862   6.953   3.177  1.2827 -2.1983 -0.4597
 1452SOL    HW2 7311   0.963   6.999   3.280  0.0668 -0.8739  0.1812
 1453SOL     OW 7312   2.767   5.502   0.527  0.1031 -1.1101 -0.5201
 1453SOL    HW1 7313   2.743   5.560   0.599 -1.8211 -1.1303 -1.0883
 1453SOL    HW2 7314   2.823   5.435   0.567  0.8477  0.0832  0.5024
 1454SOL     OW 7315   3.578   0.515   4.417  0.6214 -0.3211 -0.5615
 1454SOL    HW1 7316   3.607   0.487   4.330  0.4087  1.5429 -1.2661
 1454SOL    HW2 7317   3.581   0.610   4.415 -0.9726 -0.1766  0.9242
 1455SOL     OW 7318   6.873   7.120   2.315  0.0655 -0.2591  0.0250
 1455SOL    HW1 7319   6.823   7.048   2.354  3.1554 -1.3113  2.4485
 1455SOL    HW2 7320   6.961   7.085   2.304  1.4084  2.7592  0.1857
 1456SOL     OW 7321   4.353   7.746   2.170  0.1404  0.1015 -0.6601
 1456SOL    HW1 7322   4.393   7.678   2.226 -0.3797 -0.4673 -0.9652
 1456SOL    HW2 7323   4.422   7.810   2.158  0.2042  0.3577  0.8301
 1457SOL     OW 7324   4.832   2.578   1.891 -0.7447 -0.3453  0.1703
 1457SOL    HW1 7325   4.841   2.639   1.964 -2.2460  0.5686 -0.3678
 1457SOL    HW2 7326   4.738   2.578   1.870 -0.8582 -3.0302  0.2898
 1458SOL     OW 7327   6.719   5.389   1.424  0.9519 -0.3371  0.7484
 1458SOL    HW1 7328   6.661   5.445   1.372  0.2055 -1.5329  0.2287
 1458SOL    HW2 7329   6.707   5.301   1.386  4.2523 -0.4340 -0.3933
 1459SOL     OW 7330   5.964   5.812   0.856  0.1134  0.1916  0.0317
 1459SOL    HW1 7331   5.892   5.787   0.913  1.3500 -3.0456  0.3779
 1459SOL    HW2 7332   5.960   5.749   0.784  1.5140  1.1064 -0.8910
 1460SOL     OW 7333   5.545   0.775   5.418  0.2112 -0.1626 -0.4406
 1460SOL    HW1 7334   5.620   0.834   5.411  0.1754  0.0785  0.8532
 1460SOL    HW2 7335   5.583   0.690   5.441  0.0791  0.0870  0.7771
 1461SOL     OW 7336   3.799   1.100   5.259  0.1122 -0.3265  0.6734
 1461SOL    HW1 7337   3.706   1.085   5.278  0.1304 -1.3898  0.0077
 1461SOL    HW2 7338   3.841   1.017   5.280  0.8557  0.0204  0.5729
 1462SOL     OW 7339   4.292   7.354   0.363 -0.0499  0.0075 -0.4998
 1462SOL    HW1 7340   4.233   7.429   0.371  0.1891  0.1388  0.1013
 1462SOL    HW2 7341   4.369   7.378   0.415  0.5421 -0.1627 -1.2625
 1463SOL     OW 7342   2.749   5.186   4.159  0.5792  0.0870 -0.0348
 1463SOL    HW1 7343   2.789   5.256   4.210  1.4352 -0.5007  0.1412
 1463SOL    HW2 7344   2.725   5.120   4.224 -1.1362  0.6145 -0.0876
 1464SOL     OW 7345   7.209   4.973   7.928  0.0797  0.3828 -0.3518
 1464SOL    HW1 7346   7.143   4.903   7.921  0.7380 -0.1006 -2.5777
 1464SOL    HW2 7347   7.159   5.050   7.955 -1.0220 -0.4801  0.1647
 1465SOL     OW 7348   3.088   1.924   0.659 -0.1204  0.1273 -0.2520
 1465SOL    HW1 7349   3.102   1.903   0.751 -0.5346  2.1526  0.3228
 1465SOL    HW2 7350   3.046   1.846   0.623  0.1721 -0.7508  1.2312
 1466SOL     OW 7351   4.580   7.391   7.941 -0.1547 -0.0219  0.0371
 1466SOL    HW1 7352   4.549   7.309   7.980 -0.3727 -0.6095 -1.3309
 1466SOL    HW2 7353   4.532   7.459   7.988 -0.0358 -0.6704  1.1391
 1467SOL     OW 7354   0.601   8.019   4.262  0.2139  0.0926  0.3653
 1467SOL    HW1 7355   0.643   8.105   4.260 -0.7017  0.5545  0.5422
 1467SOL    HW2 7356   0.581   7.999   4.170  0.0182  0.2824  0.3649
 1468SOL     OW 7357   5.646   4.298   0.045 -0.1726  0.6612  0.0081
 1468SOL    HW1 7358   5.575   4.291   0.109 -0.6669  0.8840 -0.5074
 1468SOL    HW2 7359   5.660   4.392   0.035 -0.0242  0.6249 -0.1245
 1469SOL     OW 7360   6.577   7.776   0.505 -0.3159  0.7300  0.3373
 1469SOL    HW1 7361   6.623   7.751   0.424  0.1154 -0.5929  0.9576
 1469SOL    HW2 7362   6.589   7.871   0.511  1.0108  0.6366 -0.3493
 1470SOL     OW 7363   2.206   3.736   1.595  0.3334 -0.0840  0.0712
 1470SOL    HW1 7364   2.136   3.780   1.546 -1.1555 -1.0448  1.2778
 1470SOL    HW2 7365   2.287   3.774   1.559 -0.6579 -0.5484 -2.9341
 1471SOL     OW 7366   0.413   7.658   4.061 -0.3872  0.5929 -0.0618
 1471SOL    HW1 7367   0.423   7.659   4.156  0.1659  2.3961 -0.1002
 1471SOL    HW2 7368   0.475   7.591   4.031 -0.7495 -0.1672  0.8516
 1472SOL     OW 7369   1.125   7.646   6.000  0.1966 -0.3512  0.0558
 1472SOL    HW1 7370   1.125   7.550   5.995  0.8751 -0.3500 -0.0001
 1472SOL    HW2 7371   1.207   7.668   6.044  0.4060  0.2454 -0.6145
 1473SOL     OW 7372   5.892   5.200   2.753 -0.0419 -0.0155 -0.0187
 1473SOL    HW1 7373   5.948   5.176   2.679 -1.0514 -1.0480 -0.4763
 1473SOL    HW2 7374   5.946   5.186   2.830  0.5412 -0.3565 -0.4813
 1474SOL     OW 7375   6.451   0.070   2.157 -0.1728  0.0539 -0.2830
 1474SOL    HW1 7376   6.428   0.060   2.065  1.1328  0.5139 -0.6918
 1474SOL    HW2 7377   6.517   0.140   2.158 -1.7582  1.6622  1.2572
 1475SOL     OW 7378   4.053   0.585   3.494  0.1309  0.0355  0.0339
 1475SOL    HW1 7379   4.121   0.632   3.542 -0.4551  0.8577  0.0856
 1475SOL    HW2 7380   3.977   0.643   3.497 -0.3909 -0.5970 -0.5403
 1476SOL     OW 7381   5.994   0.182   3.153 -0.5372 -0.0146 -0.2616
 1476SOL    HW1 7382   5.950   0.267   3.161  1.1480  0.9109 -0.3608
 1476SOL    HW2 7383   5.937   0.131   3.096 -0.4264  1.9067 -2.2656
 1477SOL     OW 7384   2.281   6.479   1.487 -0.0954  0.1435  0.4372
 1477SOL    HW1 7385   2.326   6.421   1.426  0.0391 -0.0917  0.7558
 1477SOL    HW2 7386   2.326   6.563   1.476  0.4378 -0.0885  0.7496
 1478SOL     OW 7387   0.628   4.844   0.898 -0.4060  0.2813 -0.7321
 1478SOL    HW1 7388   0.654   4.803   0.816  1.7391  0.5091 -0.2261
 1478SOL    HW2 7389   0.631   4.773   0.963 -1.9462  0.1342 -0.7807
 1479SOL     OW 7390   4.195   7.593   5.430  0.3554  0.4005  0.5286
 1479SOL    HW1 7391   4.254   7.562   5.499  0.1935 -0.1933  0.4031
 1479SOL    HW2 7392   4.120   7.628   5.477 -0.7787 -2.0194  0.6477
 1480SOL     OW 7393   3.421   6.372   1.442 -0.7193  0.3587 -0.0847
 1480SOL    HW1 7394   3.354   6.438   1.463 -1.3117  0.1705 -1.2587
 1480SOL    HW2 7395   3.495   6.423   1.410 -1.0724  0.4931 -0.7204
 1481SOL     OW 7396   0.315   0.201   6.521 -0.8850  0.2151 -0.7475
 1481SOL    HW1 7397   0.292   0.139   6.452  0.7206 -0.6697 -0.5467
 1481SOL    HW2 7398   0.354   0.275   6.475  1.9580 -1.1761 -0.8050
 1482SOL     OW 7399   5.517   4.565   1.773  0.1488 -0.6665 -0.0609
 1482SOL    HW1 7400   5.517   4.649   1.820  0.6561 -0.6798 -0.0291
 1482SOL    HW2 7401   5.506   4.589   1.681  3.4545 -0.2830 -0.4764
 1483SOL     OW 7402   5.531   2.940   0.726  0.6346  0.4641 -0.4500
 1483SOL    HW1 7403   5.508   2.957   0.634  1.4760 -0.1782 -0.7897
 1483SOL    HW2 7404   5.583   3.017   0.752  0.3889  0.6510 -0.5075
 1484SOL     OW 7405   1.890   3.032   7.234  0.0383  0.0470 -0.1747
 1484SOL    HW1 7406   1.952   2.985   7.178  1.1674  2.2043 -0.8796
 1484SOL    HW2 7407   1.930   3.119   7.245 -2.3480  1.1654  0.2746
 1485SOL     OW 7408   5.520   1.928   4.500  0.3736 -0.0396  0.1168
 1485SOL    HW1 7409   5.439   1.897   4.459 -0.4177 -1.1979  2.3624
 1485SOL    HW2 7410   5.590   1.885   4.450 -0.6002 -2.8587  0.9674
 1486SOL     OW 7411   0.500   5.010   7.757  0.6370  0.1587 -0.3673
 1486SOL    HW1 7412   0.465   5.099   7.762 -0.0904 -0.1714  0.8814
 1486SOL    HW2 7413   0.429   4.955   7.791  0.7080 -1.0153 -2.0275
 1487SOL     OW 7414   1.892   7.048   6.907 -0.6341  0.1548  0.4544
 1487SOL    HW1 7415   1.980   7.071   6.937 -1.3208 -0.0672  2.8317
 1487SOL    HW2 7416   1.903   7.023   6.815  1.7816  0.0942  0.7124
 1488SOL     OW 7417   5.906   2.723   0.773 -0.5096  0.1873  0.2107
 1488SOL    HW1 7418   5.906   2.634   0.808  2.1000 -1.5685 -3.5918
 1488SOL    HW2 7419   5.842   2.720   0.701 -1.5923  1.9436  1.0402
 1489SOL     OW 7420   7.440   0.854   5.864  0.5623 -0.1167  0.0481
 1489SOL    HW1 7421   7.414   0.944   5.886  1.3001  0.5326 -1.5889
 1489SOL    HW2 7422   7.532   0.861   5.841  0.5534 -1.2560 -0.3762
 1490SOL     OW 7423   0.926   6.005   1.121  0.5784 -0.6725  0.8282
 1490SOL    HW1 7424   0.885   6.030   1.038  1.8069 -0.1896  0.3395
 1490SOL    HW2 7425   0.886   5.922   1.144 -1.2427  0.1446  0.7971
 1491SOL     OW 7426   8.088   3.401   4.470  0.0184 -0.0711  0.1815
 1491SOL    HW1 7427   8.067   3.428   4.559  1.9599  1.8198  0.1550
 1491SOL    HW2 7428   8.163   3.342   4.480 -0.0217 -0.1824 -0.1550
 1492SOL     OW 7429   5.885   4.552   5.730  0.5442 -0.8330 -0.7839
 1492SOL    HW1 7430   5.962   4.555   5.788 -0.0702 -0.1289  0.0106
 1492SOL    HW2 7431   5.920   4.519   5.647  1.6485 -0.8377 -0.3423
 1493SOL     OW 7432   5.315   3.970   6.464  0.3013 -0.3793  0.2018
 1493SOL    HW1 7433   5.267   4.021   6.529  1.0418 -0.6312  0.9543
 1493SOL    HW2 7434   5.370   4.033   6.418 -1.1029  0.0122 -1.0465
 1494SOL     OW 7435   6.888   6.855   5.997 -0.2627  0.2460 -0.7765
 1494SOL    HW1 7436   6.795   6.872   6.017 -0.0462  0.0746  0.4607
 1494SOL    HW2 7437   6.899   6.889   5.909 -1.6506 -0.2588 -1.1807
 1495SOL     OW 7438   3.840   0.721   1.962 -0.3114  0.4952  0.4597
 1495SOL    HW1 7439   3.884   0.746   1.881 -0.5576 -1.5864 -0.3666
 1495SOL    HW2 7440   3.908   0.678   2.014 -0.7251 -0.4006  0.2783
 1496SOL     OW 7441   4.534   7.319   6.581  0.1560  0.0769 -0.5712
 1496SOL    HW1 7442   4.573   7.347   6.498 -0.7564 -0.0497 -1.0545
 1496SOL    HW2 7443   4.443   7.299   6.559 -0.2111  0.4551  0.5484
 1497SOL     OW 7444   5.468   8.031   2.910  0.0524  0.0569  0.4871
 1497SOL    HW1 7445   5.500   8.013   2.822 -0.4295  1.7494 -0.0620
 1497SOL    HW2 7446   5.538   8.000   2.968 -0.2138 -2.3650 -0.3720
 1498SOL     OW 7447   1.243   5.343   6.775 -0.4024  0.5539 -0.3954
 1498SOL    HW1 7448   1.156   5.377   6.795 -0.7280  0.1643 -1.0963
 1498SOL    HW2 7449   1.254   5.361   6.681 -0.1240 -0.2425 -0.5201
 1499SOL     OW 7450   6.753   4.562   0.183  0.5655 -0.6199  0.0014
 1499SOL    HW1 7451   6.674   4.601   0.146  0.9135  0.4599  0.3710
 1499SOL    HW2 7452   6.813   4.554   0.108  0.4031 -0.6885 -0.1221
 1500SOL     OW 7453   6.862   5.169   4.176  0.2796 -0.3541 -0.1155
 1500SOL    HW1 7454   6.871   5.177   4.271  0.2135  0.6178 -0.1743
 1500SOL    HW2 7455   6.947   5.196   4.141  1.2153 -3.2292 -0.2759
 1501SOL     OW 7456   5.744   7.052   3.925 -0.2206  0.0019  0.2026
 1501SOL    HW1 7457   5.738   7.129   3.982 -1.4469  0.4801 -0.5058
 1501SOL    HW2 7458   5.691   6.986   3.968  2.9590 -1.4498  2.1835
 1502SOL     OW 7459   1.823   4.991   6.367 -0.4408  0.2015 -0.3459
 1502SOL    HW1 7460   1.877   5.035   6.432  0.5310 -0.1663 -0.8738
 1502SOL    HW2 7461   1.790   4.913   6.411  1.9376 -1.1941 -0.8549
 1503SOL     OW 7462   0.819   2.394   0.428  0.6029 -0.1849 -0.2873
 1503SOL    HW1 7463   0.798   2.398   0.521  0.2773  1.1531 -0.4019
 1503SOL    HW2 7464   0.913   2.411   0.424  0.2506  2.0572 -0.3239
 1504SOL     OW 7465   3.616   2.341   4.930 -0.2246 -0.0577 -0.0261
 1504SOL    HW1 7466   3.527   2.375   4.941 -0.4516 -0.2716 -1.1075
 1504SOL    HW2 7467   3.670   2.399   4.983 -1.0601 -0.2361  1.0839
 1505SOL     OW 7468   7.072   7.938   0.628 -0.5307  0.2221  0.2236
 1505SOL    HW1 7469   7.095   7.862   0.681  0.1964  0.9228  0.9501
 1505SOL    HW2 7470   6.979   7.952   0.644 -0.1407  0.9854  2.1070
 1506SOL     OW 7471   3.019   0.899   0.250 -0.4689 -0.0911  0.5628
 1506SOL    HW1 7472   3.066   0.875   0.170 -0.5462 -1.8791  1.0092
 1506SOL    HW2 7473   3.022   0.994   0.252  1.6187 -0.0830 -0.3159
 1507SOL     OW 7474   0.020   0.286   5.846 -0.3759  0.5697  0.2366
 1507SOL    HW1 7475  -0.048   0.344   5.813  0.1332 -0.1327 -2.2608
 1507SOL    HW2 7476   0.095   0.302   5.790  0.4155 -1.0532  0.7586
 1508SOL     OW 7477   2.771   3.661   2.757 -0.7879  0.0789 -0.6177
 1508SOL    HW1 7478   2.811   3.731   2.808  1.0829 -0.5934 -1.0757
 1508SOL    HW2 7479   2.793   3.581   2.805 -0.0775 -0.4537 -1.7840
 1509SOL     OW 7480   2.710   0.192   5.465 -0.0024  0.4380 -0.2739
 1509SOL    HW1 7481   2.737   0.213   5.375 -0.6112  1.8670 -0.1517
 1509SOL    HW2 7482   2.616   0.173   5.458  0.0280  0.1915 -0.0010
 1510SOL     OW 7483   5.502   0.013   0.145 -0.3822  0.3430 -0.0059
 1510SOL    HW1 7484   5.536  -0.059   0.199  0.2727 -0.5598 -1.5591
 1510SOL    HW2 7485   5.424   0.043   0.192  1.2346  0.9743  2.5009
 1511SOL     OW 7486   3.089   1.990   1.594  0.1478  0.6222 -0.5605
 1511SOL    HW1 7487   3.128   2.031   1.517  2.0567  0.1000  0.0616
 1511SOL    HW2 7488   3.161   1.985   1.657 -0.2740 -2.5170 -0.1699
 1512SOL     OW 7489   4.997   0.223   3.676 -0.3234  0.0892 -0.3134
 1512SOL    HW1 7490   5.056   0.151   3.696  0.5589  0.6425 -0.8635
 1512SOL    HW2 7491   5.015   0.289   3.743  0.4702  0.7017 -1.1151
 1513SOL     OW 7492   3.302   2.376   2.274  0.0835 -0.3307  0.0401
 1513SOL    HW1 7493   3.354   2.297   2.291 -2.0172 -1.4105  2.0430
 1513SOL    HW2 7494   3.223   2.365   2.327 -1.4845  1.9580 -1.5869
 1514SOL     OW 7495   1.678   6.155   0.395  0.0648 -0.1726 -0.4834
 1514SOL    HW1 7496   1.656   6.078   0.448 -1.8269  0.3683 -0.4280
 1514SOL    HW2 7497   1.607   6.161   0.331  0.4226  1.2695 -0.7821
 1515SOL     OW 7498   5.234   6.055   4.240 -0.1670  0.1154  0.3730
 1515SOL    HW1 7499   5.191   6.019   4.317 -0.2827 -1.9384 -0.5881
 1515SOL    HW2 7500   5.301   6.114   4.275  0.3907 -1.4607  2.0793
 1516SOL     OW 7501   3.321   1.228   5.643 -0.6892 -0.3174  0.0060
 1516SOL    HW1 7502   3.365   1.295   5.589 -0.0579  0.4944  1.4701
 1516SOL    HW2 7503   3.392   1.171   5.672 -1.0102 -0.6917  0.0518
 1517SOL     OW 7504   2.215   2.580   5.959  0.3305  0.5170 -0.1301
 1517SOL    HW1 7505   2.221   2.493   5.920  0.3226 -0.3552  1.6679
 1517SOL    HW2 7506   2.135   2.577   6.011  0.2026  1.6926 -0.2386
 1518SOL     OW 7507   1.030   4.562   0.513 -0.3989  0.1588  0.0831
 1518SOL    HW1 7508   1.011   4.499   0.582  2.0910  0.0525  0.7489
 1518SOL    HW2 7509   0.990   4.644   0.543 -0.4719 -0.2045  1.0059
 1519SOL     OW 7510   4.906   8.065   5.729  0.9851  0.0728 -0.0894
 1519SOL    HW1 7511   4.904   8.070   5.824  2.1016  0.2735 -0.0601
 1519SOL    HW2 7512   4.817   8.040   5.704  0.4764  0.7588  0.9530
 1520SOL     OW 7513   3.762   5.526   6.897 -0.0913  0.1854  0.2848
 1520SOL    HW1 7514   3.724   5.567   6.819 -0.9258  1.8925  1.5046
 1520SOL    HW2 7515   3.852   5.507   6.872 -0.8903 -1.3085 -1.7553
 1521SOL     OW 7516   4.195   7.471   1.874 -0.0707  0.2368 -0.2596
 1521SOL    HW1 7517   4.217   7.482   1.782 -0.5507 -0.3915 -0.4547
 1521SOL    HW2 7518   4.100   7.457   1.875 -0.0882  0.3671  0.3412
 1522SOL     OW 7519   7.848   5.917   8.091 -0.3682  0.1155  0.0504
 1522SOL    HW1 7520   7.863   6.002   8.132  0.7552  0.3451 -0.8003
 1522SOL    HW2 7521   7.934   5.874   8.092 -0.0458  0.5396 -2.9399
 1523SOL     OW 7522   2.045   5.042   7.722  0.5128  0.4405 -0.4577
 1523SOL    HW1 7523   2.121   5.043   7.663 -2.3931  0.4215 -4.7144
 1523SOL    HW2 7524   2.029   4.949   7.739  0.9089  0.3943 -0.3322
 1524SOL     OW 7525   7.248   1.453   6.928 -0.2906 -0.0130  0.4107
 1524SOL    HW1 7526   7.161   1.413   6.920 -0.2608  0.2157 -1.3571
 1524SOL    HW2 7527   7.230   1.546   6.938 -0.2499  0.0503 -0.0957
 1525SOL     OW 7528   1.016   7.105   1.938  0.6066  0.2747  0.0566
 1525SOL    HW1 7529   1.006   7.185   1.989 -0.7546 -0.3654  0.8387
 1525SOL    HW2 7530   0.933   7.095   1.892  0.2143 -1.3930  1.0495
 1526SOL     OW 7531   1.853   0.018   6.349 -0.3862  0.1534 -0.1562
 1526SOL    HW1 7532   1.921   0.017   6.281  0.9414  0.7059  1.0984
 1526SOL    HW2 7533   1.859  -0.069   6.388 -0.1165  0.3333  0.2086
 1527SOL     OW 7534   5.025   5.599   2.038  0.2685  0.2448 -0.8577
 1527SOL    HW1 7535   4.944   5.586   2.088  0.5131  0.8483 -0.2917
 1527SOL    HW2 7536   5.042   5.693   2.044  0.2577  0.3394 -2.1748
 1528SOL     OW 7537   7.539   5.860   6.440 -0.4736 -0.9395  0.1609
 1528SOL    HW1 7538   7.634   5.859   6.438 -0.4741 -0.5954 -0.2979
 1528SOL    HW2 7539   7.516   5.833   6.529  0.1488  2.6311  1.5942
 1529SOL     OW 7540   4.052   4.889   5.935 -0.1812 -0.2573  0.5654
 1529SOL    HW1 7541   4.075   4.893   5.842  2.2130  0.9243  1.1185
 1529SOL    HW2 7542   4.102   4.814   5.968  1.0582  0.8692  1.3446
 1530SOL     OW 7543   4.729   1.192   0.047 -0.2416 -0.1083 -0.6245
 1530SOL    HW1 7544   4.790   1.254   0.008  1.2721 -1.6408 -0.8361
 1530SOL    HW2 7545   4.680   1.157  -0.028 -0.5161  0.2155 -0.5994
 1531SOL     OW 7546   7.792   1.622   2.808 -0.2663 -0.5717 -0.5555
 1531SOL    HW1 7547   7.827   1.711   2.807  1.4259 -1.1462  1.0494
 1531SOL    HW2 7548   7.822   1.582   2.727 -0.2680  0.0556 -0.8639
 1532SOL     OW 7549   6.048   4.879   6.639 -0.1311  0.1203 -0.3573
 1532SOL    HW1 7550   6.119   4.937   6.612  1.5914 -1.6378  0.1755
 1532SOL    HW2 7551   6.036   4.897   6.732  0.2882 -0.2329 -0.2306
 1533SOL     OW 7552   4.647   4.809   5.543  0.1289  0.5925 -0.0328
 1533SOL    HW1 7553   4.742   4.817   5.553  0.1177  0.2688  0.3321
 1533SOL    HW2 7554   4.615   4.785   5.630 -0.2138  0.0390 -0.3014
 1534SOL     OW 7555   8.009   6.936   5.889 -0.0544  0.4142 -0.0175
 1534SOL    HW1 7556   8.004   6.985   5.807 -0.0653  0.3593 -0.0503
 1534SOL    HW2 7557   7.951   6.982   5.949 -0.8377 -0.1310 -0.3424
 1535SOL     OW 7558   4.824   3.779   1.590  0.4170 -0.5112  0.6082
 1535SOL    HW1 7559   4.847   3.699   1.544  0.9977 -0.6024  1.0534
 1535SOL    HW2 7560   4.887   3.844   1.558 -0.0346 -0.2352  0.2674
 1536SOL     OW 7561   1.143   4.306   4.217  0.8310 -0.1960  0.4987
 1536SOL    HW1 7562   1.209   4.237   4.223  1.0697 -0.3968 -2.9699
 1536SOL    HW2 7563   1.193   4.386   4.200  0.3376  0.3385  1.4271
 1537SOL     OW 7564   0.063   4.262   5.324 -0.3565 -0.2591 -0.6004
 1537SOL    HW1 7565   0.135   4.325   5.327  0.3522 -0.9793 -1.7361
 1537SOL    HW2 7566   0.061   4.222   5.411 -0.1103  0.5467 -0.2222
 1538SOL     OW 7567   5.903   7.153   0.133 -0.2815 -0.5474  0.1488
 1538SOL    HW1 7568   5.813   7.157   0.103  0.1719  1.8256 -1.1522
 1538SOL    HW2 7569   5.938   7.241   0.117  2.0716 -1.1955  1.2186
 1539SOL     OW 7570   4.886   7.157   3.440 -0.5053  0.1924  0.2965
 1539SOL    HW1 7571   4.917   7.103   3.368  0.5187  0.8691  0.2127
 1539SOL    HW2 7572   4.874   7.244   3.402 -0.3003  0.4677  0.8493
 1540SOL     OW 7573   0.591   0.230   6.965 -0.2730  0.0334 -0.0902
 1540SOL    HW1 7574   0.560   0.308   7.011 -2.0908 -1.0002  0.5336
 1540SOL    HW2 7575   0.565   0.244   6.874  2.2771  1.5443 -0.6828
 1541SOL     OW 7576   0.934   1.899   3.630  0.2588  0.3444 -0.6286
 1541SOL    HW1 7577   0.925   1.806   3.653 -2.0292  0.5617 -0.3508
 1541SOL    HW2 7578   0.948   1.943   3.714  1.0349  0.2869 -0.7250
 1542SOL     OW 7579   6.096   3.556   6.398  0.3510  0.1183  0.3253
 1542SOL    HW1 7580   6.130   3.550   6.487  0.1074  1.0361  0.4866
 1542SOL    HW2 7581   6.122   3.473   6.357  1.6028  0.2266  0.8501
 1543SOL     OW 7582   0.060   1.728   1.782  0.0303 -0.6572 -0.3183
 1543SOL    HW1 7583   0.097   1.806   1.741 -0.9567 -0.3077 -0.5651
 1543SOL    HW2 7584   0.041   1.669   1.709 -0.0602 -0.7691 -0.2054
 1544SOL     OW 7585   3.742   6.611   2.251  0.1453  0.6551  0.3431
 1544SOL    HW1 7586   3.722   6.593   2.343  1.1907 -4.6379 -0.1556
 1544SOL    HW2 7587   3.659   6.597   2.205  0.3049  0.1997  0.1951
 1545SOL     OW 7588   5.213   3.030   0.639  0.5391  0.4102  0.1438
 1545SOL    HW1 7589   5.176   3.055   0.724 -1.1427  0.9155 -0.7013
 1545SOL    HW2 7590   5.217   2.935   0.641 -1.7353  0.2613 -0.0626
 1546SOL     OW 7591   5.368   0.429   1.510  0.4878  0.4286  0.4053
 1546SOL    HW1 7592   5.435   0.497   1.524  0.5572  0.7922 -1.4133
 1546SOL    HW2 7593   5.411   0.347   1.533  2.1753  0.4681 -2.1916
 1547SOL     OW 7594   1.210   4.068   4.584 -0.7417 -0.2304  1.0976
 1547SOL    HW1 7595   1.259   4.024   4.653 -0.5348  1.0795  1.8281
 1547SOL    HW2 7596   1.266   4.142   4.560 -0.5661 -0.9430 -0.8559
 1548SOL     OW 7597   0.283   0.293   8.010 -0.3514  0.5435  0.2388
 1548SOL    HW1 7598   0.347   0.308   7.940  0.1689 -2.8190 -0.1461
 1548SOL    HW2 7599   0.335   0.265   8.085 -1.2280 -1.0065  0.3056
 1549SOL     OW 7600   2.733   7.434   0.791 -0.1111 -0.1424 -0.4202
 1549SOL    HW1 7601   2.746   7.341   0.775 -1.7092 -0.4260 -0.1736
 1549SOL    HW2 7602   2.714   7.440   0.884  1.7253  0.6596 -0.0517
 1550SOL     OW 7603   6.284   8.017   3.458  0.8382 -0.0499  0.8557
 1550SOL    HW1 7604   6.371   8.013   3.417  1.4722 -0.5567  2.1760
 1550SOL    HW2 7605   6.224   8.039   3.387  1.8975 -0.8141 -0.2994
 1551SOL     OW 7606   3.883   7.207   7.730  0.4171  0.5625 -0.1554
 1551SOL    HW1 7607   3.909   7.204   7.638  0.6717  0.4579 -0.0796
 1551SOL    HW2 7608   3.931   7.282   7.766 -1.9013  2.4969 -0.7936
 1552SOL     OW 7609   7.877   6.464   2.086 -0.0645  0.0550 -0.1639
 1552SOL    HW1 7610   7.954   6.520   2.097 -0.1967 -0.0470  1.4821
 1552SOL    HW2 7611   7.810   6.504   2.141 -0.4254 -1.2447  0.3697
 1553SOL     OW 7612   3.631   0.148   6.439  0.2998  0.6171  0.0662
 1553SOL    HW1 7613   3.696   0.206   6.400 -1.1073  1.1905 -1.5079
 1553SOL    HW2 7614   3.613   0.082   6.372 -0.0801 -0.0914  0.8345
 1554SOL     OW 7615   7.387   4.093   7.040 -0.9299  0.1017 -0.3176
 1554SOL    HW1 7616   7.440   4.061   7.113 -1.3283  1.5042  0.6343
 1554SOL    HW2 7617   7.441   4.077   6.962 -0.5528 -1.5424  0.2388
 1555SOL     OW 7618   0.958   2.400   1.123 -0.6590 -0.1230 -0.1865
 1555SOL    HW1 7619   0.952   2.342   1.199  0.3484 -0.7378 -0.5513
 1555SOL    HW2 7620   0.986   2.484   1.158  3.0234 -1.2069 -0.1314
 1556SOL     OW 7621   1.581   5.547   2.271  0.6116 -0.8927 -0.1022
 1556SOL    HW1 7622   1.549   5.575   2.185 -2.1108  1.8359  1.5661
 1556SOL    HW2 7623   1.541   5.461   2.285 -1.4023 -0.0544 -0.4247
 1557SOL     OW 7624   3.804   0.696   7.519  0.0261  0.0222 -0.1770
 1557SOL    HW1 7625   3.761   0.672   7.437  0.0659 -1.7562  0.2732
 1557SOL    HW2 7626   3.732   0.717   7.578 -0.0723  0.0875 -0.3211
 1558SOL     OW 7627   5.197   4.075   2.907  0.0257  0.2902 -0.1245
 1558SOL    HW1 7628   5.261   4.143   2.884  0.5551 -0.7153 -1.7720
 1558SOL    HW2 7629   5.112   4.118   2.895  0.3411  0.5661 -1.7152
 1559SOL     OW 7630   6.507   1.852   0.213 -0.3219  0.1506 -0.4625
 1559SOL    HW1 7631   6.494   1.757   0.217  2.3163 -0.2499  2.3861
 1559SOL    HW2 7632   6.585   1.863   0.158 -1.3008  0.8496 -1.7786
 1560SOL     OW 7633   0.204   0.419   6.843  0.4117  1.0284  0.5044
 1560SOL    HW1 7634   0.186   0.358   6.772  0.8423  1.1075  0.3234
 1560SOL    HW2 7635   0.142   0.396   6.912 -0.2371  1.1740 -0.0289
 1561SOL     OW 7636   6.012   7.560   7.570 -0.4215  0.2368 -0.0522
 1561SOL    HW1 7637   6.073   7.566   7.496 -2.8215 -0.6260 -2.2467
 1561SOL    HW2 7638   6.035   7.478   7.613 -0.4983 -0.4537 -1.3007
 1562SOL     OW 7639   3.224   2.852   3.634 -0.5617 -0.1984 -0.4991
 1562SOL    HW1 7640   3.216   2.941   3.667 -0.9877 -0.2863 -0.3602
 1562SOL    HW2 7641   3.148   2.840   3.578 -0.6811 -0.5824 -0.2608
 1563SOL     OW 7642   7.722   5.051   3.558 -0.2888 -0.1007  0.2147
 1563SOL    HW1 7643   7.760   4.989   3.619 -2.4958 -0.2214  1.5582
 1563SOL    HW2 7644   7.771   5.132   3.573  1.2157 -0.9157 -0.0801
 1564SOL     OW 7645   5.758   5.561   0.158 -0.0548 -0.0832 -0.4616
 1564SOL    HW1 7646   5.843   5.582   0.195 -0.8809 -0.1816  1.6390
 1564SOL    HW2 7647   5.711   5.517   0.229 -0.7049 -3.1106 -2.6041
 1565SOL     OW 7648   2.777   7.657   6.543 -0.0866  0.1150 -0.1623
 1565SOL    HW1 7649   2.693   7.687   6.508 -0.7389 -0.6565  0.6887
 1565SOL    HW2 7650   2.834   7.650   6.466 -1.3945 -1.2951 -1.0726
 1566SOL     OW 7651   5.977   3.041   7.422 -0.9071  0.9569 -0.0432
 1566SOL    HW1 7652   6.014   3.117   7.467 -0.9676  0.7332  0.3877
 1566SOL    HW2 7653   6.023   2.966   7.460 -3.0138  0.4995  1.8480
 1567SOL     OW 7654   4.016   3.845   0.049 -0.2247 -0.1220 -0.5144
 1567SOL    HW1 7655   3.979   3.835  -0.039  0.1972  0.1130 -0.7231
 1567SOL    HW2 7656   3.945   3.882   0.101  0.0480  1.4364 -1.1893
 1568SOL     OW 7657   2.568   5.321   5.396 -0.0915 -0.1783 -0.3865
 1568SOL    HW1 7658   2.627   5.382   5.352  1.3432 -0.2420  1.3266
 1568SOL    HW2 7659   2.614   5.237   5.395 -0.1236 -0.2440  0.9322
 1569SOL     OW 7660   0.127   3.350   0.791  0.5381 -0.4336 -0.5188
 1569SOL    HW1 7661   0.188   3.342   0.864 -0.1332 -1.1327 -0.0204
 1569SOL    HW2 7662   0.057   3.407   0.823  0.3590 -0.5490 -0.6995
 1570SOL     OW 7663   1.441   3.381   6.211  0.0057  0.4934  0.4814
 1570SOL    HW1 7664   1.390   3.321   6.156 -0.0781  1.1563 -0.1778
 1570SOL    HW2 7665   1.420   3.468   6.178  0.1419  0.8943  1.4212
 1571SOL     OW 7666   0.451   2.122   6.246  0.3996 -0.0207 -0.3958
 1571SOL    HW1 7667   0.439   2.210   6.282 -2.0839 -0.1290 -0.8477
 1571SOL    HW2 7668   0.432   2.063   6.320 -1.6202 -0.1947 -1.0139
 1572SOL     OW 7669   6.114   6.121   0.238 -0.0522  0.1540 -0.7234
 1572SOL    HW1 7670   6.069   6.038   0.254 -1.5794  1.3299  1.5718
 1572SOL    HW2 7671   6.207   6.099   0.239 -0.4431 -1.7477 -1.7605
 1573SOL     OW 7672   6.062   5.184   0.631 -0.7143  0.1590  0.4402
 1573SOL    HW1 7673   6.033   5.269   0.597 -0.8211  0.3168  0.9173
 1573SOL    HW2 7674   6.057   5.126   0.555 -0.3604  0.6417  0.0369
 1574SOL     OW 7675   4.028   0.846   0.316 -0.1679  0.0121  0.3161
 1574SOL    HW1 7676   4.058   0.894   0.239  0.0750  0.5709  0.7532
 1574SOL    HW2 7677   4.008   0.913   0.381  0.3234 -0.4716  0.9959
 1575SOL     OW 7678   2.334   5.687   4.840 -0.1949 -0.3016  0.2289
 1575SOL    HW1 7679   2.251   5.732   4.825  0.6791  0.8785 -1.3615
 1575SOL    HW2 7680   2.390   5.717   4.769  1.9666 -0.1626  1.8906
 1576SOL     OW 7681   7.233   4.245   8.064 -0.0814 -0.6378  0.0712
 1576SOL    HW1 7682   7.254   4.152   8.058 -1.9092 -0.9845 -2.1853
 1576SOL    HW2 7683   7.295   4.287   8.004  0.0068 -0.5466  0.2273
 1577SOL     OW 7684   2.056   3.342   4.912  0.4498  0.5290 -0.7440
 1577SOL    HW1 7685   1.989   3.395   4.868 -0.4536 -0.4943 -0.6377
 1577SOL    HW2 7686   2.013   3.309   4.991  1.2635  0.3088 -0.3824
 1578SOL     OW 7687   8.121   3.865   2.307  0.0099 -0.2096 -0.0013
 1578SOL    HW1 7688   8.100   3.945   2.354 -0.6593  0.0907 -0.7947
 1578SOL    HW2 7689   8.132   3.799   2.376  0.2068  0.4716  0.6368
 1579SOL     OW 7690   6.924   2.559   0.690 -0.3792  0.6179  0.2632
 1579SOL    HW1 7691   6.990   2.515   0.744  0.3572  1.4612  0.0584
 1579SOL    HW2 7692   6.911   2.644   0.732  0.7089  1.5717 -1.2517
 1580SOL     OW 7693   7.850   1.345   7.957  0.0068  0.2282  0.0354
 1580SOL    HW1 7694   7.922   1.403   7.981 -0.5196  0.9227 -0.0142
 1580SOL    HW2 7695   7.785   1.359   8.026 -0.8991  1.1232 -0.9599
 1581SOL     OW 7696   4.954   4.172   3.447 -0.4464  0.7676  0.3991
 1581SOL    HW1 7697   5.012   4.246   3.462 -0.7619  0.8970  1.0096
 1581SOL    HW2 7698   4.897   4.200   3.375 -0.0454  0.8106  0.0999
 1582SOL     OW 7699   6.179   3.119   6.499 -0.4129  0.4925 -0.4765
 1582SOL    HW1 7700   6.084   3.118   6.514 -0.4124  1.7194 -0.2909
 1582SOL    HW2 7701   6.208   3.031   6.524 -1.0444  1.0387  2.6873
 1583SOL     OW 7702   4.552   2.821   1.638  0.4080 -0.2766  0.1631
 1583SOL    HW1 7703   4.552   2.750   1.702  2.2183 -0.3482  0.1225
 1583SOL    HW2 7704   4.590   2.896   1.685  0.8740 -0.0621 -0.5389
 1584SOL     OW 7705   2.051   7.840   3.603  0.6452 -0.1722 -0.1588
 1584SOL    HW1 7706   1.995   7.909   3.640  0.3583 -0.9740  0.9744
 1584SOL    HW2 7707   2.024   7.760   3.650  1.4508 -0.9247 -0.9411
 1585SOL     OW 7708   0.410   4.769   0.105  0.4559  0.0155  0.8325
 1585SOL    HW1 7709   0.383   4.795   0.017  1.1906 -0.7439  0.3637
 1585SOL    HW2 7710   0.377   4.838   0.162 -0.3853  0.3077  0.0111
 1586SOL     OW 7711   1.402   1.137   1.762  0.0856  0.0811  0.2281
 1586SOL    HW1 7712   1.350   1.088   1.699  0.8641 -1.6183  0.8172
 1586SOL    HW2 7713   1.374   1.228   1.752 -0.3857 -0.2462 -1.9639
 1587SOL     OW 7714   0.495   6.931   7.768 -0.3221  0.6414  0.1244
 1587SOL    HW1 7715   0.455   6.852   7.732 -1.3614  0.3685  1.7512
 1587SOL    HW2 7716   0.474   7.000   7.706 -0.7098 -0.0807 -0.5593
 1588SOL     OW 7717   4.757   6.391   4.204  0.6615 -0.1813  0.2773
 1588SOL    HW1 7718   4.671   6.378   4.163 -0.3908  0.7389  2.0497
 1588SOL    HW2 7719   4.784   6.478   4.176  0.9947 -0.4399 -0.2180
 1589SOL     OW 7720   0.689   0.595   4.567 -0.2198 -0.3677 -0.2825
 1589SOL    HW1 7721   0.760   0.581   4.505 -1.0683 -0.3876 -1.2820
 1589SOL    HW2 7722   0.663   0.686   4.552 -0.7038 -0.5007 -0.2574
 1590SOL     OW 7723   1.904   0.799   2.056  0.1356 -0.1161 -0.2463
 1590SOL    HW1 7724   1.972   0.784   2.121  1.9618  0.2868 -1.9885
 1590SOL    HW2 7725   1.838   0.851   2.102  1.4436  0.3081  1.2365
 1591SOL     OW 7726   5.478   1.481   5.957 -0.0006 -0.1036 -0.5547
 1591SOL    HW1 7727   5.421   1.419   5.913 -0.5482 -2.9611  3.5905
 1591SOL    HW2 7728   5.561   1.434   5.969  0.1875  0.5754  1.1638
 1592SOL     OW 7729   0.091   1.163   7.415 -0.0284  0.5404  0.0969
 1592SOL    HW1 7730   0.081   1.164   7.320 -0.0223 -0.4802  0.0746
 1592SOL    HW2 7731   0.023   1.102   7.446 -1.4124  2.4051  0.9314
 1593SOL     OW 7732   6.412   0.003   6.205  0.1492 -0.2895  0.2869
 1593SOL    HW1 7733   6.398  -0.087   6.237  0.0253 -0.5528 -0.4981
 1593SOL    HW2 7734   6.392  -0.001   6.112  0.4388  0.4934  0.1841
 1594SOL     OW 7735   5.458   4.730   2.547  0.3194  0.4118  0.2646
 1594SOL    HW1 7736   5.375   4.684   2.555  0.6816 -0.3498 -0.2046
 1594SOL    HW2 7737   5.459   4.763   2.457 -0.0096  1.5116  0.6409
 1595SOL     OW 7738   1.052   6.010   2.567 -0.0115  0.9298 -0.3352
 1595SOL    HW1 7739   1.063   5.936   2.627  3.0665 -0.1600 -2.0134
 1595SOL    HW2 7740   1.037   5.969   2.481  0.0695  2.2914 -1.0250
 1596SOL     OW 7741   4.649   7.713   7.012  0.3169 -0.9325 -0.0754
 1596SOL    HW1 7742   4.671   7.803   6.990  0.1577 -0.5598  1.2142
 1596SOL    HW2 7743   4.617   7.717   7.102 -0.1219 -2.2124 -0.1466
 1597SOL     OW 7744   5.337   4.558   4.597  0.3327  0.1798  0.3481
 1597SOL    HW1 7745   5.267   4.555   4.662 -0.8660 -2.2048 -0.9194
 1597SOL    HW2 7746   5.368   4.468   4.590  2.9885  1.0010  0.2010
 1598SOL     OW 7747   2.832   5.840   1.751 -0.7071 -0.2391 -0.5039
 1598SOL    HW1 7748   2.822   5.745   1.760 -1.4481 -0.1809 -0.6272
 1598SOL    HW2 7749   2.752   5.868   1.706  0.9624  0.0436 -3.4818
 1599SOL     OW 7750   4.672   6.903   5.887  0.4563  0.0435  0.3004
 1599SOL    HW1 7751   4.765   6.894   5.903  0.5631  0.5199 -0.0181
 1599SOL    HW2 7752   4.650   6.831   5.829  0.0965 -1.5938  2.3588
 1600SOL     OW 7753   1.814   1.628   2.011  0.0090 -0.0115 -0.0457
 1600SOL    HW1 7754   1.889   1.610   1.954  0.6035  2.0150  0.0189
 1600SOL    HW2 7755   1.750   1.670   1.953  0.4794  1.7449  0.6373
 1601SOL     OW 7756   0.805   4.402   0.970  0.4614 -0.5750 -0.4487
 1601SOL    HW1 7757   0.718   4.366   0.954 -0.8911  1.5172  1.5846
 1601SOL    HW2 7758   0.807   4.484   0.920  0.7749 -0.0114  0.4540
 1602SOL     OW 7759   0.137   0.593   6.193  0.0729  0.1743 -0.0645
 1602SOL    HW1 7760   0.050   0.608   6.157  0.5044 -0.9418 -1.6688
 1602SOL    HW2 7761   0.185   0.547   6.124  1.7811  0.2916  0.9688
 1603SOL     OW 7762   0.587   6.939   0.511 -0.6843 -0.1092  0.1567
 1603SOL    HW1 7763   0.493   6.936   0.528 -0.8562 -0.8291 -0.7828
 1603SOL    HW2 7764   0.594   6.965   0.419 -0.0455 -1.5682 -0.2384
 1604SOL     OW 7765   5.343   6.237   6.852  0.6131 -0.3942 -0.0812
 1604SOL    HW1 7766   5.388   6.319   6.873  0.1037 -0.3181  0.7365
 1604SOL    HW2 7767   5.321   6.246   6.759  1.5623 -0.0959 -0.2947
 1605SOL     OW 7768   7.311   7.326   3.475  0.6389  0.1780  0.1030
 1605SOL    HW1 7769   7.313   7.231   3.465 -1.8342  0.1265 -0.3060
 1605SOL    HW2 7770   7.237   7.343   3.533 -0.2426  1.9486 -1.4285
 1606SOL     OW 7771   5.246   5.919   3.100  0.3832 -0.2520 -1.0428
 1606SOL    HW1 7772   5.251   5.829   3.133  1.0566 -0.8922 -2.7536
 1606SOL    HW2 7773   5.202   5.911   3.015 -0.2748  1.1509 -0.8577
 1607SOL     OW 7774   2.426   3.491   1.346 -0.0786  0.3558  0.7345
 1607SOL    HW1 7775   2.467   3.521   1.265 -0.8878 -0.5540 -0.0391
 1607SOL    HW2 7776   2.450   3.399   1.353 -2.3765 -0.3794 -0.0618
 1608SOL     OW 7777   4.785   5.184   2.444 -0.1679 -0.2321  0.1134
 1608SOL    HW1 7778   4.740   5.241   2.381  0.3695  1.5050  1.2089
 1608SOL    HW2 7779   4.725   5.180   2.518 -0.7008 -2.0824 -0.3792
 1609SOL     OW 7780   7.767   7.393   2.186 -0.7664 -0.0317  0.1356
 1609SOL    HW1 7781   7.769   7.415   2.093 -0.1329  0.7092  0.3116
 1609SOL    HW2 7782   7.676   7.407   2.213 -0.4659  2.1879  0.1696
 1610SOL     OW 7783   7.776   1.538   3.760 -0.3841  0.1937  0.7133
 1610SOL    HW1 7784   7.809   1.621   3.724  1.3688 -0.1423  1.4330
 1610SOL    HW2 7785   7.777   1.551   3.854 -2.5090  0.1887  0.7721
 1611SOL     OW 7786   3.798   2.020   0.779  0.5671 -0.4191 -0.1807
 1611SOL    HW1 7787   3.853   1.969   0.720  0.5765 -0.1373 -0.4197
 1611SOL    HW2 7788   3.721   2.042   0.727  0.9234  0.4925 -0.3533
 1612SOL     OW 7789   1.159   0.047   2.165 -0.1504 -0.9235 -0.2671
 1612SOL    HW1 7790   1.227  -0.014   2.193  0.9106  0.6029  0.6739
 1612SOL    HW2 7791   1.208   0.121   2.128 -1.1606  0.9355  1.9002
 1613SOL     OW 7792   6.942   3.971   4.279  0.0998  0.5113 -0.4649
 1613SOL    HW1 7793   7.004   3.900   4.294 -1.6949 -0.8425  0.8959
 1613SOL    HW2 7794   6.923   3.967   4.185  0.3430 -0.5300 -0.4767
 1614SOL     OW 7795   7.544   6.053   6.242 -0.1646  0.0651  0.0864
 1614SOL    HW1 7796   7.517   5.996   6.314  0.3937  0.3805  0.5474
 1614SOL    HW2 7797   7.500   6.136   6.259  0.4385  0.3277  0.4001
 1615SOL     OW 7798   1.530   0.620   7.801  0.0354 -0.0203 -0.4451
 1615SOL    HW1 7799   1.457   0.646   7.746 -0.2664  0.2057  0.0538
 1615SOL    HW2 7800   1.512   0.528   7.823 -0.1514  0.0630 -0.2449
 1616SOL     OW 7801   1.115   4.246   1.917  0.3189 -0.3258  0.1225
 1616SOL    HW1 7802   1.099   4.288   1.833  0.8258  0.7770  0.5629
 1616SOL    HW2 7803   1.188   4.295   1.955 -0.8132  0.1069  1.8281
 1617SOL     OW 7804   5.747   4.808   7.837 -0.1180 -0.2724 -0.3265
 1617SOL    HW1 7805   5.662   4.809   7.792 -0.4387 -2.1977  0.1470
 1617SOL    HW2 7806   5.729   4.763   7.920  1.2931 -0.3312 -0.0370
 1618SOL     OW 7807   5.515   7.597   4.014  0.0269  0.1855  0.1577
 1618SOL    HW1 7808   5.440   7.650   4.043  1.9047  2.4776  1.1110
 1618SOL    HW2 7809   5.477   7.511   3.997 -2.6849  1.0037  1.3954
 1619SOL     OW 7810   7.400   5.482   4.544 -0.4695 -0.0518 -0.3476
 1619SOL    HW1 7811   7.396   5.410   4.607  0.1183  1.1926  1.1969
 1619SOL    HW2 7812   7.438   5.555   4.594 -0.7418  1.2337 -1.9343
 1620SOL     OW 7813   0.223   2.448   7.657  0.9038 -0.6939  0.2183
 1620SOL    HW1 7814   0.132   2.427   7.634  0.3747  0.7030  0.9263
 1620SOL    HW2 7815   0.269   2.364   7.653  0.2020 -1.0578 -2.8207
 1621SOL     OW 7816   7.861   7.841   7.238 -0.1310  0.0106 -0.4352
 1621SOL    HW1 7817   7.917   7.766   7.223 -1.8745 -1.6621  0.8969
 1621SOL    HW2 7818   7.914   7.901   7.290  1.3346 -0.2095 -1.6327
 1622SOL     OW 7819   3.435   5.656   5.210  0.3467 -0.0419  0.1433
 1622SOL    HW1 7820   3.524   5.623   5.219  0.9408  0.7825 -2.0994
 1622SOL    HW2 7821   3.439   5.745   5.246  0.0036 -0.5383  1.4733
 1623SOL     OW 7822   2.408   4.688   3.481 -0.3208 -0.3015 -0.3127
 1623SOL    HW1 7823   2.354   4.717   3.554 -1.2138 -0.7572 -0.7792
 1623SOL    HW2 7824   2.498   4.706   3.509 -0.5890 -1.2340  1.2487
 1624SOL     OW 7825   4.270   3.760   5.188  0.0494  0.0627 -0.1572
 1624SOL    HW1 7826   4.306   3.786   5.104 -0.5742 -2.2094 -1.2097
 1624SOL    HW2 7827   4.177   3.781   5.182  0.1038  0.4056  0.1864
 1625SOL     OW 7828   2.208   7.620   1.900  0.1838 -0.0532  0.4030
 1625SOL    HW1 7829   2.231   7.679   1.828  1.4542 -0.8185  0.1616
 1625SOL    HW2 7830   2.164   7.677   1.963 -0.4262  0.7524 -0.7025
 1626SOL     OW 7831   3.991   7.079   0.953  0.0249 -0.0098 -0.6088
 1626SOL    HW1 7832   4.079   7.091   0.989  1.0114 -1.5040 -2.3616
 1626SOL    HW2 7833   3.972   7.161   0.909  0.8685  0.0707 -0.8502
 1627SOL     OW 7834   6.716   6.295   8.016  0.1387 -0.0936 -0.2968
 1627SOL    HW1 7835   6.771   6.227   8.055  0.1531  0.9692  1.6510
 1627SOL    HW2 7836   6.666   6.249   7.948 -0.0250 -2.1268  1.0962
 1628SOL     OW 7837   7.916   1.458   0.193 -0.4310 -0.5793  0.1182
 1628SOL    HW1 7838   7.923   1.487   0.283 -1.7777 -1.0477  0.4066
 1628SOL    HW2 7839   7.877   1.531   0.146 -3.5515 -1.6651  0.7865
 1629SOL     OW 7840   2.230   5.467   6.924 -0.0656 -0.3107 -0.3209
 1629SOL    HW1 7841   2.303   5.495   6.979 -2.6717  1.6631  2.5154
 1629SOL    HW2 7842   2.191   5.394   6.970  0.5227 -1.9624 -2.2832
 1630SOL     OW 7843   2.005   7.618   4.008 -0.4030  0.2350 -0.5490
 1630SOL    HW1 7844   2.047   7.585   3.929 -1.0145  1.0879 -1.2623
 1630SOL    HW2 7845   2.009   7.546   4.071 -1.6002 -1.1565 -1.9963
 1631SOL     OW 7846   2.333   2.110   0.520  0.2120  0.1499  0.3619
 1631SOL    HW1 7847   2.372   2.026   0.542  0.4931 -0.0730 -0.9141
 1631SOL    HW2 7848   2.401   2.157   0.472 -0.5761  0.3436 -0.6014
 1632SOL     OW 7849   6.786   0.419   1.868 -0.3868  0.4819 -0.0214
 1632SOL    HW1 7850   6.804   0.506   1.903  1.0044 -0.5042  1.9300
 1632SOL    HW2 7851   6.873   0.384   1.846 -0.6523 -1.1859  1.3203
 1633SOL     OW 7852   3.092   4.673   5.647 -0.0489  0.0277  0.0372
 1633SOL    HW1 7853   3.174   4.721   5.662  1.6972 -2.1244 -1.9179
 1633SOL    HW2 7854   3.043   4.684   5.728  1.8039  2.0832  0.9789
 1634SOL     OW 7855   0.359   6.458   0.177  0.3759 -0.1544  0.3205
 1634SOL    HW1 7856   0.439   6.451   0.125 -0.2206  0.7272 -0.7436
 1634SOL    HW2 7857   0.300   6.394   0.138  0.0641  0.2240  0.1726
 1635SOL     OW 7858   5.594   7.505   5.842  0.0533  0.0368 -0.3233
 1635SOL    HW1 7859   5.507   7.485   5.805 -0.7540  0.6598  1.1559
 1635SOL    HW2 7860   5.576   7.528   5.933  1.8249 -0.0776  0.0778
 1636SOL     OW 7861   6.440   2.584   7.141  0.9881  0.4441  0.2780
 1636SOL    HW1 7862   6.527   2.623   7.137  0.7639  0.8667 -1.5580
 1636SOL    HW2 7863   6.384   2.643   7.089 -0.4153  0.2086  1.4529
 1637SOL     OW 7864   3.618   0.669   5.871 -0.0389  0.4932 -0.5955
 1637SOL    HW1 7865   3.588   0.585   5.836  0.9234 -0.5528  0.9764
 1637SOL    HW2 7866   3.540   0.708   5.911 -0.2808 -0.1393 -0.4375
 1638SOL     OW 7867   3.249   4.612   5.156  0.1759 -0.1060 -0.3698
 1638SOL    HW1 7868   3.215   4.535   5.201 -1.2514  0.3888 -0.5404
 1638SOL    HW2 7869   3.277   4.671   5.226  0.3118 -0.3641 -0.2081
 1639SOL     OW 7870   4.701   1.727   4.983  0.0354 -0.3490  0.1011
 1639SOL    HW1 7871   4.690   1.684   4.898  3.2804  0.7628 -1.0742
 1639SOL    HW2 7872   4.660   1.813   4.972  0.2595 -0.2885 -0.2856
 1640SOL     OW 7873   6.317   3.749   5.818 -0.1721  0.4718  0.1819
 1640SOL    HW1 7874   6.376   3.824   5.823  0.3199  0.1539 -0.5582
 1640SOL    HW2 7875   6.366   3.677   5.856 -0.8080  0.6016  1.2956
 1641SOL     OW 7876   7.562   1.155   0.153 -0.3155  0.0129 -0.0270
 1641SOL    HW1 7877   7.493   1.111   0.104 -0.1913  0.0099 -0.1979
 1641SOL    HW2 7878   7.613   1.084   0.192  0.2058 -0.0145 -0.7381
 1642SOL     OW 7879   2.285   0.953   6.881 -0.4296 -0.1058 -0.1411
 1642SOL    HW1 7880   2.260   1.045   6.882  0.5381  0.1782 -0.7497
 1642SOL    HW2 7881   2.380   0.953   6.895 -0.2432 -0.9249 -1.1857
 1643SOL     OW 7882   4.108   1.985   7.185  0.5395  0.2362  0.5070
 1643SOL    HW1 7883   4.137   1.944   7.267  1.5006 -0.1599 -0.0059
 1643SOL    HW2 7884   4.018   2.012   7.202 -0.6740 -3.2600  0.4861
 1644SOL     OW 7885   0.081   2.397   6.754 -0.4541 -0.2497 -0.4632
 1644SOL    HW1 7886  -0.007   2.434   6.744 -0.4015  0.2171  0.7125
 1644SOL    HW2 7887   0.119   2.403   6.666 -0.6331  2.0205 -0.4388
 1645SOL     OW 7888   4.496   7.246   5.714  0.1360 -0.9387  0.2067
 1645SOL    HW1 7889   4.464   7.207   5.632 -1.1993 -1.3297  0.8904
 1645SOL    HW2 7890   4.423   7.237   5.775  0.7884  0.1637  1.1905
 1646SOL     OW 7891   6.454   6.001   3.566  0.0138 -0.4567 -0.8775
 1646SOL    HW1 7892   6.546   5.976   3.579  0.3774  0.2243 -1.9737
 1646SOL    HW2 7893   6.423   6.028   3.652  1.0645  0.0001 -0.6285
 1647SOL     OW 7894   3.276   2.946   4.469 -0.5285 -0.6519  0.9336
 1647SOL    HW1 7895   3.291   3.033   4.505  0.1321  0.2324 -1.2948
 1647SOL    HW2 7896   3.363   2.915   4.443 -1.1313 -0.0897 -2.1818
 1648SOL     OW 7897   4.194   5.334   7.719  0.6127 -0.0427  0.5173
 1648SOL    HW1 7898   4.279   5.378   7.722  0.2964  0.5560  1.0565
 1648SOL    HW2 7899   4.172   5.330   7.626  0.1071  2.0422  0.4877
 1649SOL     OW 7900   7.419   3.070   2.328  0.0694 -0.1662  0.0393
 1649SOL    HW1 7901   7.472   3.150   2.322 -0.8647  0.5742  1.3250
 1649SOL    HW2 7902   7.414   3.052   2.421  0.5365 -1.9493 -0.2493
 1650SOL     OW 7903   6.164   8.039   1.228 -0.1959  0.3727 -0.5672
 1650SOL    HW1 7904   6.114   7.963   1.198  2.1123 -1.6602  0.3922
 1650SOL    HW2 7905   6.247   8.033   1.181  0.7657  1.1627  0.9518
 1651SOL     OW 7906   2.324   3.705   5.235 -0.6606  0.4471 -0.0707
 1651SOL    HW1 7907   2.398   3.674   5.184  0.6745 -0.6774  2.4012
 1651SOL    HW2 7908   2.250   3.652   5.205  0.4493 -1.4033  0.3263
 1652SOL     OW 7909   3.252   6.599   6.630 -0.2317 -0.2702 -0.2389
 1652SOL    HW1 7910   3.167   6.568   6.599 -0.9859  0.4225  1.0759
 1652SOL    HW2 7911   3.267   6.681   6.582 -0.0638 -0.6360 -0.8252
 1653SOL     OW 7912   4.038   6.569   4.290  0.0659  0.9016  0.0439
 1653SOL    HW1 7913   3.962   6.515   4.269 -0.2765  1.1644  0.5711
 1653SOL    HW2 7914   4.024   6.594   4.381  1.0062  0.5913  0.2859
 1654SOL     OW 7915   6.372   2.064   4.839 -0.1270 -0.1192  0.0710
 1654SOL    HW1 7916   6.384   2.038   4.931  1.8701 -1.9040 -0.6026
 1654SOL    HW2 7917   6.392   2.157   4.838 -0.7704  0.0757  1.5218
 1655SOL     OW 7918   6.194   2.560   0.924 -0.1225 -0.3601  0.6359
 1655SOL    HW1 7919   6.248   2.509   0.864  1.5509  1.0218  0.8700
 1655SOL    HW2 7920   6.257   2.615   0.971 -1.4795 -0.6392  2.9084
 1656SOL     OW 7921   2.070   6.605   1.090 -0.0793 -0.3033 -0.1156
 1656SOL    HW1 7922   2.043   6.570   1.005 -0.5406  1.5119 -0.7702
 1656SOL    HW2 7923   2.024   6.689   1.097  0.5582 -0.0532  1.5859
 1657SOL     OW 7924   1.834   7.218   2.354  0.2562 -0.3311  0.3878
 1657SOL    HW1 7925   1.865   7.161   2.283  1.1539  0.9065 -0.2604
 1657SOL    HW2 7926   1.781   7.284   2.310  2.5148  1.6922  0.5058
 1658SOL     OW 7927   3.423   0.516   1.961 -0.1752  0.0111 -0.2153
 1658SOL    HW1 7928   3.379   0.581   2.015 -0.9304  0.5939 -1.4888
 1658SOL    HW2 7929   3.351   0.463   1.925  0.4349 -1.7310  1.0128
 1659SOL     OW 7930   4.351   2.823   3.645 -0.5447 -0.0066  0.5037
 1659SOL    HW1 7931   4.333   2.904   3.597  0.1334  0.4972  1.0754
 1659SOL    HW2 7932   4.368   2.851   3.735 -0.8241 -0.8425  0.8364
 1660SOL     OW 7933   1.867   2.136   8.064  0.0901  0.3320 -0.2063
 1660SOL    HW1 7934   1.928   2.176   8.002 -0.7889 -0.4801 -1.6532
 1660SOL    HW2 7935   1.798   2.098   8.009 -1.0614  0.1222  1.3138
 1661SOL     OW 7936   5.745   1.448   3.843 -0.1378 -0.4115 -0.1235
 1661SOL    HW1 7937   5.666   1.498   3.866 -0.0880  0.0999 -1.0130
 1661SOL    HW2 7938   5.807   1.469   3.913 -0.7605 -0.7754  0.5558
 1662SOL     OW 7939   1.231   7.336   0.673 -0.5048  0.0166  0.0085
 1662SOL    HW1 7940   1.215   7.252   0.716 -0.2025 -0.3119 -0.4964
 1662SOL    HW2 7941   1.240   7.313   0.580  0.0890  0.5422 -0.0696
 1663SOL     OW 7942   1.477   1.398   6.772 -0.3166 -0.4468 -0.9063
 1663SOL    HW1 7943   1.466   1.303   6.782 -0.3615 -0.4537 -1.0187
 1663SOL    HW2 7944   1.402   1.435   6.817  0.5029 -0.4118  0.4691
 1664SOL     OW 7945   3.726   3.598   0.217  0.1240  0.1307 -0.2195
 1664SOL    HW1 7946   3.799   3.565   0.165 -1.0240  0.8696 -2.4774
 1664SOL    HW2 7947   3.652   3.542   0.193 -0.4887  0.6376  0.4359
 1665SOL     OW 7948   7.957   5.658   6.282 -0.0494  0.1102  0.3998
 1665SOL    HW1 7949   7.864   5.636   6.274 -0.4847  1.9135  0.1301
 1665SOL    HW2 7950   8.002   5.578   6.256 -1.5109 -0.9349  0.9155
 1666SOL     OW 7951   4.792   7.417   2.125  0.3387  0.7721 -0.5522
 1666SOL    HW1 7952   4.741   7.336   2.125 -0.5192  1.2625 -2.2384
 1666SOL    HW2 7953   4.870   7.395   2.073 -0.0541  1.1075 -1.2920
 1667SOL     OW 7954   1.048   0.646   1.126  0.0668  0.4396 -0.4083
 1667SOL    HW1 7955   0.953   0.633   1.116 -0.0592  1.7271 -1.1403
 1667SOL    HW2 7956   1.058   0.740   1.141  1.4467  1.1578 -4.5057
 1668SOL     OW 7957   2.493   0.238   4.773 -0.3961 -0.3565  0.0648
 1668SOL    HW1 7958   2.400   0.258   4.784 -0.0605 -0.0455  3.4180
 1668SOL    HW2 7959   2.500   0.145   4.794  0.0571 -0.3880 -0.2084
 1669SOL     OW 7960   7.118   6.121   6.702 -0.0058 -0.0913  0.3458
 1669SOL    HW1 7961   7.095   6.071   6.623  0.9834 -0.5532  0.3346
 1669SOL    HW2 7962   7.170   6.194   6.669 -0.9344  0.6291  0.4265
 1670SOL     OW 7963   2.908   5.281   4.908 -0.1603 -0.2391  0.4180
 1670SOL    HW1 7964   2.983   5.268   4.849 -0.8689 -0.6426 -0.4292
 1670SOL    HW2 7965   2.900   5.197   4.953 -0.0179 -0.1491  0.6109
 1671SOL     OW 7966   1.429   3.056   4.107 -0.5524  0.0099 -0.3292
 1671SOL    HW1 7967   1.480   3.014   4.176  3.0326 -0.7730 -3.1264
 1671SOL    HW2 7968   1.429   3.149   4.130  0.8210 -0.1860  0.5768
 1672SOL     OW 7969   5.332   1.661   7.534 -0.0329 -0.2967 -0.5365
 1672SOL    HW1 7970   5.424   1.651   7.558 -0.2935  1.9219  1.8223
 1672SOL    HW2 7971   5.334   1.724   7.462  0.2802  0.3478  0.0205
 1673SOL     OW 7972   7.378   0.917   1.400 -0.0021  0.1612 -0.1337
 1673SOL    HW1 7973   7.433   0.861   1.455 -2.6146 -0.7232  1.8112
 1673SOL    HW2 7974   7.395   1.006   1.433 -0.0994 -0.1648  0.8485
 1674SOL     OW 7975   3.241   0.278   6.643  0.1824  0.0072 -0.1265
 1674SOL    HW1 7976   3.213   0.365   6.675  0.0544  0.2378 -0.8569
 1674SOL    HW2 7977   3.273   0.294   6.555  2.2827 -0.3280  0.5175
 1675SOL     OW 7978   1.397   4.905   4.580  0.1547  0.2487 -0.0206
 1675SOL    HW1 7979   1.415   4.863   4.664  1.6100  1.4838  0.3295
 1675SOL    HW2 7980   1.302   4.920   4.580  0.0663 -0.2335  1.1763
 1676SOL     OW 7981   4.067   4.548   1.573  0.0018 -0.2619 -0.1957
 1676SOL    HW1 7982   4.148   4.534   1.623 -0.8969  1.3597  1.8821
 1676SOL    HW2 7983   4.071   4.640   1.548 -1.6109  0.1049  0.7938
 1677SOL     OW 7984   7.456   1.349   7.189  0.9814 -0.2358  0.2698
 1677SOL    HW1 7985   7.406   1.330   7.110  1.1663  1.2141 -0.2312
 1677SOL    HW2 7986   7.524   1.281   7.192  0.6615 -0.5964 -0.5328
 1678SOL     OW 7987   8.050   1.058   2.264  0.2174  0.9336  0.0385
 1678SOL    HW1 7988   7.998   0.984   2.295  1.1844  0.1093 -0.2261
 1678SOL    HW2 7989   8.120   1.017   2.213  1.4029  1.9737  0.7926
 1679SOL     OW 7990   2.274   4.571   1.469 -0.0869 -0.1345  0.0968
 1679SOL    HW1 7991   2.199   4.528   1.427  0.8790  0.3263 -2.2105
 1679SOL    HW2 7992   2.255   4.565   1.563 -2.6617 -0.6530 -0.3829
 1680SOL     OW 7993   5.674   1.960   5.144 -0.8418  0.0427  0.1655
 1680SOL    HW1 7994   5.639   2.042   5.178 -1.1195 -0.7759  1.9739
 1680SOL    HW2 7995   5.686   1.905   5.221  0.8181 -1.0782 -0.8196
 1681SOL     OW 7996   0.558   7.622   5.813  0.5212 -0.3103 -0.1530
 1681SOL    HW1 7997   0.540   7.696   5.871  0.8202  0.0191 -0.4733
 1681SOL    HW2 7998   0.650   7.633   5.788  1.3716 -2.2042  1.8058
 1682SOL     OW 7999   2.163   7.000   3.631  0.7161 -0.1505  0.7201
 1682SOL    HW1 8000   2.214   7.000   3.712  0.6733  0.5014  0.7565
 1682SOL    HW2 8001   2.122   7.086   3.630 -1.3602 -1.0689  1.2969
 1683SOL     OW 8002   7.034   5.795   3.380 -0.6362  0.4227 -0.3224
 1683SOL    HW1 8003   6.996   5.836   3.458 -0.2874  0.0328  0.0568
 1683SOL    HW2 8004   7.064   5.709   3.410 -3.4656 -1.1582 -1.5891
 1684SOL     OW 8005   3.499   0.059   6.703 -0.5494  0.0962 -0.2528
 1684SOL    HW1 8006   3.556  -0.001   6.655  0.2954  1.2903 -0.7833
 1684SOL    HW2 8007   3.545   0.142   6.702 -0.8490  0.3488  2.0333
 1685SOL     OW 8008   7.387   0.304   5.629 -0.3039  0.1981 -0.2438
 1685SOL    HW1 8009   7.459   0.304   5.567 -1.0176  1.0710 -1.1117
 1685SOL    HW2 8010   7.328   0.236   5.597 -0.9819  1.0825 -0.9308
 1686SOL     OW 8011   2.423   2.026   5.932  0.1985 -0.2478 -0.2454
 1686SOL    HW1 8012   2.424   2.092   6.001 -1.1870 -1.5068  1.0653
 1686SOL    HW2 8013   2.342   2.043   5.883  0.2597 -0.4493 -0.4205
 1687SOL     OW 8014   2.097   2.070   4.013  0.5730  0.1887 -0.1653
 1687SOL    HW1 8015   2.132   2.129   4.079 -0.1915 -0.4982  0.8958
 1687SOL    HW2 8016   2.090   2.123   3.934  1.0583  1.1574  0.4223
 1688SOL     OW 8017   0.768   1.025   0.163 -0.3252  0.4436 -0.3460
 1688SOL    HW1 8018   0.685   0.985   0.138 -0.4010 -1.5215  2.5845
 1688SOL    HW2 8019   0.747   1.075   0.242  1.3943 -0.9748  1.0862
 1689SOL     OW 8020   5.981   3.373   0.660 -0.4678  0.3474  0.4556
 1689SOL    HW1 8021   6.055   3.381   0.600 -0.1638  0.1634  0.7968
 1689SOL    HW2 8022   6.015   3.319   0.732 -1.4598 -1.2308 -0.2142
 1690SOL     OW 8023   2.786   3.922   5.129  0.2869 -0.0589 -0.4172
 1690SOL    HW1 8024   2.786   3.831   5.098  1.0916  0.5026 -2.1409
 1690SOL    HW2 8025   2.703   3.931   5.177 -0.5757 -1.2353 -1.6291
 1691SOL     OW 8026   6.534   2.456   3.351 -0.2831  0.2603 -0.7393
 1691SOL    HW1 8027   6.544   2.392   3.280  0.8343 -0.2644 -0.1406
 1691SOL    HW2 8028   6.443   2.483   3.346 -0.5764 -0.7897 -1.5135
 1692SOL     OW 8029   5.432   0.138   4.457  0.4115  0.2245  0.6741
 1692SOL    HW1 8030   5.368   0.096   4.400  0.3021 -0.9851  1.6527
 1692SOL    HW2 8031   5.455   0.071   4.521  0.3792  1.6100  2.1893
 1693SOL     OW 8032   4.486   0.482   2.184 -0.4074 -0.0290  0.4080
 1693SOL    HW1 8033   4.472   0.525   2.099 -1.8755  1.1033  1.1675
 1693SOL    HW2 8034   4.555   0.534   2.226 -0.4175  0.0623  0.3139
 1694SOL     OW 8035   6.127   0.122   1.614  0.0383  0.0411 -0.1828
 1694SOL    HW1 8036   6.037   0.155   1.611  0.1000  0.1454 -2.1409
 1694SOL    HW2 8037   6.167   0.168   1.687 -1.1794  0.8807 -0.0162
 1695SOL     OW 8038   4.876   5.739   6.138  0.3886 -0.6198 -0.7069
 1695SOL    HW1 8039   4.808   5.736   6.071 -0.8724  1.3803  0.3764
 1695SOL    HW2 8040   4.847   5.678   6.205  0.1084 -0.4088 -0.6360
 1696SOL     OW 8041   7.955   1.047   6.467 -0.1262 -0.1538 -0.2136
 1696SOL    HW1 8042   7.983   1.137   6.482 -1.0167  0.0057  0.6023
 1696SOL    HW2 8043   7.939   1.013   6.555 -1.2890 -0.6169 -0.5940
 1697SOL     OW 8044   5.502   2.784   2.865 -0.5695  0.1690  0.1898
 1697SOL    HW1 8045   5.550   2.778   2.782 -1.7045 -0.9134 -0.4131
 1697SOL    HW2 8046   5.410   2.770   2.841 -0.8173 -1.1475  1.7384
 1698SOL     OW 8047   3.980   4.983   0.579  0.6107  0.1128 -0.0172
 1698SOL    HW1 8048   3.968   5.034   0.659  0.3220  0.6223 -0.3745
 1698SOL    HW2 8049   4.062   4.937   0.592 -0.7498 -1.9978  1.7235
 1699SOL     OW 8050   7.772   2.091   8.110  0.4130  0.1721  0.1953
 1699SOL    HW1 8051   7.728   2.121   8.189  1.8690 -1.7680  1.8512
 1699SOL    HW2 8052   7.706   2.041   8.063  0.2351 -0.9936  1.6181
 1700SOL     OW 8053   5.214   3.818   7.726  0.0558 -0.4306  0.7896
 1700SOL    HW1 8054   5.277   3.777   7.667 -0.4019 -0.2511  0.1664
 1700SOL    HW2 8055   5.233   3.912   7.720 -1.0152 -0.2587 -0.3132
 1701SOL     OW 8056   1.221   4.927   7.248  0.5303  0.0449  0.3636
 1701SOL    HW1 8057   1.152   4.992   7.257  0.2957  0.2014 -1.9644
 1701SOL    HW2 8058   1.181   4.845   7.277  0.1316  0.5531  1.2613
 1702SOL     OW 8059   2.299   3.205   3.814 -0.4095 -0.3366 -0.2921
 1702SOL    HW1 8060   2.328   3.134   3.872  0.4100  1.3702  1.4886
 1702SOL    HW2 8061   2.262   3.271   3.872 -1.0050  0.7967 -1.8824
 1703SOL     OW 8062   1.234   6.941   1.906 -0.0589 -0.2031  0.4427
 1703SOL    HW1 8063   1.215   6.906   1.993 -1.1580 -0.3183  0.1767
 1703SOL    HW2 8064   1.167   7.008   1.893 -1.7548 -2.1332 -1.4336
 1704SOL     OW 8065   5.822   4.953   1.826  0.1579  0.1400 -0.1136
 1704SOL    HW1 8066   5.802   5.038   1.787  0.9925 -0.0504 -1.0058
 1704SOL    HW2 8067   5.793   4.889   1.760 -0.2548 -0.2723  0.4493
 1705SOL     OW 8068   0.875   2.279   6.964  0.2506 -0.1959 -0.1487
 1705SOL    HW1 8069   0.780   2.281   6.961  0.2680 -0.1156 -0.6698
 1705SOL    HW2 8070   0.902   2.238   6.882  0.6282 -1.4174  0.5681
 1706SOL     OW 8071   2.474   5.133   6.235  0.4800 -0.2288 -0.5117
 1706SOL    HW1 8072   2.529   5.187   6.178 -0.0105 -0.0551 -0.8251
 1706SOL    HW2 8073   2.439   5.194   6.300 -0.5470 -0.0533 -1.2211
 1707SOL     OW 8074   6.659   1.453   7.075  0.3332  0.5633  0.1868
 1707SOL    HW1 8075   6.605   1.430   7.151 -0.2452  1.1320 -0.0337
 1707SOL    HW2 8076   6.629   1.541   7.051  2.1160  1.3637  0.7051
 1708SOL     OW 8077   0.239   7.810   7.365 -0.5410 -0.6804  0.2572
 1708SOL    HW1 8078   0.307   7.748   7.340 -0.3961 -0.0531 -0.9552
 1708SOL    HW2 8079   0.241   7.810   7.461  1.5364 -0.2655  0.2483
 1709SOL     OW 8080   6.130   7.153   3.686  0.2033  0.1598 -0.2271
 1709SOL    HW1 8081   6.065   7.187   3.748 -0.0376  1.1909 -1.0073
 1709SOL    HW2 8082   6.159   7.071   3.724  0.2313  0.8688  1.3636
 1710SOL     OW 8083   1.726   0.990   6.033 -0.2863  0.0972 -0.8759
 1710SOL    HW1 8084   1.786   1.044   6.085  0.7476 -0.1992 -1.7246
 1710SOL    HW2 8085   1.779   0.914   6.008 -1.5759 -1.0986 -0.0967
 1711SOL     OW 8086   2.861   1.057   6.940  0.5750 -0.2813  0.1515
 1711SOL    HW1 8087   2.781   1.108   6.925  0.3202 -0.3861  1.0597
 1711SOL    HW2 8088   2.830   0.967   6.954  0.9597 -0.5526 -0.6958
 1712SOL     OW 8089   4.152   5.019   6.289  0.3004 -1.2228 -0.0616
 1712SOL    HW1 8090   4.075   4.967   6.268  0.2035 -0.5708 -1.4526
 1712SOL    HW2 8091   4.217   4.955   6.318 -0.3990 -1.9013  0.0220
 1713SOL     OW 8092   4.232   0.765   3.627  0.4923 -0.0967  0.4071
 1713SOL    HW1 8093   4.288   0.729   3.696 -0.0051 -1.4746  0.1223
 1713SOL    HW2 8094   4.196   0.845   3.665  1.0617 -0.2601  1.3388
 1714SOL     OW 8095   6.919   0.828   1.207  0.1229  0.7901 -0.0806
 1714SOL    HW1 8096   6.880   0.741   1.206  0.7283  0.5148 -0.9451
 1714SOL    HW2 8097   6.858   0.882   1.155  1.8904 -0.1364 -3.3697
 1715SOL     OW 8098   3.218   0.302   0.487  0.4699  0.1241  0.0963
 1715SOL    HW1 8099   3.229   0.312   0.392  1.6778 -2.7676 -0.1511
 1715SOL    HW2 8100   3.131   0.263   0.498  0.6951 -0.3831  0.0965
 1716SOL     OW 8101   6.047   3.198   2.172  0.2301 -0.5216  0.2995
 1716SOL    HW1 8102   6.066   3.281   2.215 -1.2712  0.4339 -0.7572
 1716SOL    HW2 8103   5.991   3.222   2.097  0.1663 -2.4282 -0.3262
 1717SOL     OW 8104   3.245   3.392   1.394  0.5272 -0.5071  0.3084
 1717SOL    HW1 8105   3.248   3.331   1.320  0.7275 -1.2697  0.9365
 1717SOL    HW2 8106   3.299   3.351   1.461 -0.2279 -0.1690  1.1371
 1718SOL     OW 8107   4.679   3.791   4.184  0.3840 -0.7179  0.2188
 1718SOL    HW1 8108   4.658   3.706   4.222  2.0862 -0.6344  1.4500
 1718SOL    HW2 8109   4.727   3.837   4.252 -2.7791  2.3605  0.6487
 1719SOL     OW 8110   5.694   5.022   5.012 -0.7191 -0.1599  0.0997
 1719SOL    HW1 8111   5.660   5.109   5.031 -1.1726  0.0087 -1.3583
 1719SOL    HW2 8112   5.658   5.000   4.926 -0.2218 -1.5867  0.2242
 1720SOL     OW 8113   0.117   6.973   4.134 -0.1343 -0.3958  0.2066
 1720SOL    HW1 8114   0.025   6.962   4.158 -0.0687 -2.1133 -0.1708
 1720SOL    HW2 8115   0.115   6.993   4.040 -0.1363  0.3301  0.3535
 1721SOL     OW 8116   1.355   1.753   3.907  0.2289  0.1429 -0.7898
 1721SOL    HW1 8117   1.339   1.794   3.992  0.6546 -0.3552 -0.4629
 1721SOL    HW2 8118   1.403   1.819   3.858  2.4127 -0.5109  0.3216
 1722SOL     OW 8119   6.197   6.231   6.566 -0.0462  0.2625 -1.0030
 1722SOL    HW1 8120   6.223   6.233   6.473 -0.0364 -0.2258 -1.0137
 1722SOL    HW2 8121   6.188   6.138   6.586 -1.4201  0.4128 -0.8835
 1723SOL     OW 8122   1.125   6.175   8.116  0.3456  0.4719 -0.4140
 1723SOL    HW1 8123   1.178   6.207   8.043  0.5095  0.4516 -0.3028
 1723SOL    HW2 8124   1.087   6.254   8.154 -1.1163  0.3671 -1.5769
 1724SOL     OW 8125   0.949   0.363   3.390 -0.2286 -0.3050 -0.4842
 1724SOL    HW1 8126   0.980   0.445   3.428  2.0513 -1.2133 -0.2488
 1724SOL    HW2 8127   0.856   0.378   3.374  0.0377  2.1806 -0.0919
 1725SOL     OW 8128   4.130   4.424   2.112  0.1779 -0.2501  0.1318
 1725SOL    HW1 8129   4.083   4.380   2.184 -0.7621 -1.6798 -1.3017
 1725SOL    HW2 8130   4.097   4.513   2.114 -1.8489 -0.9522 -0.1547
 1726SOL     OW 8131   2.933   0.250   6.775 -0.0064  0.6751  0.0929
 1726SOL    HW1 8132   2.905   0.295   6.854  0.4285  0.0407  0.6205
 1726SOL    HW2 8133   2.998   0.308   6.735 -0.3119  1.0495  0.1383
 1727SOL     OW 8134   6.010   8.035   6.281  0.1680 -0.5267  0.2883
 1727SOL    HW1 8135   5.928   7.987   6.266  0.0900 -0.1156 -0.6735
 1727SOL    HW2 8136   6.015   8.097   6.208  0.6057  0.4713  1.1440
 1728SOL     OW 8137   1.251   4.442   7.900  0.5283 -0.1898 -0.0378
 1728SOL    HW1 8138   1.320   4.438   7.966  1.2037 -0.0327 -0.7153
 1728SOL    HW2 8139   1.275   4.518   7.846 -1.1892  1.0261  0.8256
 1729SOL     OW 8140   4.676   2.972   5.784  0.2432 -0.1043  0.5435
 1729SOL    HW1 8141   4.699   3.051   5.833 -1.2410 -0.0853  1.2684
 1729SOL    HW2 8142   4.659   2.906   5.851 -0.7532 -0.3923  0.0216
 1730SOL     OW 8143   2.866   7.323   8.003  0.2518  0.0226  0.3318
 1730SOL    HW1 8144   2.780   7.358   7.983  0.1399 -0.4846 -0.0914
 1730SOL    HW2 8145   2.921   7.401   8.016  0.3159  0.4324 -1.8704
 1731SOL     OW 8146   4.415   0.397   1.083  0.1763 -0.9383  0.2077
 1731SOL    HW1 8147   4.369   0.369   1.004  1.7325 -0.9991 -0.7177
 1731SOL    HW2 8148   4.438   0.489   1.066  0.4002 -0.9095  0.6579
 1732SOL     OW 8149   1.484   6.290   5.786  0.5829 -0.5558  0.4003
 1732SOL    HW1 8150   1.439   6.328   5.863 -0.1719 -0.7604  0.0732
 1732SOL    HW2 8151   1.540   6.221   5.822  1.3748  0.3356  0.9203
 1733SOL     OW 8152   6.305   7.333   3.133  0.0791 -0.0601  0.2144
 1733SOL    HW1 8153   6.242   7.308   3.200  0.7344 -0.9528  0.5084
 1733SOL    HW2 8154   6.259   7.397   3.079  0.0593  2.0238  2.5055
 1734SOL     OW 8155   1.013   4.028   3.928 -0.8201  0.1553  0.1291
 1734SOL    HW1 8156   1.087   4.080   3.898 -1.1501  0.0823 -0.8295
 1734SOL    HW2 8157   0.987   4.069   4.010 -0.0467  0.4937  0.2195
 1735SOL     OW 8158   6.302   6.056   7.315  0.4231 -0.7098 -0.1032
 1735SOL    HW1 8159   6.270   6.002   7.242  1.3392 -0.9249 -0.3506
 1735SOL    HW2 8160   6.332   6.137   7.274 -2.3641  0.7170  0.4048
 1736SOL     OW 8161   5.510   1.190   0.510 -0.0129 -0.4146  0.0927
 1736SOL    HW1 8162   5.523   1.284   0.518 -3.2368  0.1302  0.4998
 1736SOL    HW2 8163   5.529   1.170   0.418 -0.0382  0.7989 -0.1886
 1737SOL     OW 8164   1.582   0.419   0.048 -0.8973  0.2144  0.0884
 1737SOL    HW1 8165   1.586   0.499   0.100  0.2960  0.2057  0.0454
 1737SOL    HW2 8166   1.522   0.362   0.097 -0.8059  0.6854  0.7709
 1738SOL     OW 8167   0.103   8.125   0.394  0.1687 -0.0926  0.5679
 1738SOL    HW1 8168   0.169   8.185   0.428 -0.2474  1.2214 -0.8053
 1738SOL    HW2 8169   0.154   8.053   0.356  0.7509  0.2131  0.7489
 1739SOL     OW 8170   1.514   6.921   4.881  0.0862  0.1860 -0.1103
 1739SOL    HW1 8171   1.567   6.846   4.905 -0.7078 -0.0855  0.8921
 1739SOL    HW2 8172   1.571   6.997   4.897  0.3552 -0.1229  0.4286
 1740SOL     OW 8173   4.815   4.947   3.483  0.1716  0.0637  0.4077
 1740SOL    HW1 8174   4.869   4.895   3.543  0.6433  0.9502  0.7762
 1740SOL    HW2 8175   4.727   4.911   3.493  0.1797  0.3766  1.8768
 1741SOL     OW 8176   2.048   6.995   6.313  0.2121 -0.6540 -0.1160
 1741SOL    HW1 8177   2.028   7.057   6.383  1.0271 -0.8872  0.3321
 1741SOL    HW2 8178   2.131   7.024   6.277  0.6858 -1.5561  0.1995
 1742SOL     OW 8179   4.203   1.493   2.945 -0.1684  0.2456  0.3024
 1742SOL    HW1 8180   4.124   1.449   2.914 -0.5823  0.1116  1.4876
 1742SOL    HW2 8181   4.194   1.494   3.041  0.5137  1.6291  0.3787
 1743SOL     OW 8182   0.919   0.436   3.088 -0.3674 -0.4498  0.0277
 1743SOL    HW1 8183   0.917   0.486   3.169  0.8108  0.7692 -0.6506
 1743SOL    HW2 8184   0.887   0.496   3.021 -0.6830 -1.2106 -0.5278
 1744SOL     OW 8185   8.075   3.630   5.564 -0.3108  0.3689  0.6850
 1744SOL    HW1 8186   8.123   3.577   5.500 -0.6827  2.1649 -1.1678
 1744SOL    HW2 8187   7.984   3.601   5.556 -0.5618  1.4227 -0.5357
 1745SOL     OW 8188   4.549   3.245   3.903  0.7649  0.4207 -0.1600
 1745SOL    HW1 8189   4.618   3.179   3.900  0.2895 -0.0786 -0.2288
 1745SOL    HW2 8190   4.496   3.221   3.978  1.9845  2.1646  1.3627
 1746SOL     OW 8191   4.807   7.514   5.256 -0.3768  0.5605 -0.3909
 1746SOL    HW1 8192   4.897   7.530   5.285  0.0887  0.3847 -1.6797
 1746SOL    HW2 8193   4.774   7.601   5.232 -1.3233  0.9654  2.0661
 1747SOL     OW 8194   1.227   3.650   7.339 -0.2806 -0.0751  0.5483
 1747SOL    HW1 8195   1.282   3.592   7.393 -2.7831 -0.1819  3.2453
 1747SOL    HW2 8196   1.268   3.736   7.348  2.8244 -0.9876 -2.5803
 1748SOL     OW 8197   2.209   4.836   5.916  0.4084  0.8271 -0.0272
 1748SOL    HW1 8198   2.249   4.813   5.832  1.5491  0.4420  0.6023
 1748SOL    HW2 8199   2.236   4.927   5.930 -1.0057  1.3914 -0.7477
 1749SOL     OW 8200   0.562   5.821   3.370 -0.0239  0.4266  0.3110
 1749SOL    HW1 8201   0.604   5.747   3.327 -0.4726  0.2602  0.1550
 1749SOL    HW2 8202   0.633   5.867   3.414  0.7439  1.6318 -2.0758
 1750SOL     OW 8203   5.543   1.338   4.647  0.0479 -0.7362 -0.0918
 1750SOL    HW1 8204   5.604   1.302   4.583  1.5369 -0.5519  1.1706
 1750SOL    HW2 8205   5.578   1.425   4.666 -0.4781 -0.7251  0.8307
 1751SOL     OW 8206   4.004   7.484   6.377 -0.0153  0.3048 -0.0964
 1751SOL    HW1 8207   3.928   7.499   6.321 -0.2075  2.9443  0.7352
 1751SOL    HW2 8208   4.075   7.532   6.335 -0.3957  3.2491  2.2094
 1752SOL     OW 8209   4.142   4.692   4.576  0.2405 -0.1855  0.4135
 1752SOL    HW1 8210   4.213   4.703   4.513  0.6911  0.9571  1.0950
 1752SOL    HW2 8211   4.063   4.685   4.522  0.6693  0.3292 -0.2881
 1753SOL     OW 8212   0.886   2.448   1.494 -0.0013  0.3451  0.3325
 1753SOL    HW1 8213   0.803   2.495   1.505 -1.0013 -0.9918 -1.0659
 1753SOL    HW2 8214   0.928   2.492   1.420  0.6365  1.1051  1.1220
 1754SOL     OW 8215   6.705   1.805   1.738 -0.1537  0.4424  0.1209
 1754SOL    HW1 8216   6.714   1.879   1.798 -1.1987 -0.0820  0.9559
 1754SOL    HW2 8217   6.675   1.733   1.794  3.4322 -1.4258 -0.1067
 1755SOL     OW 8218   4.134   5.049   0.141  0.0802 -0.3776  0.2025
 1755SOL    HW1 8219   4.109   4.974   0.086  0.4068 -0.2947 -0.0654
 1755SOL    HW2 8220   4.205   5.015   0.196  1.5653  0.2260 -1.2425
 1756SOL     OW 8221   0.340   1.400   6.977 -0.1577 -0.7111  0.3930
 1756SOL    HW1 8222   0.387   1.368   7.054  0.0348  0.5812  0.8487
 1756SOL    HW2 8223   0.283   1.469   7.011  0.4754  0.3951 -0.7055
 1757SOL     OW 8224   8.081   5.009   3.234 -0.0258  0.5156 -0.1144
 1757SOL    HW1 8225   8.028   5.071   3.285 -0.5561  0.0274 -0.0770
 1757SOL    HW2 8226   8.080   5.044   3.145  1.6743  1.8996  0.3434
 1758SOL     OW 8227   6.782   2.316   5.528  0.7546 -0.1130  0.0319
 1758SOL    HW1 8228   6.767   2.294   5.620  0.4882 -0.4772 -0.0952
 1758SOL    HW2 8229   6.716   2.266   5.481  2.3520 -1.7414 -0.5569
 1759SOL     OW 8230   1.716   5.297   1.810 -0.2389 -0.0756 -0.0711
 1759SOL    HW1 8231   1.641   5.258   1.766 -1.8950  0.9040  1.6884
 1759SOL    HW2 8232   1.684   5.314   1.899  2.2668 -0.1170  0.8998
 1760SOL     OW 8233   0.810   1.408   3.223  0.2383 -0.5874 -0.7615
 1760SOL    HW1 8234   0.745   1.478   3.231 -1.0453 -1.4928 -2.6025
 1760SOL    HW2 8235   0.890   1.445   3.260 -1.3112  0.5191  1.7383
 1761SOL     OW 8236   6.430   0.806   3.727  0.1697 -0.1469  0.4809
 1761SOL    HW1 8237   6.448   0.887   3.775  0.2946 -0.4275  0.9060
 1761SOL    HW2 8238   6.363   0.831   3.663  1.7555  0.8163 -0.8620
 1762SOL     OW 8239   3.363   7.777   5.980  0.2259  0.2425  0.1689
 1762SOL    HW1 8240   3.335   7.866   5.961 -0.5189 -0.0674 -0.2475
 1762SOL    HW2 8241   3.332   7.726   5.905  1.0894 -0.2785  0.1603
 1763SOL     OW 8242   5.279   3.857   4.556 -0.4606  1.2000 -0.5746
 1763SOL    HW1 8243   5.258   3.908   4.634  0.8299 -0.0826  0.6577
 1763SOL    HW2 8244   5.373   3.841   4.562 -0.3628  0.8944 -2.3064
 1764SOL     OW 8245   5.847   5.820   4.548 -0.2521 -0.2132  0.1007
 1764SOL    HW1 8246   5.888   5.751   4.496 -0.3888  0.3192 -0.7464
 1764SOL    HW2 8247   5.842   5.784   4.637  0.0348 -1.1298 -0.2395
 1765SOL     OW 8248   1.636   1.941   7.238  0.1583 -0.0777  0.3085
 1765SOL    HW1 8249   1.565   1.924   7.300 -0.3565 -0.1240 -0.2828
 1765SOL    HW2 8250   1.710   1.890   7.272 -0.6983 -1.7357 -0.1794
 1766SOL     OW 8251   1.339   3.075   4.452 -0.0258  0.1355 -0.0050
 1766SOL    HW1 8252   1.308   3.019   4.381 -3.7017  0.9884  0.7175
 1766SOL    HW2 8253   1.312   3.030   4.532  2.4107  0.0905  0.8620
 1767SOL     OW 8254   5.127   7.862   3.634  0.5367  0.3546 -0.0578
 1767SOL    HW1 8255   5.157   7.776   3.664  0.0125  0.4623  0.8270
 1767SOL    HW2 8256   5.188   7.887   3.565  0.0455 -1.2344 -1.1343
 1768SOL     OW 8257   0.199   3.117   6.066 -0.2561 -0.9685 -0.2204
 1768SOL    HW1 8258   0.236   3.147   5.982 -1.6614 -1.6452 -1.1166
 1768SOL    HW2 8259   0.248   3.038   6.087  1.0645 -0.0338  0.3516
 1769SOL     OW 8260   6.183   7.606   4.523  0.4756 -0.3537 -0.6838
 1769SOL    HW1 8261   6.093   7.614   4.493  0.5984 -1.5250 -1.4573
 1769SOL    HW2 8262   6.177   7.556   4.605  0.4233 -0.4491 -0.7464
 1770SOL     OW 8263   0.342   0.088   1.456  0.1837  0.3253 -0.1582
 1770SOL    HW1 8264   0.290   0.022   1.501  1.0975 -1.1170 -1.1608
 1770SOL    HW2 8265   0.357   0.052   1.368  1.3403  1.5248 -0.4855
 1771SOL     OW 8266   3.825   6.764   7.180 -0.4260 -0.2049  0.0164
 1771SOL    HW1 8267   3.814   6.709   7.103  1.3475 -1.8611  0.8535
 1771SOL    HW2 8268   3.739   6.805   7.193 -1.2289 -1.1880 -1.8400
 1772SOL     OW 8269   3.738   4.666   8.004 -0.5198  0.4359 -0.1796
 1772SOL    HW1 8270   3.653   4.650   8.045  0.1163  0.2676  1.1415
 1772SOL    HW2 8271   3.802   4.645   8.073  0.7528 -2.5285 -2.0647
 1773SOL     OW 8272   7.477   0.649   4.687 -0.7878  0.6588 -0.1141
 1773SOL    HW1 8273   7.526   0.591   4.745 -0.5751  0.9137 -0.0339
 1773SOL    HW2 8274   7.463   0.599   4.607 -1.0471  0.3193  0.1420
 1774SOL     OW 8275   1.372   0.328   1.285 -0.7281  0.0232 -0.0394
 1774SOL    HW1 8276   1.407   0.299   1.201  0.2539 -2.2231  1.0621
 1774SOL    HW2 8277   1.436   0.391   1.318 -0.2158 -0.3993 -0.2151
 1775SOL     OW 8278   2.463   5.453   0.817  0.0002  0.5032 -0.4999
 1775SOL    HW1 8279   2.523   5.382   0.841  0.9663  1.3880 -0.2018
 1775SOL    HW2 8280   2.389   5.442   0.876  0.2971 -0.0588 -0.2168
 1776SOL     OW 8281   1.325   6.184   0.186  0.5842 -0.6640  0.8929
 1776SOL    HW1 8282   1.294   6.156   0.272 -1.1729  0.2661  0.6121
 1776SOL    HW2 8283   1.248   6.178   0.130  1.5623 -0.7398 -0.5056
 1777SOL     OW 8284   3.908   4.230   5.379 -0.2051  0.1968  0.2408
 1777SOL    HW1 8285   3.969   4.159   5.398 -0.4117 -0.2540 -0.7123
 1777SOL    HW2 8286   3.886   4.219   5.286 -2.5497 -0.3080  0.7796
 1778SOL     OW 8287   0.543   0.304   6.153  0.1613  0.1776 -0.3394
 1778SOL    HW1 8288   0.633   0.297   6.184  0.4131 -1.5218 -1.3215
 1778SOL    HW2 8289   0.494   0.244   6.209  0.3676 -1.7965 -2.1214
 1779SOL     OW 8290   1.245   1.304   3.117  0.1485  0.2443  0.2617
 1779SOL    HW1 8291   1.270   1.344   3.200 -2.2778 -0.1264  1.2673
 1779SOL    HW2 8292   1.326   1.269   3.082  1.2723  0.4481  2.4694
 1780SOL     OW 8293   5.469   5.287   5.852  0.1335  0.3991 -0.1656
 1780SOL    HW1 8294   5.514   5.329   5.926  1.1027  0.6088 -0.8642
 1780SOL    HW2 8295   5.381   5.267   5.886  0.3427  1.1005  0.8294
 1781SOL     OW 8296   7.064   2.754   2.883  0.3771 -0.7784  0.7202
 1781SOL    HW1 8297   7.027   2.722   2.801 -2.0513  0.0578  1.4094
 1781SOL    HW2 8298   7.042   2.686   2.947  0.1892 -0.3553  1.1089
 1782SOL     OW 8299   5.437   5.050   7.170 -0.2408 -0.7350 -0.0415
 1782SOL    HW1 8300   5.384   5.098   7.233 -1.3302  0.0651 -1.4857
 1782SOL    HW2 8301   5.382   5.047   7.091  1.4381 -0.8175 -1.2526
 1783SOL     OW 8302   0.017   3.130   1.210 -0.1613 -0.6666 -0.1788
 1783SOL    HW1 8303   0.103   3.169   1.226 -0.2879  0.2384 -1.4924
 1783SOL    HW2 8304  -0.014   3.103   1.296 -0.1820  2.4601  0.9212
 1784SOL     OW 8305   7.212   6.074   2.757 -0.3384  0.0349  0.1624
 1784SOL    HW1 8306   7.174   6.084   2.844  1.2493 -0.9052  1.0336
 1784SOL    HW2 8307   7.291   6.129   2.759  0.3653 -0.9201 -0.2177
 1785SOL     OW 8308   2.801   5.232   3.734 -0.1908 -0.5944  0.1916
 1785SOL    HW1 8309   2.833   5.320   3.751 -0.9421 -0.1627 -0.5790
 1785SOL    HW2 8310   2.860   5.197   3.667 -0.0949 -0.5610  0.2582
 1786SOL     OW 8311   7.747   2.968   6.688  0.8245 -0.9276  0.4114
 1786SOL    HW1 8312   7.718   2.884   6.653  2.6445 -1.0510 -0.9723
 1786SOL    HW2 8313   7.739   2.959   6.783  2.0854 -3.1353  0.3779
 1787SOL     OW 8314   5.538   6.636   0.135  0.0088  0.2579 -0.5693
 1787SOL    HW1 8315   5.493   6.652   0.217  0.1151 -0.9272 -0.2634
 1787SOL    HW2 8316   5.481   6.674   0.068  0.0580  1.4864  0.0576
 1788SOL     OW 8317   0.825   1.545   6.652  0.3142 -0.2986  0.5238
 1788SOL    HW1 8318   0.847   1.479   6.717 -1.7023  0.2569  1.8703
 1788SOL    HW2 8319   0.868   1.625   6.682  0.0528 -0.2389  0.7483
 1789SOL     OW 8320   0.065   3.406   3.849  0.3154  0.0732 -0.2787
 1789SOL    HW1 8321   0.086   3.387   3.757  0.3755  1.5780 -0.6020
 1789SOL    HW2 8322   0.112   3.487   3.868 -1.6410  1.1315  0.3373
 1790SOL     OW 8323   2.674   4.353   5.157  0.2642 -0.0496  0.3741
 1790SOL    HW1 8324   2.701   4.378   5.245  1.3893 -0.5853  0.2015
 1790SOL    HW2 8325   2.592   4.400   5.142  1.0639  1.6008  0.9584
 1791SOL     OW 8326   4.555   5.041   4.323  0.1620  0.0366 -0.7619
 1791SOL    HW1 8327   4.471   5.007   4.293  0.0021  1.2808 -1.7988
 1791SOL    HW2 8328   4.566   5.124   4.277  1.3369  0.5574  0.3702
 1792SOL     OW 8329   6.186   2.510   3.797 -0.4170  0.4286  0.1266
 1792SOL    HW1 8330   6.255   2.443   3.793  0.0284  0.9229 -1.7731
 1792SOL    HW2 8331   6.214   2.569   3.867 -0.0807 -0.5943  0.8708
 1793SOL     OW 8332   3.193   2.402   5.325  0.1377  0.5862 -0.0606
 1793SOL    HW1 8333   3.198   2.350   5.405 -1.3785  0.5789  0.0539
 1793SOL    HW2 8334   3.100   2.411   5.308  0.3835  2.4336 -0.6300
 1794SOL     OW 8335   2.736   6.051   0.086 -0.0332  0.0496 -0.0283
 1794SOL    HW1 8336   2.727   5.997   0.165  0.0899  1.5705  1.0559
 1794SOL    HW2 8337   2.715   5.991   0.014  0.8501 -1.6351  1.0643
 1795SOL     OW 8338   7.719   1.356   5.224 -0.4555 -0.2630  0.3452
 1795SOL    HW1 8339   7.625   1.373   5.217 -0.2780  0.2173 -1.2736
 1795SOL    HW2 8340   7.725   1.277   5.278 -1.7287  0.2351  1.2463
 1796SOL     OW 8341   3.166   0.763   6.614 -0.3449 -0.4144 -0.6666
 1796SOL    HW1 8342   3.212   0.817   6.678  0.3941 -0.8258 -0.8405
 1796SOL    HW2 8343   3.140   0.825   6.545 -0.3973 -0.1121 -0.3746
 1797SOL     OW 8344   3.013   5.081   7.960 -0.1314  0.3159 -0.1771
 1797SOL    HW1 8345   3.021   5.001   8.012  0.2000 -0.0191 -0.7395
 1797SOL    HW2 8346   2.944   5.131   8.004  0.5379  0.3047  0.9313
 1798SOL     OW 8347   2.518   6.285   7.813 -0.0427 -0.0795 -0.3781
 1798SOL    HW1 8348   2.545   6.216   7.753 -0.5899 -0.3651 -0.3040
 1798SOL    HW2 8349   2.576   6.277   7.888  0.2739 -0.0828 -0.6203
 1799SOL     OW 8350   4.645   3.968   3.404 -0.2345 -0.0607  0.4215
 1799SOL    HW1 8351   4.700   3.954   3.327 -0.1637 -0.9235  0.6155
 1799SOL    HW2 8352   4.558   3.940   3.377 -0.0842 -0.9601  0.8312
 1800SOL     OW 8353   2.379   0.892   4.756  0.3951  0.3316 -0.2428
 1800SOL    HW1 8354   2.294   0.869   4.720  0.8195 -0.2873 -0.8969
 1800SOL    HW2 8355   2.440   0.877   4.683  0.9606  1.5143 -0.0271
 1801SOL     OW 8356   1.089   1.598   1.871 -0.3627  0.3695  0.1068
 1801SOL    HW1 8357   1.088   1.506   1.897  2.5863  0.3461  0.3831
 1801SOL    HW2 8358   1.009   1.609   1.819 -0.0290 -2.7161 -1.2093
 1802SOL     OW 8359   1.094   0.861   3.586 -0.4823 -0.4854 -0.0140
 1802SOL    HW1 8360   1.141   0.823   3.660 -0.7525  0.9464  0.9178
 1802SOL    HW2 8361   1.158   0.918   3.543 -0.6109 -0.5690 -0.3236
 1803SOL     OW 8362   2.693   5.539   1.791  0.2596 -0.5790  0.2505
 1803SOL    HW1 8363   2.599   5.549   1.808  0.3179 -1.4075  1.1378
 1803SOL    HW2 8364   2.698   5.520   1.697 -0.3216  1.0942 -0.1410
 1804SOL     OW 8365   3.137   7.474   3.283 -0.0707 -0.4432  0.9180
 1804SOL    HW1 8366   3.210   7.454   3.342 -0.2391 -0.0638  1.2638
 1804SOL    HW2 8367   3.092   7.548   3.325 -1.8995 -1.9794  1.7889
 1805SOL     OW 8368   3.536   1.183   0.991 -0.4176 -0.7886  0.1625
 1805SOL    HW1 8369   3.525   1.108   0.932  0.3601 -1.0756  0.3816
 1805SOL    HW2 8370   3.600   1.154   1.055 -0.4347 -0.0813  0.5038
 1806SOL     OW 8371   6.852   2.123   1.347  0.3634  0.6969 -0.0423
 1806SOL    HW1 8372   6.821   2.110   1.257  0.4484 -1.9438  0.2292
 1806SOL    HW2 8373   6.774   2.110   1.401  0.9882 -1.5929  0.4101
 1807SOL     OW 8374   5.138   7.375   3.183  0.3207  0.1010  0.0872
 1807SOL    HW1 8375   5.091   7.432   3.244  0.0614 -0.0053 -0.0098
 1807SOL    HW2 8376   5.166   7.433   3.112  0.2486  0.1461  0.0957
 1808SOL     OW 8377   1.184   7.797   2.740 -0.3194 -0.7419 -0.5544
 1808SOL    HW1 8378   1.108   7.805   2.798 -0.3026  0.3454 -0.6584
 1808SOL    HW2 8379   1.170   7.864   2.672  0.8043 -0.3935 -0.4722
 1809SOL     OW 8380   6.651   5.717   5.606  0.0987 -0.0034  0.0236
 1809SOL    HW1 8381   6.737   5.688   5.636  0.3930  1.0459  0.2210
 1809SOL    HW2 8382   6.601   5.636   5.597  0.6726 -0.5272  1.2556
 1810SOL     OW 8383   1.981   5.399   4.960  0.3976 -0.0967  0.2461
 1810SOL    HW1 8384   1.932   5.470   5.002 -0.7499 -0.0442 -1.1181
 1810SOL    HW2 8385   2.004   5.340   5.032 -0.1528  0.7698  1.1549
 1811SOL     OW 8386   3.421   2.417   2.648  0.3368 -0.0885 -0.1763
 1811SOL    HW1 8387   3.483   2.448   2.715  0.9258 -0.5242 -0.5067
 1811SOL    HW2 8388   3.462   2.338   2.612  0.9643  1.1372 -2.3375
 1812SOL     OW 8389   3.094   7.590   7.771  0.1113 -0.1971 -0.0683
 1812SOL    HW1 8390   3.159   7.650   7.810 -1.0122  0.4792  0.8200
 1812SOL    HW2 8391   3.141   7.548   7.699  1.4084  0.6001  0.2745
 1813SOL     OW 8392   0.547   7.492   5.439 -0.1731 -0.5238 -0.6245
 1813SOL    HW1 8393   0.547   7.396   5.442  0.4551 -0.5499 -1.0456
 1813SOL    HW2 8394   0.640   7.515   5.448 -0.3707  0.0596 -0.1045
 1814SOL     OW 8395   0.795   2.890   7.272  1.1791 -0.3448 -0.1329
 1814SOL    HW1 8396   0.744   2.842   7.338  1.0020  2.5845  2.0338
 1814SOL    HW2 8397   0.882   2.850   7.275  0.5716 -1.6957  0.2233
 1815SOL     OW 8398   4.092   3.872   3.821 -0.0575 -0.3398  0.2192
 1815SOL    HW1 8399   4.146   3.825   3.885  0.0573 -0.1049  0.2972
 1815SOL    HW2 8400   4.002   3.854   3.848 -0.0076 -0.2009  0.4776
 1816SOL     OW 8401   6.456   0.074   3.891 -0.2728 -0.1034 -0.2327
 1816SOL    HW1 8402   6.394   0.065   3.963 -0.3514 -0.2559 -0.3207
 1816SOL    HW2 8403   6.402   0.069   3.812 -0.1007 -0.6111 -0.3181
 1817SOL     OW 8404   6.012   0.015   4.141 -0.1782 -0.0491  1.0073
 1817SOL    HW1 8405   6.026   0.068   4.219  0.4252 -0.5655  1.2558
 1817SOL    HW2 8406   5.933  -0.036   4.159 -0.0884 -0.1032  1.2404
 1818SOL     OW 8407   7.395   0.678   5.056  0.9575 -0.5719 -0.2129
 1818SOL    HW1 8408   7.484   0.703   5.030  0.2511  0.8427 -1.4273
 1818SOL    HW2 8409   7.352   0.761   5.077 -0.3363 -1.1427 -0.5090
 1819SOL     OW 8410   0.913   7.333   6.011  0.7025  0.3208 -0.3686
 1819SOL    HW1 8411   0.891   7.407   6.068 -0.2855  0.5405 -1.0147
 1819SOL    HW2 8412   0.964   7.275   6.067 -0.7118  0.2638  0.9364
 1820SOL     OW 8413   2.121   1.145   5.507 -0.4529 -0.5288  0.1220
 1820SOL    HW1 8414   2.119   1.122   5.600 -0.1050  1.0260  0.5401
 1820SOL    HW2 8415   2.103   1.239   5.505 -0.3541 -0.5165 -1.3795
 1821SOL     OW 8416   3.672   5.658   6.655  0.0683  0.3269 -0.1619
 1821SOL    HW1 8417   3.757   5.629   6.621  0.1239 -0.2274  0.4298
 1821SOL    HW2 8418   3.672   5.753   6.642  1.3323  0.5193  1.0225
 1822SOL     OW 8419   3.431   4.676   4.310 -0.3792  0.1908 -0.3687
 1822SOL    HW1 8420   3.347   4.634   4.330 -0.7203  0.9325 -0.2036
 1822SOL    HW2 8421   3.456   4.718   4.391 -0.5759  1.2009 -0.8202
 1823SOL     OW 8422   3.094   2.941   1.282 -0.0880 -0.1267  0.3142
 1823SOL    HW1 8423   3.051   2.884   1.218  2.6244 -1.7492 -0.2501
 1823SOL    HW2 8424   3.111   2.884   1.357  0.6126  0.5689  0.6985
 1824SOL     OW 8425   5.569   2.953   3.662  0.7349 -0.6421  0.0722
 1824SOL    HW1 8426   5.639   2.988   3.717  1.3315 -1.5106 -0.1138
 1824SOL    HW2 8427   5.488   2.985   3.702  1.2140 -0.1293  0.6409
 1825SOL     OW 8428   3.464   2.857   5.069 -0.2058 -0.3142  0.4030
 1825SOL    HW1 8429   3.431   2.947   5.065  0.8031  0.0409 -1.2019
 1825SOL    HW2 8430   3.541   2.862   5.125 -0.3958 -0.2655  0.6600
 1826SOL     OW 8431   5.027   3.995   4.573 -0.0689 -0.0358 -0.2647
 1826SOL    HW1 8432   5.075   4.046   4.639 -1.2634 -0.6192  1.1117
 1826SOL    HW2 8433   5.093   3.937   4.535  0.2865 -1.2200  1.9908
 1827SOL     OW 8434   5.933   6.113   1.236 -0.5053  0.3262 -0.1176
 1827SOL    HW1 8435   5.904   6.121   1.327  1.3234 -2.0464  0.7777
 1827SOL    HW2 8436   5.971   6.025   1.230  1.0436  1.0518 -2.6881
 1828SOL     OW 8437   2.494   1.710   5.457  0.0473  0.6441 -0.5217
 1828SOL    HW1 8438   2.399   1.706   5.468  0.1221 -0.3667 -0.1463
 1828SOL    HW2 8439   2.525   1.623   5.482  1.0727  0.9503 -0.6724
 1829SOL     OW 8440   3.327   4.351   4.627 -0.1428  0.1924  0.2271
 1829SOL    HW1 8441   3.266   4.353   4.553  0.0945  1.8529  0.0465
 1829SOL    HW2 8442   3.413   4.341   4.586 -0.1435 -0.6003  0.3972
 1830SOL     OW 8443   2.025   7.633   4.486  0.3507  0.0701  0.3442
 1830SOL    HW1 8444   2.021   7.601   4.575  1.0751 -1.5160 -0.1666
 1830SOL    HW2 8445   2.097   7.697   4.486  0.3027  0.1260  0.8921
 1831SOL     OW 8446   3.189   7.916   7.472  0.1752 -0.6052 -0.2197
 1831SOL    HW1 8447   3.227   7.982   7.413 -0.0293  0.1159  0.4351
 1831SOL    HW2 8448   3.192   7.835   7.422  1.3837 -0.3163 -0.6709
 1832SOL     OW 8449   4.922   6.426   0.389 -0.3668 -0.0592  0.1985
 1832SOL    HW1 8450   4.982   6.369   0.436 -0.3047 -1.2935 -1.3089
 1832SOL    HW2 8451   4.873   6.367   0.331 -0.0027  1.4511 -1.7367
 1833SOL     OW 8452   7.538   2.073   4.838 -0.4190  0.0619 -0.3581
 1833SOL    HW1 8453   7.527   2.167   4.852 -0.7520 -0.2775  2.0784
 1833SOL    HW2 8454   7.449   2.038   4.834 -0.3682 -0.4437  1.5887
 1834SOL     OW 8455   5.687   5.794   7.267  0.1033 -0.1245 -0.7569
 1834SOL    HW1 8456   5.693   5.699   7.260 -1.1817 -0.2703 -0.2745
 1834SOL    HW2 8457   5.777   5.824   7.275  0.4530 -1.4337  0.6572
 1835SOL     OW 8458   4.361   1.518   2.081 -0.2068 -0.7610 -0.2285
 1835SOL    HW1 8459   4.391   1.471   2.159  0.2384 -1.3620 -0.7512
 1835SOL    HW2 8460   4.361   1.452   2.012  2.1849  0.3725 -1.4326
 1836SOL     OW 8461   6.940   5.921   7.004  0.0699  0.6976 -0.3103
 1836SOL    HW1 8462   6.875   5.931   6.935  0.9562 -1.0212 -1.4806
 1836SOL    HW2 8463   6.975   6.009   7.018  0.0141  1.0588 -2.2268
 1837SOL     OW 8464   3.114   3.691   6.865  0.0060 -0.0682  0.2882
 1837SOL    HW1 8465   3.190   3.727   6.912 -0.1975 -0.0643  0.6127
 1837SOL    HW2 8466   3.048   3.679   6.932  0.0735 -1.0638  0.1879
 1838SOL     OW 8467   0.429   6.871   8.102 -0.7025 -0.0327 -0.2393
 1838SOL    HW1 8468   0.432   6.917   8.018  0.9149  0.4530  0.0542
 1838SOL    HW2 8469   0.387   6.788   8.081 -0.9448  0.3495 -1.3919
 1839SOL     OW 8470   1.380   2.323   4.150  0.4048  0.6127 -0.9125
 1839SOL    HW1 8471   1.343   2.245   4.192  0.0559  1.1177 -0.2577
 1839SOL    HW2 8472   1.399   2.296   4.061  0.8030 -0.3841 -0.5330
 1840SOL     OW 8473   3.123   0.614   3.372  0.1621 -0.2873  0.3632
 1840SOL    HW1 8474   3.079   0.550   3.429 -0.2000  0.2940  0.7400
 1840SOL    HW2 8475   3.108   0.698   3.415  2.8293 -0.1857  1.2601
 1841SOL     OW 8476   1.190   7.582   7.722  0.0204 -0.4327 -0.0184
 1841SOL    HW1 8477   1.178   7.580   7.817 -0.7414  1.6041 -0.0323
 1841SOL    HW2 8478   1.102   7.577   7.686  0.3123 -1.3722 -0.6631
 1842SOL     OW 8479   3.567   4.957   2.135 -0.0548 -0.0889  0.6511
 1842SOL    HW1 8480   3.644   4.913   2.171 -0.2722  0.3606  1.6941
 1842SOL    HW2 8481   3.520   4.990   2.212 -0.5272  0.8991 -0.0433
 1843SOL     OW 8482   5.639   3.342   6.529 -0.0146  0.3585  0.2050
 1843SOL    HW1 8483   5.671   3.275   6.469 -0.7563  0.7116 -0.6181
 1843SOL    HW2 8484   5.638   3.423   6.477 -2.5872  0.2835  0.0245
 1844SOL     OW 8485   1.324   7.330   7.811 -0.5095 -0.2651 -0.0347
 1844SOL    HW1 8486   1.229   7.342   7.805 -0.2286  2.4489 -0.3191
 1844SOL    HW2 8487   1.337   7.266   7.880 -2.5498 -0.9853 -0.2738
 1845SOL     OW 8488   1.995   4.298   0.196  0.0034 -0.4643 -0.1274
 1845SOL    HW1 8489   1.903   4.280   0.177 -0.0823  0.4998 -0.7114
 1845SOL    HW2 8490   2.008   4.266   0.285 -0.9208 -0.5237 -0.0037
 1846SOL     OW 8491   2.769   3.860   0.265 -0.8140 -0.1502 -0.6444
 1846SOL    HW1 8492   2.800   3.887   0.351 -1.7515 -1.6965  0.2267
 1846SOL    HW2 8493   2.697   3.920   0.246  0.3507  1.1610 -1.0665
 1847SOL     OW 8494   3.272   5.184   3.679 -0.3486 -0.2792  0.2470
 1847SOL    HW1 8495   3.321   5.115   3.634  1.2691 -0.3350  2.0075
 1847SOL    HW2 8496   3.331   5.259   3.678 -1.0588  0.2946  0.6509
 1848SOL     OW 8497   2.794   5.034   3.917  0.1736  0.2310 -0.0211
 1848SOL    HW1 8498   2.786   5.107   3.855 -1.0473  0.2292  0.1137
 1848SOL    HW2 8499   2.823   5.075   3.999  2.1527  0.1884 -0.6374
 1849SOL     OW 8500   6.899   2.054   7.159  0.1885  0.1652 -0.5010
 1849SOL    HW1 8501   6.937   1.972   7.189 -0.5117 -0.4215 -1.1872
 1849SOL    HW2 8502   6.969   2.096   7.107 -0.2527 -1.2083 -2.3086
 1850SOL     OW 8503   5.060   2.824   1.369 -0.5093 -0.1886  0.2818
 1850SOL    HW1 8504   5.116   2.762   1.322  0.1290  0.3812  0.2769
 1850SOL    HW2 8505   5.001   2.768   1.420  1.7409 -0.8863  2.3201
 1851SOL     OW 8506   3.241   7.557   0.338  0.6495 -0.4395  0.1181
 1851SOL    HW1 8507   3.176   7.584   0.273  1.7815 -0.5254 -1.0909
 1851SOL    HW2 8508   3.294   7.492   0.293  1.2272 -0.7923  1.2726
 1852SOL     OW 8509   5.204   1.507   0.262  0.1540 -0.0530 -0.1382
 1852SOL    HW1 8510   5.183   1.553   0.181 -1.4082 -0.5321 -0.0389
 1852SOL    HW2 8511   5.163   1.561   0.331  0.7510 -0.0930  0.2544
 1853SOL     OW 8512   1.367   2.517   7.255 -0.7822 -0.0506 -0.2245
 1853SOL    HW1 8513   1.380   2.459   7.330  3.9861  0.1031 -0.6228
 1853SOL    HW2 8514   1.294   2.573   7.281 -0.6231 -1.2785  3.4952
 1854SOL     OW 8515   2.177   2.290   7.165  0.3081 -0.5147  0.9680
 1854SOL    HW1 8516   2.221   2.211   7.197 -0.2812 -0.9898  0.6290
 1854SOL    HW2 8517   2.174   2.279   7.070 -0.6228 -0.5469  0.9868
 1855SOL     OW 8518   2.746   1.984   2.542 -0.0716 -0.6409  0.0281
 1855SOL    HW1 8519   2.706   2.000   2.627  1.4530  2.2464  0.3187
 1855SOL    HW2 8520   2.793   1.901   2.553 -0.3415 -0.6013  1.8143
 1856SOL     OW 8521   8.105   7.272   1.325  0.5276 -0.4051 -0.1296
 1856SOL    HW1 8522   8.157   7.326   1.266  0.1574 -0.6012 -0.6388
 1856SOL    HW2 8523   8.023   7.257   1.278 -0.7960  1.5039  1.4014
 1857SOL     OW 8524   0.119   3.548   7.273  0.0467 -0.1766  0.1653
 1857SOL    HW1 8525   0.113   3.564   7.368  1.6202  0.3280  0.2049
 1857SOL    HW2 8526   0.028   3.530   7.247 -0.7392  1.5887  1.4231
 1858SOL     OW 8527   4.233   5.691   4.405 -0.1936 -0.0552 -0.4453
 1858SOL    HW1 8528   4.321   5.680   4.369  0.9209  3.2336  0.9427
 1858SOL    HW2 8529   4.192   5.755   4.346 -0.0816  1.6420  1.2453
 1859SOL     OW 8530   6.412   3.557   7.534 -0.1128 -0.0640  0.2006
 1859SOL    HW1 8531   6.499   3.584   7.504 -0.5744  1.7481  0.3555
 1859SOL    HW2 8532   6.351   3.607   7.479 -1.1133 -1.9931 -0.5336
 1860SOL     OW 8533   7.692   7.759   3.025  0.5689 -0.2357  0.1912
 1860SOL    HW1 8534   7.671   7.830   2.964  0.0545 -0.2882  0.3022
 1860SOL    HW2 8535   7.658   7.680   2.984 -1.0233 -0.0956  1.1456
 1861SOL     OW 8536   4.058   4.696   2.650  0.5966  0.4534 -0.4018
 1861SOL    HW1 8537   4.109   4.677   2.572  1.1452  2.6901 -0.6513
 1861SOL    HW2 8538   3.983   4.745   2.619  0.5924  0.9905  0.4230
 1862SOL     OW 8539   7.256   1.750   6.988  0.0261 -0.6799 -0.2048
 1862SOL    HW1 8540   7.231   1.821   6.928 -1.4760 -1.5000 -0.6077
 1862SOL    HW2 8541   7.328   1.786   7.039 -0.9270  1.2898 -0.1299
 1863SOL     OW 8542   4.221   0.655   0.750  0.6776  0.0661  0.1204
 1863SOL    HW1 8543   4.313   0.663   0.775  0.9771  0.4821 -1.0451
 1863SOL    HW2 8544   4.194   0.745   0.730  0.2250 -0.1474 -0.2444
 1864SOL     OW 8545   4.752   5.782   6.610  0.6949 -0.4168  0.2294
 1864SOL    HW1 8546   4.800   5.831   6.543 -2.3408  0.7587 -1.2522
 1864SOL    HW2 8547   4.701   5.849   6.656 -2.0870 -1.8983 -0.5479
 1865SOL     OW 8548   1.216   3.845   7.590 -0.4813  0.4743 -0.4899
 1865SOL    HW1 8549   1.229   3.937   7.612  0.1233  0.1788  0.4431
 1865SOL    HW2 8550   1.303   3.813   7.568 -0.7367  0.1938 -1.1190
 1866SOL     OW 8551   5.884   4.860   7.586  0.2242 -0.7747  0.1349
 1866SOL    HW1 8552   5.887   4.950   7.617 -0.1244 -0.7497  0.1019
 1866SOL    HW2 8553   5.891   4.806   7.665  1.1961 -0.7329  0.0944
 1867SOL     OW 8554   1.355   5.231   7.695 -0.1516  0.1702  0.3153
 1867SOL    HW1 8555   1.276   5.227   7.640  1.2464 -1.5766 -1.7409
 1867SOL    HW2 8556   1.427   5.226   7.633  1.5587 -0.7852  2.2622
 1868SOL     OW 8557   5.160   4.227   4.732 -0.9591  0.2736 -0.7115
 1868SOL    HW1 8558   5.118   4.310   4.749 -0.1469  0.3351  1.2576
 1868SOL    HW2 8559   5.247   4.250   4.699 -0.1895  0.2845  1.2081
 1869SOL     OW 8560   4.677   2.615   2.287  0.1864  0.1359  0.1907
 1869SOL    HW1 8561   4.762   2.657   2.302  0.0781  0.0593  1.0424
 1869SOL    HW2 8562   4.642   2.660   2.210  0.5205  0.9264  0.4876
 1870SOL     OW 8563   7.296   6.891   5.581 -0.3818 -0.3020 -0.3883
 1870SOL    HW1 8564   7.382   6.933   5.569 -0.9085  1.8255  2.2949
 1870SOL    HW2 8565   7.233   6.962   5.569 -1.6483 -1.3807 -0.2548
 1871SOL     OW 8566   0.627   1.896   6.704  0.2077  0.3726  0.5518
 1871SOL    HW1 8567   0.561   1.939   6.650  2.0177  2.7296  0.0856
 1871SOL    HW2 8568   0.682   1.849   6.641 -1.6713 -2.7755  1.0406
 1872SOL     OW 8569   0.312   6.337   5.698  0.2832  0.2551  0.5222
 1872SOL    HW1 8570   0.237   6.395   5.686  1.9685  2.5702  0.5976
 1872SOL    HW2 8571   0.338   6.350   5.789 -0.1959 -1.8349  1.0099
 1873SOL     OW 8572   0.964   4.769   3.736 -0.0988 -0.1837  0.0821
 1873SOL    HW1 8573   0.928   4.857   3.722 -0.7648 -0.5854 -0.7888
 1873SOL    HW2 8574   1.014   4.750   3.657  1.3154 -0.0081  0.8948
 1874SOL     OW 8575   7.298   3.113   6.890 -0.4891 -0.3230 -0.0785
 1874SOL    HW1 8576   7.382   3.076   6.862 -0.8127  1.2609 -3.6109
 1874SOL    HW2 8577   7.232   3.059   6.846 -1.1462  0.8516 -0.5796
 1875SOL     OW 8578   5.306   6.455   6.164  0.4776 -0.6231  0.1708
 1875SOL    HW1 8579   5.349   6.426   6.084 -0.3872 -1.1521 -0.1127
 1875SOL    HW2 8580   5.213   6.460   6.142  0.0899 -1.7462  1.4006
 1876SOL     OW 8581   6.314   0.128   4.528 -0.3376  0.6567 -0.5431
 1876SOL    HW1 8582   6.225   0.143   4.560 -0.7014 -0.7353 -0.8359
 1876SOL    HW2 8583   6.315   0.036   4.503  0.9412  0.8725 -1.3585
 1877SOL     OW 8584   0.899   4.694   1.615 -0.2458  1.0215  0.0381
 1877SOL    HW1 8585   0.809   4.672   1.588  0.1969  0.7780 -1.3413
 1877SOL    HW2 8586   0.889   4.731   1.702 -1.5327 -0.4223  0.5694
 1878SOL     OW 8587   1.260   5.928   5.891  0.1130  0.0306 -0.1763
 1878SOL    HW1 8588   1.351   5.898   5.891  0.0963 -0.0202 -0.0639
 1878SOL    HW2 8589   1.260   6.003   5.832  0.4752  0.7944  0.7690
 1879SOL     OW 8590   3.260   1.859   7.696 -0.9077 -0.0102  0.5557
 1879SOL    HW1 8591   3.317   1.936   7.696  1.8231 -1.7289  4.4440
 1879SOL    HW2 8592   3.274   1.820   7.610 -0.0935  2.2379 -0.4212
 1880SOL     OW 8593   6.100   2.711   2.050 -0.0732  0.0241  0.0023
 1880SOL    HW1 8594   6.082   2.638   2.109  0.5464 -0.0991  0.0415
 1880SOL    HW2 8595   6.018   2.760   2.047 -0.9505 -1.4112 -1.0830
 1881SOL     OW 8596   5.700   3.274   0.791 -0.3436  0.1978 -1.1909
 1881SOL    HW1 8597   5.636   3.248   0.857 -0.1616 -0.0166 -1.0971
 1881SOL    HW2 8598   5.764   3.203   0.791  0.2806  0.7451 -0.7777
 1882SOL     OW 8599   6.435   1.593   2.493  0.4807 -0.3115  0.4336
 1882SOL    HW1 8600   6.407   1.668   2.440 -0.5837 -0.7953  0.2793
 1882SOL    HW2 8601   6.357   1.537   2.498  0.3803 -0.0376  2.9771
 1883SOL     OW 8602   0.339   1.317   1.731  0.3935  0.1081  0.4738
 1883SOL    HW1 8603   0.324   1.339   1.639 -1.2922  0.4148  0.7763
 1883SOL    HW2 8604   0.413   1.257   1.730 -0.7869 -1.4627 -1.3172
 1884SOL     OW 8605   6.839   7.171   7.885  0.4167  0.2435  0.1431
 1884SOL    HW1 8606   6.870   7.081   7.894 -0.3636 -0.0056  0.4131
 1884SOL    HW2 8607   6.764   7.177   7.944  0.3865  1.0365  0.0369
 1885SOL     OW 8608   1.592   7.711   7.997 -0.7491  0.2665 -0.0403
 1885SOL    HW1 8609   1.641   7.712   8.079 -2.6031 -1.2686  1.1845
 1885SOL    HW2 8610   1.608   7.624   7.960  1.6878  1.5930 -2.4716
 1886SOL     OW 8611   5.032   3.198   6.151 -0.3452 -0.3146  0.1000
 1886SOL    HW1 8612   5.035   3.249   6.070 -0.3895  1.0641  0.9386
 1886SOL    HW2 8613   4.985   3.254   6.213  0.1747 -1.1102  1.2425
 1887SOL     OW 8614   7.742   6.955   2.870 -0.5037 -0.5258 -0.5248
 1887SOL    HW1 8615   7.834   6.983   2.864 -1.0861  1.4720 -0.7317
 1887SOL    HW2 8616   7.744   6.879   2.928  1.2374 -0.2892 -0.2196
 1888SOL     OW 8617   1.715   3.105   3.642  0.3601 -0.2866  0.8750
 1888SOL    HW1 8618   1.796   3.136   3.602 -0.4148 -2.2453 -2.6478
 1888SOL    HW2 8619   1.657   3.180   3.640  1.4268  0.5817  1.5324
 1889SOL     OW 8620   0.220   7.368   3.935  0.3401 -0.1297 -0.4230
 1889SOL    HW1 8621   0.190   7.318   4.011 -0.8073 -0.9535 -1.3793
 1889SOL    HW2 8622   0.178   7.453   3.944  0.8779  0.0786  0.2786
 1890SOL     OW 8623   6.091   0.021   3.584  0.2616  0.2689  0.1058
 1890SOL    HW1 8624   6.169  -0.011   3.538  0.5347 -1.8508  1.8977
 1890SOL    HW2 8625   6.125   0.084   3.648  0.4076  0.0027  0.2914
 1891SOL     OW 8626   7.358   0.194   2.529 -0.0121 -0.4860 -0.5515
 1891SOL    HW1 8627   7.301   0.192   2.606  2.1254 -0.3275  1.1436
 1891SOL    HW2 8628   7.446   0.179   2.565  1.2539  1.1096 -2.7928
 1892SOL     OW 8629   7.541   0.100   0.915 -0.3943  0.3307 -0.0258
 1892SOL    HW1 8630   7.461   0.067   0.875 -0.3781  0.9879 -0.6230
 1892SOL    HW2 8631   7.510   0.150   0.991 -0.6398  1.4394 -0.8362
 1893SOL     OW 8632   7.415   6.598   0.688 -0.2071  0.2128 -0.4075
 1893SOL    HW1 8633   7.342   6.619   0.630 -1.4657  2.1030  1.7139
 1893SOL    HW2 8634   7.462   6.681   0.699  0.6379 -0.3585  0.4184
 1894SOL     OW 8635   8.109   6.708   4.304  0.1050  0.0897  0.0808
 1894SOL    HW1 8636   8.067   6.772   4.248 -0.4932 -0.2659  0.1104
 1894SOL    HW2 8637   8.176   6.668   4.249  0.1856  0.4334 -0.0709
 1895SOL     OW 8638   5.619   7.972   2.684 -0.6617 -0.0194 -0.0141
 1895SOL    HW1 8639   5.618   7.883   2.649 -0.0528 -0.3285  0.7243
 1895SOL    HW2 8640   5.601   8.028   2.608 -0.8495 -0.7561 -0.5214
 1896SOL     OW 8641   6.106   5.920   7.809  0.0517 -0.0078  0.2272
 1896SOL    HW1 8642   6.109   5.943   7.902  2.6227 -1.5781  0.6338
 1896SOL    HW2 8643   6.046   5.845   7.804 -1.1209  0.8988  0.3670
 1897SOL     OW 8644   6.368   1.064   5.370 -0.1891  0.3473 -0.2283
 1897SOL    HW1 8645   6.427   1.100   5.303  2.6752 -0.1737  1.8105
 1897SOL    HW2 8646   6.354   0.974   5.343  1.4449 -0.0421  0.0877
 1898SOL     OW 8647   6.675   0.653   2.313  0.2307 -0.2860  0.5469
 1898SOL    HW1 8648   6.717   0.649   2.399  2.7392  1.0507 -0.4976
 1898SOL    HW2 8649   6.623   0.733   2.316  0.0706 -0.3980  0.8972
 1899SOL     OW 8650   7.514   7.433   2.307  0.4958 -0.1131 -0.0670
 1899SOL    HW1 8651   7.422   7.459   2.303  0.2229 -0.9554  0.5327
 1899SOL    HW2 8652   7.548   7.477   2.385  0.4863 -0.1733 -0.0293
 1900SOL     OW 8653   2.036   5.199   4.467  0.1396  0.1145 -0.2547
 1900SOL    HW1 8654   2.012   5.182   4.558  0.4990  0.8819 -0.0100
 1900SOL    HW2 8655   2.131   5.185   4.464 -0.0738 -1.3693 -0.8610
 1901SOL     OW 8656   5.078   1.233   0.325 -0.6880  0.6552 -1.0325
 1901SOL    HW1 8657   5.108   1.308   0.273  1.4007  0.0619 -0.7506
 1901SOL    HW2 8658   5.154   1.207   0.377 -1.3861 -1.5910 -1.0206
 1902SOL     OW 8659   1.234   5.225   5.593  0.3801 -0.2483 -0.2582
 1902SOL    HW1 8660   1.285   5.154   5.631 -1.2331 -1.6133 -0.5568
 1902SOL    HW2 8661   1.147   5.188   5.578 -0.7575  2.0167  0.2951
 1903SOL     OW 8662   6.418   0.604   6.083  0.2589 -0.3909 -0.2767
 1903SOL    HW1 8663   6.382   0.545   6.150  0.1681 -0.5814 -0.4914
 1903SOL    HW2 8664   6.360   0.592   6.008 -0.6822  1.1066  0.1830
 1904SOL     OW 8665   6.934   0.453   6.303  0.0850 -0.1672 -0.4678
 1904SOL    HW1 8666   6.866   0.497   6.253  0.6212  1.9690  0.5807
 1904SOL    HW2 8667   7.006   0.442   6.241 -0.3732 -0.3620 -0.9715
 1905SOL     OW 8668   3.119   7.336   3.577  0.0648  0.1227 -0.0362
 1905SOL    HW1 8669   3.122   7.431   3.588 -0.6014  0.0879  0.5483
 1905SOL    HW2 8670   3.029   7.317   3.550  0.0845 -0.3748  0.2253
 1906SOL     OW 8671   6.258   7.627   3.956  0.3494 -0.0086 -0.4028
 1906SOL    HW1 8672   6.334   7.616   3.898 -0.0890 -0.2319 -0.9468
 1906SOL    HW2 8673   6.219   7.540   3.960 -1.3127  0.5889 -2.1473
 1907SOL     OW 8674   6.683   7.149   6.722 -0.3175  0.0794  0.0427
 1907SOL    HW1 8675   6.726   7.200   6.790  1.1580 -0.0377 -0.7566
 1907SOL    HW2 8676   6.729   7.065   6.722 -1.0355 -0.3237 -0.3473
 1908SOL     OW 8677   5.346   3.243   6.647  0.2328  0.1117  0.4195
 1908SOL    HW1 8678   5.376   3.220   6.559  1.6225  2.3446  0.2163
 1908SOL    HW2 8679   5.327   3.159   6.689 -2.1980 -0.9770 -2.5149
 1909SOL     OW 8680   2.529   7.748   4.646 -0.0602  0.1800  0.2967
 1909SOL    HW1 8681   2.528   7.796   4.729 -0.8195 -0.0001  0.3955
 1909SOL    HW2 8682   2.488   7.664   4.666 -1.2353  0.5369 -0.4991
 1910SOL     OW 8683   4.089   1.835   7.428  0.2131  0.1148  0.3779
 1910SOL    HW1 8684   4.023   1.866   7.490 -0.9201 -0.2009 -0.6299
 1910SOL    HW2 8685   4.060   1.747   7.405  0.3057  0.4319 -1.0146
 1911SOL     OW 8686   4.304   5.287   5.916  0.5406 -0.0845  0.6972
 1911SOL    HW1 8687   4.301   5.204   5.868 -1.1937  1.3600 -1.8900
 1911SOL    HW2 8688   4.229   5.283   5.975  1.0832 -0.7414  1.3719
 1912SOL     OW 8689   2.737   3.824   4.607  0.1737  0.3027 -0.0669
 1912SOL    HW1 8690   2.678   3.829   4.682  2.0158  0.9467  1.4096
 1912SOL    HW2 8691   2.749   3.916   4.581  0.6809  0.1963 -0.2147
 1913SOL     OW 8692   7.190   0.308   1.667  0.1085 -0.2690  0.0010
 1913SOL    HW1 8693   7.215   0.216   1.658 -0.2547 -0.4528  0.7679
 1913SOL    HW2 8694   7.136   0.310   1.747 -1.2643  0.3125 -0.9021
 1914SOL     OW 8695   7.689   4.305   5.127  0.1851 -0.3963 -0.3646
 1914SOL    HW1 8696   7.620   4.323   5.191  1.0980  1.0105  0.2847
 1914SOL    HW2 8697   7.769   4.297   5.179  1.0248  1.2216 -1.3158
 1915SOL     OW 8698   6.641   6.542   5.795  0.8203 -0.1456 -0.0502
 1915SOL    HW1 8699   6.582   6.577   5.863 -0.0587  1.9251 -1.7438
 1915SOL    HW2 8700   6.581   6.506   5.730  1.5031  0.3221 -0.9450
 1916SOL     OW 8701   3.086   4.360   6.706  0.1933 -0.1583  0.1144
 1916SOL    HW1 8702   3.043   4.276   6.693 -0.8963  0.3020  0.6761
 1916SOL    HW2 8703   3.043   4.399   6.782  0.6287  0.9407 -0.1705
 1917SOL     OW 8704   5.030   6.740   2.389  0.8959 -0.4309  0.0608
 1917SOL    HW1 8705   5.092   6.790   2.336 -0.5218 -0.8122 -2.1070
 1917SOL    HW2 8706   5.038   6.650   2.356 -0.9952 -0.4331 -0.5112
 1918SOL     OW 8707   0.868   1.038   6.275 -0.1093  0.1837  0.3179
 1918SOL    HW1 8708   0.874   1.127   6.309  3.4659  0.6074 -0.9890
 1918SOL    HW2 8709   0.903   0.984   6.346 -2.9345 -0.4114  1.3958
 1919SOL     OW 8710   5.214   6.721   5.638 -0.2678 -0.1113  0.1831
 1919SOL    HW1 8711   5.193   6.801   5.589  0.9291  0.0709 -0.0663
 1919SOL    HW2 8712   5.228   6.751   5.728 -0.2732 -0.1052  0.1818
 1920SOL     OW 8713   2.364   1.628   5.709  0.3894  0.2358  0.2329
 1920SOL    HW1 8714   2.275   1.661   5.702  0.0922 -0.0479  2.3139
 1920SOL    HW2 8715   2.391   1.647   5.799  2.2304 -0.1795 -0.1786
 1921SOL     OW 8716   2.505   2.343   1.324 -0.3514 -0.0546 -0.2916
 1921SOL    HW1 8717   2.493   2.438   1.328 -0.8497 -0.1483  0.6722
 1921SOL    HW2 8718   2.443   2.308   1.388  2.0992 -0.8285  1.8421
 1922SOL     OW 8719   1.090   3.473   6.328 -0.0031 -0.5556 -0.4694
 1922SOL    HW1 8720   1.014   3.518   6.291 -0.3502 -0.7986 -0.0635
 1922SOL    HW2 8721   1.165   3.510   6.282 -0.2492  0.7021  0.0918
 1923SOL     OW 8722   1.948   7.291   7.170  0.6062 -0.3241  0.3954
 1923SOL    HW1 8723   1.961   7.199   7.193  1.2906 -0.5876 -0.9697
 1923SOL    HW2 8724   1.999   7.339   7.235  2.1094 -1.0257 -0.2026
 1924SOL     OW 8725   7.676   7.658   7.328  0.3561 -0.6780 -0.3592
 1924SOL    HW1 8726   7.727   7.727   7.287  0.4569 -0.7782 -0.4026
 1924SOL    HW2 8727   7.706   7.656   7.419 -1.0460  0.6797  0.1768
 1925SOL     OW 8728   7.563   5.826   6.962 -0.0401 -0.3173 -0.0451
 1925SOL    HW1 8729   7.514   5.744   6.971 -0.0172 -0.1890  1.4066
 1925SOL    HW2 8730   7.650   5.807   6.997  0.0399  0.2705  0.0928
 1926SOL     OW 8731   4.892   8.092   7.610  0.2446 -0.6171  0.1867
 1926SOL    HW1 8732   4.816   8.140   7.644 -0.0624 -1.8623  1.3783
 1926SOL    HW2 8733   4.961   8.158   7.602 -0.5177  0.2449  0.5950
 1927SOL     OW 8734   2.680   2.783   7.872  0.1921  0.0756  0.5517
 1927SOL    HW1 8735   2.691   2.689   7.864 -1.4398 -0.1413  0.5784
 1927SOL    HW2 8736   2.740   2.820   7.807 -3.4957 -1.2067 -4.1387
 1928SOL     OW 8737   5.652   6.965   6.589 -0.5645 -0.4618  0.0947
 1928SOL    HW1 8738   5.585   6.901   6.566  0.4607 -1.8223  0.7303
 1928SOL    HW2 8739   5.735   6.917   6.579  0.4079  1.3883 -1.4609
 1929SOL     OW 8740   5.360   5.820   7.031 -0.0331  0.4313 -0.1631
 1929SOL    HW1 8741   5.383   5.896   6.977  0.6601 -0.1632 -0.7184
 1929SOL    HW2 8742   5.439   5.766   7.032  0.1350  0.6251  1.8392
 1930SOL     OW 8743   1.617   6.650   7.050  0.2254 -0.0521 -0.3803
 1930SOL    HW1 8744   1.686   6.584   7.041 -0.0262 -0.4708  0.6687
 1930SOL    HW2 8745   1.664   6.732   7.065  0.5073 -0.2812  0.0147
 1931SOL     OW 8746   2.327   2.165   4.443  0.3385  0.4900  0.6456
 1931SOL    HW1 8747   2.382   2.126   4.375 -0.2654 -0.4425  0.6636
 1931SOL    HW2 8748   2.328   2.101   4.514  0.0063  0.9049  1.0297
 1932SOL     OW 8749   4.466   0.314   0.614  0.0231  0.4982 -0.4991
 1932SOL    HW1 8750   4.462   0.222   0.641 -0.4017 -0.2929 -2.9816
 1932SOL    HW2 8751   4.515   0.358   0.684  1.7209 -1.9400 -0.0412
 1933SOL     OW 8752   5.685   5.465   7.775 -0.3711  0.3855 -0.0972
 1933SOL    HW1 8753   5.756   5.526   7.791  0.3951 -0.6044  0.3780
 1933SOL    HW2 8754   5.625   5.478   7.848  0.7108 -0.6946  1.0367
 1934SOL     OW 8755   3.164   3.934   0.416 -0.3301  0.3368 -1.0356
 1934SOL    HW1 8756   3.175   3.840   0.409  0.0481  0.3731 -0.9591
 1934SOL    HW2 8757   3.218   3.960   0.491 -0.5567  0.5934 -0.9556
 1935SOL     OW 8758   3.532   5.702   2.083 -0.2654  0.1940 -0.3364
 1935SOL    HW1 8759   3.600   5.639   2.061  0.9481  1.6381 -0.9087
 1935SOL    HW2 8760   3.497   5.672   2.167  0.4150 -1.0938 -0.4931
 1936SOL     OW 8761   3.494   2.897   2.986  0.7023  0.0259  0.0816
 1936SOL    HW1 8762   3.587   2.909   3.005  1.4652 -3.0054 -1.1365
 1936SOL    HW2 8763   3.492   2.869   2.894 -1.5278  0.9105 -0.1974
 1937SOL     OW 8764   5.989   0.719   3.396  0.1354  0.2984  0.1945
 1937SOL    HW1 8765   5.921   0.657   3.369  0.4467 -0.6365  1.4482
 1937SOL    HW2 8766   6.046   0.727   3.319 -0.3478 -0.3694 -0.2422
 1938SOL     OW 8767   5.618   4.136   6.735 -0.3665 -0.0812 -0.0956
 1938SOL    HW1 8768   5.627   4.177   6.649 -1.8797  0.6543  0.0709
 1938SOL    HW2 8769   5.602   4.044   6.715 -2.7858  0.4098 -0.7367
 1939SOL     OW 8770   6.342   3.258   3.303  0.1937  0.1062 -0.2939
 1939SOL    HW1 8771   6.421   3.302   3.271  0.7339 -2.0992 -2.3275
 1939SOL    HW2 8772   6.274   3.282   3.241  0.0828 -0.5419 -0.4313
 1940SOL     OW 8773   3.149   6.603   7.705  0.1486  0.7572 -0.7643
 1940SOL    HW1 8774   3.229   6.579   7.751 -0.2660  0.2436 -0.3033
 1940SOL    HW2 8775   3.169   6.586   7.613  0.0154 -0.9986 -0.5051
 1941SOL     OW 8776   3.992   1.790   0.749  0.2752  0.7825 -0.2303
 1941SOL    HW1 8777   4.063   1.770   0.689 -0.4024  1.3204 -1.2382
 1941SOL    HW2 8778   3.939   1.710   0.751  0.9973  0.3063  0.6870
 1942SOL     OW 8779   0.951   3.127   7.620 -0.1856 -1.0109  0.0986
 1942SOL    HW1 8780   0.982   3.061   7.682  0.7479  1.8090  2.8794
 1942SOL    HW2 8781   0.859   3.141   7.644  0.2179  0.1909  1.0389
 1943SOL     OW 8782   4.755   2.354   0.439 -0.0535 -0.1055  0.0439
 1943SOL    HW1 8783   4.669   2.317   0.459  0.6207 -2.2574 -0.7058
 1943SOL    HW2 8784   4.798   2.364   0.524 -0.0406 -1.7449  0.2578
 1944SOL     OW 8785   2.878   0.508   2.898  0.3444  0.2393 -0.3446
 1944SOL    HW1 8786   2.797   0.482   2.942  0.9836  1.7434  1.8936
 1944SOL    HW2 8787   2.852   0.580   2.840 -0.0228  0.3656 -0.0300
 1945SOL     OW 8788   6.059   2.116   5.018  0.0556 -0.3379 -0.7993
 1945SOL    HW1 8789   6.074   2.126   4.924  0.0810  1.9739 -0.5895
 1945SOL    HW2 8790   6.001   2.188   5.041 -0.8228 -1.4993  0.7920
 1946SOL     OW 8791   4.942   3.214   2.239 -0.3459  0.6708  0.0764
 1946SOL    HW1 8792   4.955   3.267   2.161  1.8748  0.0509 -0.0427
 1946SOL    HW2 8793   5.027   3.172   2.254 -1.7213 -2.1266  0.6847
 1947SOL     OW 8794   1.249   3.622   5.007 -0.1503  0.1325  0.2213
 1947SOL    HW1 8795   1.286   3.615   5.095 -0.0699 -0.9601  0.1084
 1947SOL    HW2 8796   1.164   3.579   5.013 -0.3017  0.3783 -0.1503
 1948SOL     OW 8797   2.375   7.433   4.159  0.2057  0.0688 -0.2495
 1948SOL    HW1 8798   2.284   7.458   4.174 -0.4016 -1.1821 -1.6075
 1948SOL    HW2 8799   2.380   7.414   4.065  1.4596 -1.4416  0.0757
 1949SOL     OW 8800   7.474   4.980   8.050  0.0012 -0.0051 -0.1511
 1949SOL    HW1 8801   7.464   5.011   8.140  1.1418  1.6853 -0.5644
 1949SOL    HW2 8802   7.386   4.988   8.012 -0.3259 -0.0199  0.5855
 1950SOL     OW 8803   7.077   8.131   5.900 -0.1369  0.0340  0.3181
 1950SOL    HW1 8804   7.063   8.147   5.806  0.1368  0.0961  0.2859
 1950SOL    HW2 8805   7.127   8.050   5.903 -0.8802 -0.4275  0.4510
 1951SOL     OW 8806   1.894   6.168   6.282  0.7641 -0.5421 -0.4222
 1951SOL    HW1 8807   1.826   6.235   6.273  0.4152 -0.8687 -0.1931
 1951SOL    HW2 8808   1.954   6.204   6.347 -0.8630 -1.6315  1.8047
 1952SOL     OW 8809   6.556   2.740   6.651 -0.0367  0.1485 -0.0889
 1952SOL    HW1 8810   6.594   2.672   6.596 -0.4122 -0.3824  0.2893
 1952SOL    HW2 8811   6.534   2.811   6.591 -1.2537 -0.7730 -0.7805
 1953SOL     OW 8812   1.055   7.050   4.836 -0.1992 -0.2298 -0.3266
 1953SOL    HW1 8813   1.073   6.981   4.772  2.6602 -0.7984  0.9210
 1953SOL    HW2 8814   0.961   7.043   4.853 -0.1192 -3.4979 -0.6375
 1954SOL     OW 8815   6.017   5.182   5.504  0.2325  0.4627 -0.1672
 1954SOL    HW1 8816   5.966   5.200   5.425  0.3201  0.4891 -0.2169
 1954SOL    HW2 8817   6.040   5.268   5.538  1.8168  0.4477 -1.1490
 1955SOL     OW 8818   1.722   7.561   2.926  0.6902  0.6121 -0.0340
 1955SOL    HW1 8819   1.792   7.595   2.871  0.2579  0.8814 -0.4234
 1955SOL    HW2 8820   1.731   7.610   3.009  0.5721  1.1030 -0.3060
 1956SOL     OW 8821   0.790   6.775   3.853 -0.2895  0.0089  0.0910
 1956SOL    HW1 8822   0.813   6.683   3.842 -1.5862 -0.1661 -1.4640
 1956SOL    HW2 8823   0.874   6.821   3.846  0.4473 -1.0460  1.4150
 1957SOL     OW 8824   6.849   3.055   5.728 -0.2122  0.1816  0.0529
 1957SOL    HW1 8825   6.809   3.012   5.804 -1.7391  0.9336 -0.2864
 1957SOL    HW2 8826   6.880   3.139   5.761  0.6130 -0.1604  0.1825
 1958SOL     OW 8827   0.539   1.039   4.663 -0.2216 -0.2276 -0.2201
 1958SOL    HW1 8828   0.471   0.972   4.663 -0.7152  0.2605 -0.9582
 1958SOL    HW2 8829   0.588   1.023   4.583 -0.1784  0.1292 -0.2672
 1959SOL     OW 8830   1.887   7.459   1.031 -0.2249  0.0692  0.3706
 1959SOL    HW1 8831   1.864   7.378   0.985  0.8808  0.4413 -0.9064
 1959SOL    HW2 8832   1.925   7.514   0.963 -0.8282  1.6134  1.2550
 1960SOL     OW 8833   5.051   2.623   3.556  0.1605 -0.7159  0.3097
 1960SOL    HW1 8834   5.094   2.602   3.639 -0.9631 -2.4396  0.5085
 1960SOL    HW2 8835   4.999   2.545   3.536 -0.9414  0.3436 -1.1423
 1961SOL     OW 8836   1.863   2.660   0.569 -0.1828  0.2214  0.1070
 1961SOL    HW1 8837   1.862   2.723   0.642  0.1758 -0.1764  0.4601
 1961SOL    HW2 8838   1.912   2.585   0.603  1.3909  0.6686 -1.0613
 1962SOL     OW 8839   8.071   0.212   4.465 -0.0055  0.5106 -0.3947
 1962SOL    HW1 8840   8.051   0.128   4.425 -1.8520  1.3947 -1.4550
 1962SOL    HW2 8841   8.160   0.232   4.436  0.1682 -0.7086 -0.7565
 1963SOL     OW 8842   2.372   3.270   5.703 -0.3809  0.2134  0.2523
 1963SOL    HW1 8843   2.361   3.364   5.713  0.9051  0.4800 -0.6536
 1963SOL    HW2 8844   2.339   3.251   5.615 -1.2169 -0.3078  0.6568
 1964SOL     OW 8845   5.273   0.484   5.708  0.3089 -0.7965  0.4018
 1964SOL    HW1 8846   5.202   0.495   5.771  1.2039 -2.0888  1.7144
 1964SOL    HW2 8847   5.317   0.569   5.706  0.0672 -0.6407  1.2697
 1965SOL     OW 8848   8.120   6.559   6.196 -0.1879  0.2384  0.2316
 1965SOL    HW1 8849   8.149   6.559   6.287  3.2320  0.7458 -0.7477
 1965SOL    HW2 8850   8.114   6.651   6.172  1.5440  0.1255 -0.7576
 1966SOL     OW 8851   4.995   8.080   0.233  0.0586 -0.1224  0.1827
 1966SOL    HW1 8852   5.027   8.018   0.168  1.3939 -0.1996  0.8872
 1966SOL    HW2 8853   4.963   8.026   0.305 -0.2559 -0.0143  0.1266
 1967SOL     OW 8854   2.610   0.040   3.530 -0.0484 -0.2463 -0.5643
 1967SOL    HW1 8855   2.581   0.065   3.442 -0.1290 -0.6376 -0.6529
 1967SOL    HW2 8856   2.588  -0.053   3.536 -0.2981 -0.1545 -0.0274
 1968SOL     OW 8857   5.322   2.740   7.425  0.2315 -0.2668  0.1660
 1968SOL    HW1 8858   5.291   2.706   7.508 -1.7659 -0.1613 -0.4877
 1968SOL    HW2 8859   5.284   2.682   7.359 -0.2492  1.0693 -0.7820
 1969SOL     OW 8860   4.647   2.036   3.330  0.2391  0.8743 -0.3274
 1969SOL    HW1 8861   4.645   2.015   3.236  2.4157  1.6268 -0.6012
 1969SOL    HW2 8862   4.567   2.088   3.345  0.0339  1.0422 -1.8435
 1970SOL     OW 8863   3.317   0.067   5.974  0.6303  0.1688 -0.1427
 1970SOL    HW1 8864   3.229   0.103   5.989 -0.0932 -0.9840 -1.3280
 1970SOL    HW2 8865   3.300  -0.018   5.932  2.3324  0.5187 -1.6340
 1971SOL     OW 8866   3.749   2.624   2.071 -0.3161  0.2207 -0.1903
 1971SOL    HW1 8867   3.728   2.540   2.030  0.5586  0.5151 -1.2900
 1971SOL    HW2 8868   3.799   2.601   2.150 -1.6406 -0.3383  0.5064
 1972SOL     OW 8869   2.709   7.711   3.437  0.2364 -0.5326 -0.2541
 1972SOL    HW1 8870   2.633   7.768   3.422  1.1123  0.6942 -0.1635
 1972SOL    HW2 8871   2.677   7.645   3.497 -0.6060  0.3375  0.2933
 1973SOL     OW 8872   4.552   1.677   0.726  0.6351  0.2518  0.3797
 1973SOL    HW1 8873   4.490   1.606   0.706 -1.8306  2.2806  0.3418
 1973SOL    HW2 8874   4.635   1.632   0.739 -0.7462 -2.6398  0.1961
 1974SOL     OW 8875   2.842   6.140   4.462 -0.0199  0.7950  0.5407
 1974SOL    HW1 8876   2.774   6.179   4.408 -0.4468  0.4607  0.8261
 1974SOL    HW2 8877   2.796   6.075   4.515  0.4378  0.9128  1.0923
 1975SOL     OW 8878   6.644   3.323   4.913  0.0787  0.0362  0.6707
 1975SOL    HW1 8879   6.688   3.397   4.955 -2.9415  1.3610  1.8532
 1975SOL    HW2 8880   6.631   3.351   4.823  0.8897 -0.0258  0.5282
 1976SOL     OW 8881   0.630   2.319   5.885 -0.1310 -0.1946  0.3967
 1976SOL    HW1 8882   0.538   2.317   5.912 -0.4059  0.0109 -0.4626
 1976SOL    HW2 8883   0.675   2.264   5.948 -0.9602 -0.8743  0.4167
 1977SOL     OW 8884   2.954   0.425   0.785 -0.4691  0.1188 -0.4260
 1977SOL    HW1 8885   2.884   0.485   0.808 -0.2918  0.4771 -0.8092
 1977SOL    HW2 8886   2.992   0.461   0.705  1.2460  0.8638  0.6696
 1978SOL     OW 8887   2.809   8.089   3.182  0.1077  0.6202  0.4382
 1978SOL    HW1 8888   2.739   8.115   3.242 -0.0113 -1.5011  1.3130
 1978SOL    HW2 8889   2.763   8.058   3.104  0.1477  0.8085  0.3397
 1979SOL     OW 8890   4.626   6.539   8.024 -0.3166 -0.1051 -0.0638
 1979SOL    HW1 8891   4.621   6.515   7.931 -2.9906  0.2205 -0.0801
 1979SOL    HW2 8892   4.613   6.634   8.025  0.7632  0.0536  0.6084
 1980SOL     OW 8893   0.192   3.911   5.925  0.0210  0.4492 -0.3211
 1980SOL    HW1 8894   0.284   3.885   5.929 -0.1532 -0.0979  0.2488
 1980SOL    HW2 8895   0.145   3.831   5.905 -0.1682  1.0976 -2.7036
 1981SOL     OW 8896   0.751   3.662   0.127 -0.2904 -0.2438  0.5348
 1981SOL    HW1 8897   0.825   3.601   0.121 -0.9675 -1.0557  0.1701
 1981SOL    HW2 8898   0.755   3.712   0.046 -0.0402 -0.1768  0.5889
 1982SOL     OW 8899   6.525   1.420   4.562  0.0878  0.7700 -0.0142
 1982SOL    HW1 8900   6.598   1.391   4.507  1.1224  1.3268  1.0294
 1982SOL    HW2 8901   6.483   1.339   4.590  0.7657  0.4083 -0.0208
 1983SOL     OW 8902   7.684   1.639   7.608  0.0613  0.3785  0.1216
 1983SOL    HW1 8903   7.758   1.691   7.641  0.0701  0.1770  0.4228
 1983SOL    HW2 8904   7.635   1.700   7.553  0.9495  0.2703 -0.8214
 1984SOL     OW 8905   7.218   2.728   5.236 -0.6236  0.2756 -0.8725
 1984SOL    HW1 8906   7.162   2.786   5.183 -0.9223 -0.2628 -1.1598
 1984SOL    HW2 8907   7.281   2.693   5.174 -2.3045 -2.0602 -1.4138
 1985SOL     OW 8908   5.153   5.037   5.012 -0.0420 -0.2910 -0.6283
 1985SOL    HW1 8909   5.068   5.050   5.054  0.5087 -0.1240  0.4681
 1985SOL    HW2 8910   5.213   5.092   5.061  0.6019  0.0831 -1.7887
 1986SOL     OW 8911   5.649   6.949   2.101  0.3150 -0.0237 -0.0861
 1986SOL    HW1 8912   5.568   6.996   2.122  0.1204 -0.6261  0.5525
 1986SOL    HW2 8913   5.704   6.960   2.179  0.5177 -0.3200 -0.1853
 1987SOL     OW 8914   0.443   4.631   1.872  0.1647 -0.4813 -0.3786
 1987SOL    HW1 8915   0.404   4.712   1.838  0.6086 -0.3099 -0.4905
 1987SOL    HW2 8916   0.498   4.599   1.801 -0.3806 -1.1467 -0.5102
 1988SOL     OW 8917   7.540   2.790   1.925  0.0655  0.3432 -0.4980
 1988SOL    HW1 8918   7.445   2.796   1.930  0.0680  1.3736 -1.1365
 1988SOL    HW2 8919   7.571   2.834   2.004 -0.0061  2.1701 -1.4103
 1989SOL     OW 8920   2.187   0.455   3.359 -0.5380 -0.2257 -0.5884
 1989SOL    HW1 8921   2.268   0.432   3.405  0.1934  0.8403 -1.3142
 1989SOL    HW2 8922   2.181   0.391   3.288 -0.2956 -0.2632 -0.5756
 1990SOL     OW 8923   0.271   2.108   2.070  0.1184 -0.2723 -0.2325
 1990SOL    HW1 8924   0.246   2.135   1.982  1.4803 -3.1759 -1.6548
 1990SOL    HW2 8925   0.365   2.088   2.064  0.6672  1.0702  2.3656
 1991SOL     OW 8926   0.857   6.353   7.183  0.4420 -0.3163  0.0695
 1991SOL    HW1 8927   0.948   6.381   7.185  0.4835 -0.4621  0.2309
 1991SOL    HW2 8928   0.847   6.306   7.100 -0.1711  2.0037 -1.2593
 1992SOL     OW 8929   0.488   2.761   6.809  0.7494  0.0621 -0.0799
 1992SOL    HW1 8930   0.540   2.793   6.882  2.6450 -1.3559 -0.7011
 1992SOL    HW2 8931   0.429   2.697   6.848  1.2816 -0.1927  0.3292
 1993SOL     OW 8932   3.853   4.339   6.465 -0.4725 -0.1670 -0.6537
 1993SOL    HW1 8933   3.828   4.400   6.535 -1.7082 -2.6025  1.1548
 1993SOL    HW2 8934   3.770   4.317   6.422 -0.2040 -1.3469 -0.5962
 1994SOL     OW 8935   7.412   2.929   0.690 -0.1857  0.1139  0.2256
 1994SOL    HW1 8936   7.366   3.003   0.729 -0.5379  0.5324 -0.9450
 1994SOL    HW2 8937   7.446   2.962   0.607 -0.6454 -1.1292 -0.4869
 1995SOL     OW 8938   2.105   4.469   4.099  0.4181  0.2346  0.3725
 1995SOL    HW1 8939   2.146   4.502   4.179  0.7820 -0.0001  0.2814
 1995SOL    HW2 8940   2.171   4.480   4.031  0.5609 -0.7156  0.3460
 1996SOL     OW 8941   4.374   1.388   7.162  0.0084  0.6591  0.2446
 1996SOL    HW1 8942   4.435   1.353   7.097  0.2872  1.6591 -0.0497
 1996SOL    HW2 8943   4.355   1.314   7.220  1.7310  0.3973  0.5222
 1997SOL     OW 8944   4.917   5.154   7.640 -0.2225 -0.5879  0.4025
 1997SOL    HW1 8945   4.915   5.247   7.618  2.4726 -0.2698  1.0856
 1997SOL    HW2 8946   4.858   5.146   7.715 -0.4118  0.5858  0.4024
 1998SOL     OW 8947   4.498   7.338   1.155 -0.8762  0.4504  0.3400
 1998SOL    HW1 8948   4.519   7.428   1.179 -1.4608  0.5013  0.6716
 1998SOL    HW2 8949   4.505   7.289   1.236 -0.8506  0.2505  0.2177
 1999SOL     OW 8950   3.655   2.090   5.564  0.2541  0.1162  0.1619
 1999SOL    HW1 8951   3.613   2.149   5.501 -0.5912 -1.1741 -0.5396
 1999SOL    HW2 8952   3.705   2.029   5.509  0.8195 -0.0498  0.8529
 2000SOL     OW 8953   3.587   4.077   1.867 -0.2882 -0.1418  0.1338
 2000SOL    HW1 8954   3.626   4.008   1.813 -0.4844 -0.6723  0.6552
 2000SOL    HW2 8955   3.613   4.054   1.956  1.9025  1.9441  0.1228
 2001SOL     OW 8956   0.012   3.811   6.585 -0.1601 -0.3197  0.9527
 2001SOL    HW1 8957  -0.023   3.820   6.496 -1.6302 -1.1551  1.3925
 2001SOL    HW2 8958   0.066   3.888   6.599 -0.5436  0.2100 -0.3888
 2002SOL     OW 8959   6.472   3.461   4.155 -0.7100  0.2275 -0.1092
 2002SOL    HW1 8960   6.381   3.465   4.127 -0.7621 -1.1322 -0.2196
 2002SOL    HW2 8961   6.489   3.367   4.167  0.1847  0.5587  1.5468
 2003SOL     OW 8962   0.867   1.172   8.079 -0.0209  0.2559  0.1479
 2003SOL    HW1 8963   0.849   1.080   8.095 -0.3475  0.1228 -0.9052
 2003SOL    HW2 8964   0.817   1.219   8.145 -0.2832 -0.2979  0.3458
 2004SOL     OW 8965   3.821   0.495   6.782 -0.4004  0.4517 -0.3360
 2004SOL    HW1 8966   3.848   0.451   6.701  2.3383  0.2282  0.5962
 2004SOL    HW2 8967   3.879   0.571   6.788  0.9268 -0.6343  2.3592
 2005SOL     OW 8968   2.295   7.546   6.595  0.0450 -0.4773 -0.2202
 2005SOL    HW1 8969   2.322   7.528   6.685 -0.7136 -1.2317 -0.1296
 2005SOL    HW2 8970   2.374   7.581   6.553 -0.1595  1.9862  1.2757
 2006SOL     OW 8971   6.894   7.355   1.143  0.4494  0.3928  0.4492
 2006SOL    HW1 8972   6.868   7.367   1.234  1.0951  0.0578  0.6864
 2006SOL    HW2 8973   6.819   7.314   1.101 -0.0068  0.9292  0.7354
 2007SOL     OW 8974   5.437   7.610   7.870 -0.0363  0.2813 -0.1418
 2007SOL    HW1 8975   5.509   7.665   7.900  0.0606  0.2832 -0.3797
 2007SOL    HW2 8976   5.479   7.538   7.824 -0.1281 -0.3908  0.8092
 2008SOL     OW 8977   6.981   5.244   5.586  0.2811  0.5824 -0.3113
 2008SOL    HW1 8978   7.074   5.229   5.571  0.4376  1.8374 -0.6692
 2008SOL    HW2 8979   6.957   5.179   5.652  1.4510  0.3709 -0.0689
 2009SOL     OW 8980   4.928   4.497   1.649 -0.7695 -0.1645 -0.1931
 2009SOL    HW1 8981   4.951   4.505   1.741  2.1978 -1.9680 -0.6435
 2009SOL    HW2 8982   4.891   4.409   1.641 -1.2524  0.0776 -0.6904
 2010SOL     OW 8983   2.327   5.749   0.640 -0.0354  0.5572 -0.7805
 2010SOL    HW1 8984   2.250   5.798   0.610 -1.0943  0.0275  0.9486
 2010SOL    HW2 8985   2.325   5.669   0.588 -1.3920  0.0058  0.0518
 2011SOL     OW 8986   0.716   7.368   7.314 -0.4023  0.4685  0.3102
 2011SOL    HW1 8987   0.679   7.279   7.314  1.7347 -0.4812  1.5302
 2011SOL    HW2 8988   0.791   7.363   7.255 -1.5719  2.1320 -1.4264
 2012SOL     OW 8989   7.182   5.139   3.879 -0.3378  0.6983 -0.1155
 2012SOL    HW1 8990   7.144   5.217   3.921 -1.4285  1.5279 -2.4589
 2012SOL    HW2 8991   7.220   5.089   3.952 -0.8140  2.7225  1.6468
 2013SOL     OW 8992   6.783   0.266   5.783  0.3591 -0.3461 -0.3795
 2013SOL    HW1 8993   6.778   0.310   5.698  5.4225  1.0827 -0.2871
 2013SOL    HW2 8994   6.816   0.179   5.763  1.1905 -0.1402  0.0610
 2014SOL     OW 8995   7.468   4.679   6.521  0.4168  1.1974 -0.2177
 2014SOL    HW1 8996   7.432   4.768   6.518  0.8145  1.4017  0.7572
 2014SOL    HW2 8997   7.400   4.628   6.565 -0.0664  0.8843 -1.3104
 2015SOL     OW 8998   3.443   4.004   7.144  0.3686  0.1717 -0.0576
 2015SOL    HW1 8999   3.386   3.937   7.106  0.8772  0.2524 -0.9791
 2015SOL    HW2 9000   3.498   4.033   7.072 -0.3778  2.1775  0.1335
 2016SOL     OW 9001   3.905   7.589   7.670 -0.0555  0.2501 -0.3628
 2016SOL    HW1 9002   3.996   7.611   7.653  0.4177 -0.7127  0.7818
 2016SOL    HW2 9003   3.877   7.540   7.592  0.0116  1.5320 -1.2365
 2017SOL     OW 9004   5.627   2.173   4.466  0.4169 -0.4843  0.4478
 2017SOL    HW1 9005   5.701   2.194   4.523 -0.8618  0.9679  1.6461
 2017SOL    HW2 9006   5.598   2.087   4.497  1.1797 -0.7597  0.4203
 2018SOL     OW 9007   6.717   8.100   7.740  0.0378  0.1759  0.9287
 2018SOL    HW1 9008   6.775   8.171   7.712  2.0143 -1.1648  1.4216
 2018SOL    HW2 9009   6.667   8.137   7.813 -0.2964  1.5960  0.0242
 2019SOL     OW 9010   6.546   4.032   6.100 -0.5503  1.4674 -0.2431
 2019SOL    HW1 9011   6.509   4.005   6.016  0.8167  0.6185 -0.6129
 2019SOL    HW2 9012   6.487   4.100   6.132 -3.8496 -1.4052  0.4049
 2020SOL     OW 9013   8.025   2.695   4.676 -0.3971 -0.1886 -0.5915
 2020SOL    HW1 9014   8.089   2.652   4.733  0.1647  0.2055 -0.9139
 2020SOL    HW2 9015   7.944   2.646   4.689 -0.1140 -0.4943  0.0690
 2021SOL     OW 9016   2.402   5.569   7.952 -0.1460  0.1420  0.2952
 2021SOL    HW1 9017   2.360   5.503   8.007  1.6997 -0.8289  0.6394
 2021SOL    HW2 9018   2.367   5.555   7.865 -2.1855  0.8842  0.9228
 2022SOL     OW 9019   0.275   7.370   7.975 -0.3423  0.5799  0.2982
 2022SOL    HW1 9020   0.201   7.388   7.917 -1.2259 -0.3449  1.0999
 2022SOL    HW2 9021   0.236   7.325   8.051  1.3089 -2.1313 -0.3307
 2023SOL     OW 9022   0.964   5.469   4.077  0.0386 -0.1394  0.1545
 2023SOL    HW1 9023   1.046   5.457   4.125 -0.4125  0.4577  1.0957
 2023SOL    HW2 9024   0.927   5.381   4.071  0.3198 -0.2862  0.5060
 2024SOL     OW 9025   3.714   5.524   6.276  0.2422 -0.6707 -0.1663
 2024SOL    HW1 9026   3.633   5.501   6.232  0.0982  0.7743 -0.6788
 2024SOL    HW2 9027   3.700   5.496   6.367  0.5049 -3.5648 -0.9083
 2025SOL     OW 9028   7.810   7.201   5.355  0.4680 -0.2594  0.1291
 2025SOL    HW1 9029   7.805   7.220   5.261  0.8936  0.9060  0.3195
 2025SOL    HW2 9030   7.752   7.266   5.396  0.0078 -0.9862  0.6522
 2026SOL     OW 9031   4.165   2.668   4.693  0.3246 -0.4455  0.4163
 2026SOL    HW1 9032   4.186   2.604   4.760 -0.4742 -0.6888  0.4511
 2026SOL    HW2 9033   4.069   2.672   4.693  0.2706 -1.0005 -1.2027
 2027SOL     OW 9034   2.404   7.027   7.142 -0.4674  0.4920  0.2607
 2027SOL    HW1 9035   2.417   6.954   7.202 -1.6364  0.8138  0.9441
 2027SOL    HW2 9036   2.441   6.997   7.059 -0.1710 -0.5420  0.7504
 2028SOL     OW 9037   0.903   1.984   0.119  0.1851 -0.3551  0.3769
 2028SOL    HW1 9038   0.877   1.978   0.027  0.6070 -0.8414  0.2849
 2028SOL    HW2 9039   0.838   1.930   0.165  1.2888 -2.0166  0.0828
 2029SOL     OW 9040   0.405   7.030   7.498  0.0764 -0.0719 -0.0271
 2029SOL    HW1 9041   0.309   7.036   7.501 -0.0655  0.2659 -3.0314
 2029SOL    HW2 9042   0.423   6.937   7.482  0.0717  0.2901 -2.3579
 2030SOL     OW 9043   7.031   2.065   2.743 -0.2139 -0.1468 -0.0390
 2030SOL    HW1 9044   7.023   1.970   2.736 -4.4831 -0.1639  1.7815
 2030SOL    HW2 9045   6.980   2.100   2.669  1.3537  0.7705 -0.7250
 2031SOL     OW 9046   1.634   1.314   2.227 -0.6641 -0.0444 -0.2661
 2031SOL    HW1 9047   1.676   1.388   2.184 -1.2912 -0.0858 -0.9888
 2031SOL    HW2 9048   1.649   1.328   2.321 -0.4407  0.7817 -0.4183
 2032SOL     OW 9049   7.967   6.432   4.462 -0.1067 -0.0515 -0.2555
 2032SOL    HW1 9050   7.924   6.517   4.450  0.1733  0.0684 -0.4204
 2032SOL    HW2 9051   7.940   6.403   4.549 -3.3088 -1.5637 -1.5816
 2033SOL     OW 9052   1.657   5.410   4.975  0.5466 -0.2255 -0.1656
 2033SOL    HW1 9053   1.662   5.314   4.984 -2.0424 -0.3950  0.1046
 2033SOL    HW2 9054   1.653   5.442   5.065  0.9589  0.1297 -0.2678
 2034SOL     OW 9055   4.378   0.982   1.085 -0.2302 -0.0322 -0.2986
 2034SOL    HW1 9056   4.378   1.053   1.021 -1.6995  0.4232  0.1622
 2034SOL    HW2 9057   4.451   1.003   1.144 -0.4607  0.9464 -0.3422
 2035SOL     OW 9058   4.704   2.129   5.728 -0.0551  0.0238  0.3754
 2035SOL    HW1 9059   4.800   2.133   5.733 -0.0900 -0.1344  1.5505
 2035SOL    HW2 9060   4.679   2.075   5.803 -0.9029 -2.4332 -1.5449
 2036SOL     OW 9061   4.195   8.073   5.407 -0.0705 -0.0627 -0.4647
 2036SOL    HW1 9062   4.189   8.078   5.502 -0.2815 -3.2623 -0.2174
 2036SOL    HW2 9063   4.104   8.077   5.377  0.0067  1.1873 -0.6238
 2037SOL     OW 9064   0.415   1.270   3.547 -0.2433 -0.7147  0.0924
 2037SOL    HW1 9065   0.500   1.243   3.512 -0.9855 -1.3142 -1.3214
 2037SOL    HW2 9066   0.361   1.191   3.543 -1.0640 -0.1794  0.3467
 2038SOL     OW 9067   7.341   7.208   4.129  0.2723 -0.3653  0.7499
 2038SOL    HW1 9068   7.329   7.269   4.201 -1.8418  0.4299 -0.1951
 2038SOL    HW2 9069   7.351   7.122   4.171  0.1304  0.2150  1.9876
 2039SOL     OW 9070   4.282   2.512   2.607  0.4217  0.3330  0.0530
 2039SOL    HW1 9071   4.369   2.522   2.570  0.8981 -1.4764  0.5559
 2039SOL    HW2 9072   4.283   2.425   2.649 -2.3755 -0.9560 -2.1254
 2040SOL     OW 9073   0.745   0.159   4.934  0.2878 -0.0782 -0.1976
 2040SOL    HW1 9074   0.657   0.122   4.927  0.4698 -0.2969 -1.4094
 2040SOL    HW2 9075   0.781   0.119   5.013  0.5474 -2.6570 -1.5337
 2041SOL     OW 9076   3.046   7.811   0.552  0.3374 -0.3763  0.1599
 2041SOL    HW1 9077   2.969   7.805   0.496 -0.2260  2.0916  0.5868
 2041SOL    HW2 9078   3.034   7.740   0.616 -1.4112 -0.2395  0.0298
 2042SOL     OW 9079   1.557   1.281   3.353 -0.4294  0.2177 -0.0391
 2042SOL    HW1 9080   1.510   1.200   3.374  0.1435  0.0043  0.4456
 2042SOL    HW2 9081   1.632   1.252   3.300  1.0840  0.1212  2.0285
 2043SOL     OW 9082   0.502   0.897   0.823  0.1613  0.2534  0.0160
 2043SOL    HW1 9083   0.572   0.835   0.805  0.7606  1.1859 -1.0344
 2043SOL    HW2 9084   0.480   0.934   0.737  0.0575  1.7235  0.6391
 2044SOL     OW 9085   3.651   6.599   6.676  0.1639  0.0208  0.2010
 2044SOL    HW1 9086   3.700   6.528   6.633  1.8127  0.9553  0.4572
 2044SOL    HW2 9087   3.586   6.626   6.612 -1.7444 -2.8663  0.7241
 2045SOL     OW 9088   1.934   6.781   1.833 -0.2593 -1.1071 -0.0064
 2045SOL    HW1 9089   1.850   6.792   1.877 -0.4009  0.7350 -0.6570
 2045SOL    HW2 9090   1.997   6.824   1.890  0.1127 -1.6799  0.0263
 2046SOL     OW 9091   1.209   7.584   7.976 -0.5035 -0.3307 -0.1480
 2046SOL    HW1 9092   1.151   7.591   8.052  0.7722  0.3975  0.7845
 2046SOL    HW2 9093   1.296   7.572   8.013 -0.3906 -7.1775 -1.3603
 2047SOL     OW 9094   7.079   4.565   5.758 -0.0982  0.0394 -0.4236
 2047SOL    HW1 9095   7.007   4.600   5.811  0.1459  1.2234 -0.8473
 2047SOL    HW2 9096   7.045   4.481   5.725 -1.3608  0.6553 -0.7753
 2048SOL     OW 9097   2.616   1.930   4.761  0.2909 -0.1725  0.0914
 2048SOL    HW1 9098   2.695   1.921   4.707  0.5822  1.2450  0.2321
 2048SOL    HW2 9099   2.649   1.928   4.851 -0.1494 -2.1286  0.2523
 2049SOL     OW 9100   5.771   2.406   7.301  0.6830  0.4891 -0.3729
 2049SOL    HW1 9101   5.695   2.406   7.360  1.0104  2.8767  0.1680
 2049SOL    HW2 9102   5.816   2.324   7.320 -1.5745 -0.8623 -0.5097
 2050SOL     OW 9103   2.124   7.266   1.400  0.6684  0.3883 -0.0588
 2050SOL    HW1 9104   2.121   7.295   1.309 -0.0206 -0.4740 -0.3331
 2050SOL    HW2 9105   2.193   7.199   1.402 -0.0571 -0.3879 -0.2171
 2051SOL     OW 9106   1.694   6.686   3.003 -0.0748  0.3716  0.1200
 2051SOL    HW1 9107   1.693   6.779   3.022  0.3169  0.3556  0.2427
 2051SOL    HW2 9108   1.642   6.676   2.924  1.5445  0.9661 -1.0851
 2052SOL     OW 9109   6.089   1.275   3.657  0.1624  0.0509  0.7543
 2052SOL    HW1 9110   6.142   1.342   3.700 -1.2464  2.0904 -0.5012
 2052SOL    HW2 9111   6.145   1.242   3.587  0.1219  1.5925 -0.0482
 2053SOL     OW 9112   0.491   3.659   6.780  0.2132 -0.2998 -0.2626
 2053SOL    HW1 9113   0.398   3.681   6.767  0.2748  0.2285  0.1625
 2053SOL    HW2 9114   0.538   3.729   6.734  0.4081  0.2783  0.7762
 2054SOL     OW 9115   0.171   0.815   0.135  0.4531 -0.0794  0.1248
 2054SOL    HW1 9116   0.242   0.878   0.132  1.5099 -1.2739 -0.9488
 2054SOL    HW2 9117   0.152   0.804   0.229  0.9665  1.0058  0.3629
 2055SOL     OW 9118   1.283   4.382   0.917 -0.2863 -0.1255  0.3421
 2055SOL    HW1 9119   1.203   4.408   0.964 -1.2204 -2.0828 -0.0787
 2055SOL    HW2 9120   1.345   4.361   0.987 -0.3827  0.6491  0.6753
 2056SOL     OW 9121   1.855   1.962   6.517  0.1858 -0.0312 -0.1570
 2056SOL    HW1 9122   1.944   1.995   6.501  0.5614 -0.6094  0.6418
 2056SOL    HW2 9123   1.811   2.033   6.563  1.2232 -0.7978  2.2447
 2057SOL     OW 9124   5.962   2.228   1.033 -0.8269 -0.3356  1.0877
 2057SOL    HW1 9125   6.013   2.162   0.986  1.1244  0.9937  1.1996
 2057SOL    HW2 9126   5.936   2.186   1.115 -0.5449 -1.2858  0.6942
 2058SOL     OW 9127   2.727   3.191   1.082 -0.2130 -1.2281 -0.2061
 2058SOL    HW1 9128   2.710   3.260   1.017 -1.6532 -0.9451  0.4266
 2058SOL    HW2 9129   2.738   3.238   1.165 -1.4492 -1.7456  0.2785
 2059SOL     OW 9130   4.962   0.493   2.699 -0.2429  0.1646  0.5462
 2059SOL    HW1 9131   4.893   0.535   2.647  1.2823  0.7185 -1.1822
 2059SOL    HW2 9132   5.025   0.463   2.633  1.2125 -0.2001  2.0502
 2060SOL     OW 9133   2.401   1.952   4.596  0.0349 -0.3765  0.0425
 2060SOL    HW1 9134   2.474   1.920   4.649 -0.6052 -1.1928  0.4516
 2060SOL    HW2 9135   2.323   1.914   4.637 -0.4546 -1.4532 -1.7873
 2061SOL     OW 9136   3.168   2.701   0.943 -0.3987  0.1786  0.1269
 2061SOL    HW1 9137   3.241   2.704   1.005  0.7050  0.9236 -1.1580
 2061SOL    HW2 9138   3.199   2.748   0.866 -2.0685  0.0870 -0.6590
 2062SOL     OW 9139   3.756   1.083   5.991  0.1064  0.2793 -0.2986
 2062SOL    HW1 9140   3.759   1.108   6.083 -0.2380  0.8305 -0.4310
 2062SOL    HW2 9141   3.787   1.160   5.944 -0.0920  0.1408 -0.6623
 2063SOL     OW 9142   5.024   0.774   1.232 -0.5056  0.1935 -0.2948
 2063SOL    HW1 9143   5.072   0.731   1.302 -3.6283 -0.7068  1.4340
 2063SOL    HW2 9144   5.039   0.718   1.155  1.8315  0.4477 -0.0993
 2064SOL     OW 9145   7.982   7.897   8.015  0.1941 -0.2521 -0.3445
 2064SOL    HW1 9146   8.031   7.817   7.993 -0.0556 -0.9787  1.5743
 2064SOL    HW2 9147   8.035   7.940   8.082 -1.0578 -0.3282  0.7409
 2065SOL     OW 9148   3.375   2.253   0.401 -0.3207  0.2224  0.0052
 2065SOL    HW1 9149   3.359   2.167   0.441 -0.7844  0.1899 -0.2384
 2065SOL    HW2 9150   3.371   2.236   0.307 -2.4002  0.8446 -0.0675
 2066SOL     OW 9151   3.752   4.686   4.269  0.0245  0.3296  0.6152
 2066SOL    HW1 9152   3.783   4.622   4.333  1.3452 -0.0607 -0.3655
 2066SOL    HW2 9153   3.662   4.705   4.296  0.1067 -0.8014  1.8084
 2067SOL     OW 9154   2.347   3.537   5.688 -0.0671 -0.0283  0.8001
 2067SOL    HW1 9155   2.296   3.583   5.755 -0.6057 -0.1183  0.4629
 2067SOL    HW2 9156   2.363   3.603   5.621 -0.0530 -0.0977  0.7355
 2068SOL     OW 9157   5.848   5.425   8.055  0.5852  0.2205 -0.6986
 2068SOL    HW1 9158   5.877   5.500   8.002 -1.9785  0.8427 -1.3768
 2068SOL    HW2 9159   5.821   5.464   8.138  0.9240 -0.2245 -0.3751
 2069SOL     OW 9160   6.814   1.272   3.061  0.3183 -0.4033 -0.1961
 2069SOL    HW1 9161   6.727   1.242   3.035 -0.7849  2.3708 -0.0881
 2069SOL    HW2 9162   6.824   1.243   3.151  0.8056 -3.1958 -1.0331
 2070SOL     OW 9163   2.899   3.032   0.108  0.0913  0.2479 -0.9770
 2070SOL    HW1 9164   2.879   3.016   0.200 -0.1947 -1.8489 -1.3626
 2070SOL    HW2 9165   2.865   3.120   0.091  0.4499  0.7979  0.9842
 2071SOL     OW 9166   5.945   2.651   4.286  0.1459  0.0813 -0.0410
 2071SOL    HW1 9167   5.887   2.583   4.320 -0.5450  0.4831 -0.3998
 2071SOL    HW2 9168   5.985   2.690   4.364 -0.6828  0.3406  0.2616
 2072SOL     OW 9169   0.001   8.130   0.079 -0.4735  0.2390 -0.1168
 2072SOL    HW1 9170   0.040   8.199   0.025  0.4498 -0.3141 -0.1786
 2072SOL    HW2 9171   0.076   8.084   0.116 -1.0912 -0.1401  0.6887
 2073SOL     OW 9172   5.257   4.208   8.006  0.0393 -0.0564  0.0435
 2073SOL    HW1 9173   5.169   4.174   7.994 -0.0651 -0.2237  1.1156
 2073SOL    HW2 9174   5.246   4.282   8.067  0.6042  0.0792 -0.0113
 2074SOL     OW 9175   8.068   6.297   5.328  0.3014  0.2286  0.3117
 2074SOL    HW1 9176   8.132   6.229   5.351 -1.1182 -0.6348  1.9088
 2074SOL    HW2 9177   8.024   6.318   5.410 -0.2077  2.1670 -0.3966
 2075SOL     OW 9178   2.950   7.291   6.722 -0.0935 -0.3780  0.5085
 2075SOL    HW1 9179   2.988   7.212   6.684 -0.9997 -0.3358 -0.5505
 2075SOL    HW2 9180   2.868   7.304   6.674 -1.0235  0.0156  2.1164
 2076SOL     OW 9181   4.624   2.555   6.665 -0.0257  0.1429 -0.2717
 2076SOL    HW1 9182   4.546   2.568   6.720  0.4505  0.2075  0.4074
 2076SOL    HW2 9183   4.603   2.599   6.583 -1.2471 -1.0159 -0.6108
 2077SOL     OW 9184   5.194   0.773   4.386  0.3059  0.0765  0.1921
 2077SOL    HW1 9185   5.212   0.679   4.389  2.0312  0.3950  0.9809
 2077SOL    HW2 9186   5.173   0.791   4.294 -0.3040 -1.1036  0.0848
 2078SOL     OW 9187   7.695   0.227   1.333 -0.3969 -0.0771 -0.1972
 2078SOL    HW1 9188   7.713   0.257   1.244 -0.5366 -2.2446 -1.0212
 2078SOL    HW2 9189   7.767   0.168   1.353 -0.3668  0.3859  1.1532
 2079SOL     OW 9190   2.654   4.829   4.786 -0.4892  0.5443  0.0627
 2079SOL    HW1 9191   2.690   4.778   4.858  0.0142  0.2420 -0.3906
 2079SOL    HW2 9192   2.584   4.881   4.825 -0.0705  0.5572  0.8092
 2080SOL     OW 9193   1.835   0.213   7.886  0.0111  0.2216  0.2564
 2080SOL    HW1 9194   1.929   0.197   7.885 -0.3076 -2.1887  1.0237
 2080SOL    HW2 9195   1.807   0.187   7.974 -1.6425 -1.3151 -0.6349
 2081SOL     OW 9196   6.376   3.017   1.222 -0.0620 -0.0964 -0.0092
 2081SOL    HW1 9197   6.461   3.005   1.180 -0.0993  1.1897 -0.5087
 2081SOL    HW2 9198   6.331   3.081   1.167 -0.0635  1.7609  2.0210
 2082SOL     OW 9199   2.065   2.275   6.186 -0.2990  0.2720  0.0779
 2082SOL    HW1 9200   2.059   2.370   6.176 -0.9203  0.2958  0.5786
 2082SOL    HW2 9201   2.109   2.245   6.107 -2.2586  0.7289 -1.2675
 2083SOL     OW 9202   6.720   7.344   5.028  0.3099  0.0581 -0.2229
 2083SOL    HW1 9203   6.714   7.426   5.076 -1.2141 -0.1383 -0.0119
 2083SOL    HW2 9204   6.714   7.276   5.096 -2.4816 -0.2352 -0.6105
 2084SOL     OW 9205   2.130   6.727   4.338 -0.2143 -0.3097 -0.0371
 2084SOL    HW1 9206   2.054   6.776   4.368  0.2010  0.3250  0.0110
 2084SOL    HW2 9207   2.138   6.750   4.245 -0.0753 -0.3651 -0.0389
 2085SOL     OW 9208   2.952   0.892   5.659 -0.9505  0.3736  0.3548
 2085SOL    HW1 9209   3.015   0.963   5.660 -0.9663  0.3998 -0.1172
 2085SOL    HW2 9210   2.995   0.822   5.610 -0.5062 -0.3574  1.7257
 2086SOL     OW 9211   6.802   0.573   2.540  0.1018 -0.1191 -0.8352
 2086SOL    HW1 9212   6.819   0.667   2.549  0.4441 -0.2131 -0.4580
 2086SOL    HW2 9213   6.847   0.533   2.615 -2.3571 -0.3497  0.6361
 2087SOL     OW 9214   5.686   1.969   3.114 -0.1134  0.4118  0.5023
 2087SOL    HW1 9215   5.670   1.902   3.180 -3.6494  1.7191  1.1782
 2087SOL    HW2 9216   5.760   2.019   3.148  1.0910 -1.6465  1.1166
 2088SOL     OW 9217   0.328   7.393   2.703  0.0609  0.1469  0.3318
 2088SOL    HW1 9218   0.353   7.442   2.624  0.6007 -0.4027  0.1478
 2088SOL    HW2 9219   0.358   7.303   2.685 -2.6601 -0.7299 -0.1882
 2089SOL     OW 9220   7.068   4.500   0.713  0.4632  0.4129  0.1981
 2089SOL    HW1 9221   6.992   4.558   0.706  2.0088  2.5202 -0.0371
 2089SOL    HW2 9222   7.118   4.515   0.633  1.6990 -0.0661  0.8439
 2090SOL     OW 9223   7.993   7.066   1.719 -0.3671  0.2465 -0.0721
 2090SOL    HW1 9224   7.924   7.072   1.653  0.2925 -1.0038 -0.9058
 2090SOL    HW2 9225   8.012   6.972   1.725  0.1060  0.4153  1.3646
 2091SOL     OW 9226   5.313   7.552   5.678 -0.7392  0.3825  0.0037
 2091SOL    HW1 9227   5.372   7.627   5.684 -0.6622  0.4925 -1.5188
 2091SOL    HW2 9228   5.235   7.588   5.634 -1.1272 -0.1906  0.2195
 2092SOL     OW 9229   4.431   8.080   4.737 -1.0003  0.0323 -0.0941
 2092SOL    HW1 9230   4.381   8.104   4.659  0.2038 -0.4845 -1.0621
 2092SOL    HW2 9231   4.440   7.985   4.732 -0.4942  0.0434  0.4115
 2093SOL     OW 9232   0.821   5.271   5.911 -0.2773 -0.4911  0.3984
 2093SOL    HW1 9233   0.826   5.178   5.889  3.3072 -0.1536 -0.9039
 2093SOL    HW2 9234   0.896   5.286   5.969  0.8586  1.9526 -1.4801
 2094SOL     OW 9235   6.888   3.466   6.551  0.4421  0.6684  0.4600
 2094SOL    HW1 9236   6.973   3.433   6.582  0.0283  0.7655  1.7917
 2094SOL    HW2 9237   6.876   3.549   6.598  0.7511  1.9869 -1.6522
 2095SOL     OW 9238   1.962   6.285   3.536  0.4957  0.5456 -0.0313
 2095SOL    HW1 9239   2.022   6.212   3.551 -0.6707  0.0819  3.0050
 2095SOL    HW2 9240   1.878   6.254   3.570 -0.3812  2.7870 -0.0023
 2096SOL     OW 9241   0.633   6.821   6.209 -0.1743  0.0648  0.1672
 2096SOL    HW1 9242   0.549   6.834   6.167 -0.2678 -2.0636 -0.4248
 2096SOL    HW2 9243   0.612   6.797   6.299 -0.1345  0.7310  0.3594
 2097SOL     OW 9244   4.093   7.564   0.387 -0.2032  0.1162 -0.7395
 2097SOL    HW1 9245   4.008   7.564   0.431 -0.1322  0.0504 -0.6025
 2097SOL    HW2 9246   4.073   7.588   0.297 -0.2334  1.3371 -0.4362
 2098SOL     OW 9247   4.699   4.130   7.806  0.0946  0.3696 -0.5380
 2098SOL    HW1 9248   4.750   4.171   7.736 -0.2349  0.2857 -0.8287
 2098SOL    HW2 9249   4.666   4.049   7.766 -1.3423  1.0446 -0.7752
 2099SOL     OW 9250   7.907   3.720   2.207 -0.3184 -0.6050 -0.0180
 2099SOL    HW1 9251   7.980   3.781   2.223  1.1471 -2.0946 -0.7160
 2099SOL    HW2 9252   7.852   3.727   2.285  0.2618  0.9764  0.2894
 2100SOL     OW 9253   2.274   0.676   5.853 -0.4130  0.1708 -0.4518
 2100SOL    HW1 9254   2.231   0.593   5.830  1.1013 -0.8139  0.0883
 2100SOL    HW2 9255   2.218   0.714   5.921 -1.3719 -0.1727 -1.0322
 2101SOL     OW 9256   6.821   1.304   5.552  0.0970  0.3400  0.0367
 2101SOL    HW1 9257   6.915   1.310   5.566 -0.0174  0.6579  0.7136
 2101SOL    HW2 9258   6.807   1.337   5.463  0.4358  1.9913  0.5589
 2102SOL     OW 9259   3.631   4.172   5.749  0.0621 -0.5737 -0.1469
 2102SOL    HW1 9260   3.570   4.229   5.797 -2.8632 -3.2632 -0.3526
 2102SOL    HW2 9261   3.685   4.132   5.817 -0.4553 -0.4246  0.3555
 2103SOL     OW 9262   4.972   4.732   6.441 -0.3204 -0.3881 -0.0145
 2103SOL    HW1 9263   4.986   4.639   6.424 -0.0716 -0.2314 -0.6965
 2103SOL    HW2 9264   5.047   4.759   6.493  0.3146 -0.2670 -0.9762
 2104SOL     OW 9265   7.334   2.186   1.640  0.1482  0.1443  0.4182
 2104SOL    HW1 9266   7.339   2.146   1.553  1.0506  0.6131  0.2352
 2104SOL    HW2 9267   7.355   2.115   1.701 -0.1809 -0.1106  0.2369
 2105SOL     OW 9268   0.324   6.486   1.996 -0.5347  0.0249  0.5944
 2105SOL    HW1 9269   0.399   6.517   1.945 -0.2865  2.8051  2.4228
 2105SOL    HW2 9270   0.249   6.532   1.959 -0.6221  0.6566  1.5200
 2106SOL     OW 9271   5.969   7.370   1.828 -0.2299 -0.0010  0.8660
 2106SOL    HW1 9272   5.979   7.342   1.737  1.0096  0.3122  0.8801
 2106SOL    HW2 9273   6.023   7.309   1.878 -1.1882 -0.3899  1.4460
 2107SOL     OW 9274   6.257   0.634   5.851 -0.4260 -0.8284 -0.8642
 2107SOL    HW1 9275   6.334   0.637   5.794 -0.2677 -2.0816 -0.7458
 2107SOL    HW2 9276   6.191   0.588   5.799 -0.4848 -1.4207 -0.2755
 2108SOL     OW 9277   1.544   5.185   7.483  0.1908 -0.2056 -0.6294
 2108SOL    HW1 9278   1.614   5.235   7.441  0.4616 -1.3436 -1.5986
 2108SOL    HW2 9279   1.572   5.093   7.476 -0.3106 -0.5254  1.0425
 2109SOL     OW 9280   0.386   1.478   3.729  0.2688  0.1009  0.5307
 2109SOL    HW1 9281   0.387   1.427   3.647 -0.0013  0.7551  0.1088
 2109SOL    HW2 9282   0.370   1.568   3.700 -1.3046  0.1287  1.4104
 2110SOL     OW 9283   7.620   1.753   5.196 -0.0298 -0.2486 -0.0478
 2110SOL    HW1 9284   7.583   1.748   5.108 -1.0441 -2.1153  0.4247
 2110SOL    HW2 9285   7.565   1.818   5.241  0.2955  0.4814 -0.6847
 2111SOL     OW 9286   4.511   0.997   7.207  0.1309  0.1431 -0.4734
 2111SOL    HW1 9287   4.586   1.035   7.162  1.2601 -0.6162  0.6940
 2111SOL    HW2 9288   4.549   0.946   7.279 -1.5010 -0.2788  0.1447
 2112SOL     OW 9289   1.715   3.161   1.258  0.0815 -0.2584 -0.7820
 2112SOL    HW1 9290   1.807   3.143   1.277 -0.2626 -1.3345 -0.0644
 2112SOL    HW2 9291   1.695   3.239   1.312  0.2758 -0.7078 -0.0459
 2113SOL     OW 9292   6.398   6.143   0.781 -0.1337  0.2393 -0.2006
 2113SOL    HW1 9293   6.338   6.144   0.856  2.2224  1.0455  1.7859
 2113SOL    HW2 9294   6.427   6.233   0.772  3.6394 -0.6140  1.4446
 2114SOL     OW 9295   6.764   4.935   6.572 -0.3596 -0.7130 -0.1099
 2114SOL    HW1 9296   6.770   4.935   6.668 -1.1545  2.7057  0.0752
 2114SOL    HW2 9297   6.854   4.951   6.543 -0.5476  1.6052  0.3351
 2115SOL     OW 9298   5.240   7.395   3.456  0.1386 -0.0929  0.0824
 2115SOL    HW1 9299   5.217   7.314   3.411  1.3174  0.0284 -0.7935
 2115SOL    HW2 9300   5.307   7.369   3.519  1.2182  0.3303 -0.8640
 2116SOL     OW 9301   4.472   1.298   4.210 -0.2959 -0.2958  0.3291
 2116SOL    HW1 9302   4.477   1.381   4.163  2.1954 -0.2502  0.5271
 2116SOL    HW2 9303   4.542   1.245   4.172 -0.0759 -1.3062  2.0355
 2117SOL     OW 9304   6.918   6.533   0.625  0.5735  0.2378 -0.0393
 2117SOL    HW1 9305   6.843   6.515   0.568  0.9404 -2.1740  0.1302
 2117SOL    HW2 9306   6.888   6.605   0.681 -1.8287 -0.9626  0.3556
 2118SOL     OW 9307   8.015   7.997   7.395  0.3724  0.2266  0.2135
 2118SOL    HW1 9308   8.051   7.952   7.471 -0.2093  0.4519  0.6356
 2118SOL    HW2 9309   8.070   8.074   7.384  0.4430  0.2073  0.4258
 2119SOL     OW 9310   3.713   6.014   1.018 -0.4816  0.0017 -0.0166
 2119SOL    HW1 9311   3.705   5.976   1.105 -0.6274  0.0535 -0.0077
 2119SOL    HW2 9312   3.787   6.075   1.025 -0.1254 -0.4147 -0.0806
 2120SOL     OW 9313   2.863   2.215   4.695  0.2524  0.2573  0.0453
 2120SOL    HW1 9314   2.794   2.175   4.641  0.4805 -0.0451 -0.0253
 2120SOL    HW2 9315   2.909   2.273   4.635 -1.1209  1.9194  0.5455
 2121SOL     OW 9316   0.038   7.614   1.185 -0.2251  0.3925  0.1726
 2121SOL    HW1 9317   0.063   7.657   1.104  1.8247  0.6813  0.8892
 2121SOL    HW2 9318   0.098   7.540   1.192 -1.0227 -0.2049  0.9541
 2122SOL     OW 9319   3.435   1.315   7.820 -0.4253  0.0973  0.4485
 2122SOL    HW1 9320   3.431   1.300   7.914 -0.9682 -1.1718  0.2464
 2122SOL    HW2 9321   3.358   1.270   7.785  2.1129 -3.5213 -1.0870
 2123SOL     OW 9322   4.960   5.854   5.447  0.4420  0.0781 -0.2674
 2123SOL    HW1 9323   4.936   5.879   5.357  0.4428  0.0642 -0.2717
 2123SOL    HW2 9324   4.924   5.765   5.457  1.2039 -0.2677 -0.5570
 2124SOL     OW 9325   1.391   0.912   5.829 -0.8354 -0.1781  0.1719
 2124SOL    HW1 9326   1.296   0.900   5.830 -0.7636 -0.7264  0.9851
 2124SOL    HW2 9327   1.418   0.903   5.920  0.1853 -1.5862 -0.2379
 2125SOL     OW 9328   4.246   2.245   0.855 -0.5275 -0.4959  0.9070
 2125SOL    HW1 9329   4.239   2.176   0.789  0.4338  0.0192  0.2457
 2125SOL    HW2 9330   4.169   2.233   0.911 -0.1261 -2.4258  1.1153
 2126SOL     OW 9331   1.824   5.681   5.089  0.1589  0.2472 -0.0898
 2126SOL    HW1 9332   1.855   5.608   5.143 -0.2065  0.1731  0.0264
 2126SOL    HW2 9333   1.729   5.682   5.104  0.1332  0.5949 -0.2783
 2127SOL     OW 9334   1.972   1.886   0.051  0.4104 -0.3477 -0.8678
 2127SOL    HW1 9335   1.892   1.937   0.037 -0.3066 -0.6545  1.7092
 2127SOL    HW2 9336   2.019   1.893  -0.032  0.0847  3.9662 -0.9050
 2128SOL     OW 9337   0.369   2.223   7.613 -0.5844 -0.0273  0.0123
 2128SOL    HW1 9338   0.360   2.236   7.518  1.2990  1.9481  0.0441
 2128SOL    HW2 9339   0.330   2.137   7.628 -0.6434 -0.5534 -2.6048
 2129SOL     OW 9340   6.230   5.563   4.015  0.4694 -0.1297  0.1965
 2129SOL    HW1 9341   6.139   5.584   4.033  0.0762  0.6671 -2.2732
 2129SOL    HW2 9342   6.229   5.471   3.991  0.5702 -0.4888  1.5154
 2130SOL     OW 9343   4.138   3.288   3.960 -0.0691  0.2930 -0.5453
 2130SOL    HW1 9344   4.147   3.232   3.883 -0.3522 -0.0224 -0.3475
 2130SOL    HW2 9345   4.211   3.263   4.017 -0.6441 -0.4208 -0.1124
 2131SOL     OW 9346   6.548   3.796   6.462 -0.3397  0.3375 -0.0689
 2131SOL    HW1 9347   6.474   3.846   6.497 -1.7990 -0.7182 -1.4719
 2131SOL    HW2 9348   6.617   3.861   6.449 -0.2545  1.0332  3.0985
 2132SOL     OW 9349   0.256   0.143   6.255  0.4028  0.2354 -0.2447
 2132SOL    HW1 9350   0.173   0.129   6.210  0.6369  0.5483 -0.7884
 2132SOL    HW2 9351   0.271   0.237   6.247  1.6977 -0.0602 -1.7547
 2133SOL     OW 9352   1.873   0.339   3.814  0.3962  0.2298 -0.1779
 2133SOL    HW1 9353   1.922   0.418   3.836  0.7006 -0.0479  0.1453
 2133SOL    HW2 9354   1.901   0.274   3.879  0.6991 -0.3596 -0.8862
 2134SOL     OW 9355   3.638   1.660   7.666 -0.5815  0.4014 -0.4755
 2134SOL    HW1 9356   3.562   1.667   7.724  0.0749  1.2199  0.2946
 2134SOL    HW2 9357   3.611   1.596   7.600 -1.3345 -0.5444  0.7165
 2135SOL     OW 9358   7.633   6.831   1.903  0.2407 -0.0486  0.2180
 2135SOL    HW1 9359   7.640   6.925   1.916 -0.8404  0.3095 -1.5195
 2135SOL    HW2 9360   7.566   6.820   1.835  0.2008 -2.0806  0.5000
 2136SOL     OW 9361   3.365   6.443   5.289  0.2373  0.5621  0.2673
 2136SOL    HW1 9362   3.296   6.428   5.224  0.0601 -2.4958  1.0244
 2136SOL    HW2 9363   3.317   6.461   5.370  0.3981  0.5219  0.3696
 2137SOL     OW 9364   7.730   0.573   0.500  0.2146  0.2987  0.1488
 2137SOL    HW1 9365   7.752   0.665   0.488  0.0119  0.1697 -1.3412
 2137SOL    HW2 9366   7.682   0.548   0.422 -3.5858 -0.0043  2.3460
 2138SOL     OW 9367   5.973   4.933   4.514 -0.8229  0.0541 -0.6194
 2138SOL    HW1 9368   6.048   4.874   4.502  0.1877  1.1802 -0.0569
 2138SOL    HW2 9369   5.989   5.004   4.451 -0.7922  0.8843  0.3085
 2139SOL     OW 9370   2.345   4.296   0.262 -0.2781  0.1715  0.7576
 2139SOL    HW1 9371   2.328   4.243   0.184  0.5889  0.0012  0.6749
 2139SOL    HW2 9372   2.268   4.284   0.317 -1.0000  0.4710 -0.1690
 2140SOL     OW 9373   1.677   6.498   4.246  0.5213  0.3399  0.4299
 2140SOL    HW1 9374   1.759   6.472   4.205  0.6657  1.3568  0.0384
 2140SOL    HW2 9375   1.632   6.416   4.264  1.4228 -0.2094  0.2328
 2141SOL     OW 9376   3.974   5.488   2.039  0.6971  0.3857  0.4375
 2141SOL    HW1 9377   4.057   5.491   1.993  0.7349  0.3071  0.5000
 2141SOL    HW2 9378   3.973   5.566   2.094  0.9494  0.1261  0.8138
 2142SOL     OW 9379   7.750   6.127   2.893 -0.1879 -0.0485  0.3230
 2142SOL    HW1 9380   7.672   6.093   2.849 -1.0653 -1.4325  2.7432
 2142SOL    HW2 9381   7.717   6.202   2.944  0.7784  1.4528 -1.1679
 2143SOL     OW 9382   6.927   3.395   5.263  0.5642 -0.0747  0.1123
 2143SOL    HW1 9383   6.873   3.392   5.184 -0.9330  1.0558  1.0282
 2143SOL    HW2 9384   6.964   3.483   5.263  0.6796 -0.1226  0.5830
 2144SOL     OW 9385   1.991   1.175   1.094 -0.6868 -0.0394 -0.3919
 2144SOL    HW1 9386   1.921   1.195   1.155 -1.5798 -1.7116 -0.8115
 2144SOL    HW2 9387   2.065   1.229   1.123 -1.7059  0.7042  0.9061
 2145SOL     OW 9388   4.588   0.439   1.557  0.3777 -0.0930  0.0097
 2145SOL    HW1 9389   4.653   0.384   1.601  2.0254  1.2029 -0.6574
 2145SOL    HW2 9390   4.560   0.387   1.481  0.5513 -0.7241  0.3697
 2146SOL     OW 9391   3.040   3.434   0.184  0.4617  0.0319  0.0184
 2146SOL    HW1 9392   3.030   3.425   0.090  0.2500  3.0485 -0.3468
 2146SOL    HW2 9393   2.951   3.428   0.219  0.5674 -1.3523  0.0958
 2147SOL     OW 9394   2.708   3.641   1.025  0.4039 -0.1957  0.7315
 2147SOL    HW1 9395   2.739   3.622   1.113  1.3231 -0.3252  0.3935
 2147SOL    HW2 9396   2.639   3.706   1.037 -0.5799 -1.3745  1.6589
 2148SOL     OW 9397   2.613   7.387   3.430 -0.1642 -0.8111 -0.2357
 2148SOL    HW1 9398   2.562   7.370   3.509  0.2467  0.5533  0.3462
 2148SOL    HW2 9399   2.703   7.398   3.461 -0.0720  0.2438 -0.8157
 2149SOL     OW 9400   0.099   0.349   7.472 -0.0606  0.0277 -0.2163
 2149SOL    HW1 9401   0.061   0.437   7.466 -0.8440 -0.3158 -0.4192
 2149SOL    HW2 9402   0.183   0.356   7.426 -0.6490  0.3752 -1.2732
 2150SOL     OW 9403   3.976   1.495   1.512  0.1147  0.1475 -0.0307
 2150SOL    HW1 9404   4.041   1.504   1.581 -0.7635  0.8283  0.7241
 2150SOL    HW2 9405   3.998   1.565   1.450  0.5214 -0.0711 -0.1409
 2151SOL     OW 9406   3.236   7.708   3.927 -0.2053 -0.2305  0.8869
 2151SOL    HW1 9407   3.234   7.626   3.975 -1.7483  0.5894  2.3078
 2151SOL    HW2 9408   3.283   7.687   3.846 -1.0388 -2.6350  0.9529
 2152SOL     OW 9409   0.884   4.578   2.139  0.2098  0.3772 -0.3871
 2152SOL    HW1 9410   0.803   4.611   2.100 -2.4697 -1.4454  3.0107
 2152SOL    HW2 9411   0.881   4.483   2.123  2.0701  0.3638 -0.7916
 2153SOL     OW 9412   6.484   5.035   6.787 -0.1674  0.4426  0.3940
 2153SOL    HW1 9413   6.513   5.042   6.877 -0.2037  0.7760  0.3796
 2153SOL    HW2 9414   6.498   4.943   6.764  1.2292  0.6701  0.2587
 2154SOL     OW 9415   2.068   4.796   6.185 -0.0143  0.1673  0.3114
 2154SOL    HW1 9416   2.115   4.880   6.189  0.0354  0.1800 -0.4030
 2154SOL    HW2 9417   2.007   4.806   6.111  0.7139 -0.7839 -0.4551
 2155SOL     OW 9418   1.501   1.391   0.887 -1.0139  0.4949  0.0549
 2155SOL    HW1 9419   1.470   1.373   0.976  0.2111  0.3869  0.4781
 2155SOL    HW2 9420   1.584   1.344   0.880 -1.7507 -0.6318 -1.6396
 2156SOL     OW 9421   5.857   6.715   4.274  0.4501  0.2522  0.0842
 2156SOL    HW1 9422   5.843   6.740   4.183 -0.2469 -1.8882 -0.4424
 2156SOL    HW2 9423   5.929   6.771   4.303 -0.1628  1.8833 -1.3595
 2157SOL     OW 9424   3.524   5.244   2.619 -0.0777 -0.0093 -0.1623
 2157SOL    HW1 9425   3.615   5.213   2.623 -0.1146 -0.3710 -1.6416
 2157SOL    HW2 9426   3.528   5.325   2.568 -0.4786  0.4575  0.5320
 2158SOL     OW 9427   5.763   2.540   0.583  0.5131  0.1476  0.1921
 2158SOL    HW1 9428   5.796   2.481   0.650  0.9767 -0.1305 -0.2719
 2158SOL    HW2 9429   5.740   2.484   0.509  1.6645  0.5760 -0.5399
 2159SOL     OW 9430   7.503   7.499   3.459 -0.3749 -0.9736 -0.1058
 2159SOL    HW1 9431   7.492   7.532   3.370  0.7426 -0.6312 -0.1342
 2159SOL    HW2 9432   7.430   7.438   3.472 -2.9218  1.8740  0.1474
 2160SOL     OW 9433   7.024   6.300   0.703 -0.9583  0.1915  0.1372
 2160SOL    HW1 9434   7.072   6.280   0.623  1.9757  0.9727  1.5889
 2160SOL    HW2 9435   6.983   6.385   0.684 -0.5205  0.2508 -0.6121
 2161SOL     OW 9436   0.402   1.775   4.062  0.0652 -1.0553 -0.1394
 2161SOL    HW1 9437   0.405   1.761   4.157 -0.9918 -3.5540 -0.4005
 2161SOL    HW2 9438   0.467   1.843   4.046  0.5615 -0.8576  2.3256
 2162SOL     OW 9439   7.738   7.876   6.994  0.4112  0.3789  0.3314
 2162SOL    HW1 9440   7.770   7.846   7.079 -2.1067 -1.4782  0.7579
 2162SOL    HW2 9441   7.775   7.813   6.931 -0.6658 -0.5200  0.5668
 2163SOL     OW 9442   3.693   3.085   7.303 -0.2479  0.6217  0.3582
 2163SOL    HW1 9443   3.665   3.173   7.330 -0.7607 -0.5497  4.1983
 2163SOL    HW2 9444   3.784   3.080   7.330 -0.5065 -0.3551  1.0604
 2164SOL     OW 9445   3.393   1.438   3.022 -0.7266 -0.5011 -0.1908
 2164SOL    HW1 9446   3.368   1.491   2.946  1.8618  0.7841 -0.2597
 2164SOL    HW2 9447   3.447   1.368   2.986 -0.7272 -0.7757  0.3263
 2165SOL     OW 9448   2.844   0.306   1.911 -0.0614  0.4825  0.5096
 2165SOL    HW1 9449   2.848   0.293   2.006 -0.9646 -0.1726  0.4748
 2165SOL    HW2 9450   2.766   0.257   1.884  1.0869 -0.7261 -0.7874
 2166SOL     OW 9451   4.618   7.203   0.951 -0.1857  0.2722  0.2419
 2166SOL    HW1 9452   4.568   7.258   1.012  0.7918  0.0962  1.2293
 2166SOL    HW2 9453   4.607   7.114   0.984  0.8039  0.2371  0.5096
 2167SOL     OW 9454   3.510   6.183   1.193 -0.4754  0.4754 -0.6905
 2167SOL    HW1 9455   3.530   6.091   1.208 -1.2565  0.0403 -2.1286
 2167SOL    HW2 9456   3.504   6.221   1.280  0.8005 -0.6096 -0.0944
 2168SOL     OW 9457   0.576   6.726   6.450  0.1256 -0.9477 -0.6318
 2168SOL    HW1 9458   0.636   6.771   6.510 -0.1843  0.9280 -1.6398
 2168SOL    HW2 9459   0.492   6.729   6.494  0.3873 -1.9264 -0.0351
 2169SOL     OW 9460   1.914   3.394   0.055 -0.5202  0.0749  0.0232
 2169SOL    HW1 9461   1.878   3.467   0.106  0.9828  0.1439  1.0544
 2169SOL    HW2 9462   1.952   3.336   0.121  3.2395  1.1055 -1.0013
 2170SOL     OW 9463   1.440   3.815   3.076  0.4809  0.2356  0.2645
 2170SOL    HW1 9464   1.416   3.908   3.082 -3.3111 -0.5081 -0.6606
 2170SOL    HW2 9465   1.459   3.802   2.983  0.6449  0.0098  0.3299
 2171SOL     OW 9466   4.766   7.093   1.405 -0.0320  0.2266  0.2782
 2171SOL    HW1 9467   4.861   7.105   1.406  0.1393 -1.0026  0.3427
 2171SOL    HW2 9468   4.748   7.032   1.477 -0.7097 -0.5699 -0.5354
 2172SOL     OW 9469   4.723   0.179   5.843  0.5686 -0.6131 -0.5503
 2172SOL    HW1 9470   4.628   0.168   5.832  0.5031 -0.4881 -0.1012
 2172SOL    HW2 9471   4.739   0.161   5.935  0.9604 -0.4564 -0.5875
 2173SOL     OW 9472   3.076   6.544   0.339  0.3369  0.1623 -0.3907
 2173SOL    HW1 9473   3.097   6.635   0.319  2.0822 -0.4591 -1.6746
 2173SOL    HW2 9474   3.124   6.493   0.273  0.3517 -1.7281  0.9842
 2174SOL     OW 9475   6.520   3.536   7.796 -0.3335 -0.7085 -0.1058
 2174SOL    HW1 9476   6.479   3.550   7.711 -0.6959 -0.6150  0.0822
 2174SOL    HW2 9477   6.614   3.538   7.778 -0.3781 -2.8983 -0.8735
 2175SOL     OW 9478   7.451   1.805   6.435  0.4194  0.0102 -0.2698
 2175SOL    HW1 9479   7.451   1.852   6.518  2.6513  0.2461 -0.3401
 2175SOL    HW2 9480   7.381   1.741   6.443  0.4515  0.1710  1.7082
 2176SOL     OW 9481   2.879   2.078   7.418  0.2664 -0.1741 -0.3443
 2176SOL    HW1 9482   2.820   2.085   7.493  1.1296 -1.2276  0.4665
 2176SOL    HW2 9483   2.899   1.984   7.411 -1.0539 -0.3594 -2.9188
 2177SOL     OW 9484   1.439   5.681   1.048  0.4298 -0.3418  0.1851
 2177SOL    HW1 9485   1.514   5.653   1.102  0.6809  0.2913  0.1728
 2177SOL    HW2 9486   1.452   5.637   0.964 -0.1430 -1.6083  0.7305
 2178SOL     OW 9487   6.908   1.376   8.030 -0.1764  0.0642 -0.1452
 2178SOL    HW1 9488   6.900   1.384   7.935  0.0269 -1.1213 -0.2830
 2178SOL    HW2 9489   6.819   1.360   8.060 -0.2173  0.2719 -0.1559
 2179SOL     OW 9490   5.788   3.224   7.673 -0.1270  0.1956 -0.8074
 2179SOL    HW1 9491   5.807   3.133   7.696  0.9765  0.5330 -0.3241
 2179SOL    HW2 9492   5.720   3.250   7.735 -1.6321 -0.7632 -1.9895
 2180SOL     OW 9493   5.066   7.232   0.503  0.1674  0.6980 -0.0060
 2180SOL    HW1 9494   5.006   7.191   0.565 -1.0167 -0.1415 -1.6342
 2180SOL    HW2 9495   5.042   7.325   0.505 -1.4163  0.3474 -0.8016
 2181SOL     OW 9496   2.364   7.803   0.226 -0.0462  0.3274 -0.6954
 2181SOL    HW1 9497   2.279   7.766   0.202  0.0650 -0.0264 -0.5522
 2181SOL    HW2 9498   2.427   7.741   0.191  0.1364  0.2334 -0.2043
 2182SOL     OW 9499   7.574   0.791   1.532 -0.1118 -0.1168  0.1745
 2182SOL    HW1 9500   7.569   0.759   1.622 -0.4135 -0.9716 -0.1328
 2182SOL    HW2 9501   7.663   0.769   1.503  0.2317  0.8138  0.4910
 2183SOL     OW 9502   5.723   0.686   0.589  0.4315 -0.4027 -0.3507
 2183SOL    HW1 9503   5.664   0.685   0.664 -0.8347 -0.1490 -1.3074
 2183SOL    HW2 9504   5.717   0.775   0.555 -0.1966 -0.9173 -1.6475
 2184SOL     OW 9505   1.249   7.342   3.823  0.4686  0.2702 -0.2406
 2184SOL    HW1 9506   1.308   7.409   3.789  0.3117  1.0818  1.0237
 2184SOL    HW2 9507   1.249   7.356   3.918 -0.6673 -0.6195 -0.0896
 2185SOL     OW 9508   4.432   6.405   6.815  0.2252 -0.4846 -0.0886
 2185SOL    HW1 9509   4.504   6.449   6.770  0.3373 -0.3192  0.2521
 2185SOL    HW2 9510   4.463   6.315   6.827  0.6377 -0.2626  0.6115
 2186SOL     OW 9511   1.824   7.740   7.445  0.2429  0.8242  0.5081
 2186SOL    HW1 9512   1.856   7.678   7.379  0.5636  1.4488  0.0618
 2186SOL    HW2 9513   1.892   7.741   7.512 -1.0515 -1.4404  1.9853
 2187SOL     OW 9514   0.427   2.559   6.128  0.2228  0.3672 -0.0999
 2187SOL    HW1 9515   0.338   2.527   6.117  0.5580 -0.6091 -0.0651
 2187SOL    HW2 9516   0.457   2.579   6.039 -0.8055  2.9629  0.0476
 2188SOL     OW 9517   0.886   1.179   7.808  0.0811 -0.6907  0.4391
 2188SOL    HW1 9518   0.913   1.148   7.895  0.9722 -1.2976 -0.0292
 2188SOL    HW2 9519   0.832   1.108   7.773  1.0812 -1.1881 -0.1381
 2189SOL     OW 9520   2.755   6.609   6.332 -0.4491  0.7068 -0.0834
 2189SOL    HW1 9521   2.755   6.523   6.290 -0.1056  0.5025  0.3316
 2189SOL    HW2 9522   2.829   6.655   6.291  1.5680 -0.4091  2.1245
 2190SOL     OW 9523   6.345   2.385   6.501  0.6069  0.9367  0.0182
 2190SOL    HW1 9524   6.396   2.308   6.525  1.1948  1.4739  0.5670
 2190SOL    HW2 9525   6.294   2.405   6.580 -2.2659 -0.9170 -1.2096
 2191SOL     OW 9526   1.380   4.816   2.452 -0.4536  0.4780  0.1092
 2191SOL    HW1 9527   1.414   4.729   2.473  0.1498  0.6455 -0.1601
 2191SOL    HW2 9528   1.297   4.820   2.499 -0.7231 -0.4242 -0.2668
 2192SOL     OW 9529   7.534   6.218   3.080  0.1963  0.0608  0.3778
 2192SOL    HW1 9530   7.473   6.210   3.153  0.6483  1.5234  0.9529
 2192SOL    HW2 9531   7.480   6.252   3.008 -0.0486 -0.4350  0.3263
 2193SOL     OW 9532   3.647   4.272   3.280 -0.6736  0.3597  0.0213
 2193SOL    HW1 9533   3.669   4.346   3.223 -2.1526  1.0336  0.2669
 2193SOL    HW2 9534   3.676   4.195   3.231  1.6959  1.0878  0.1391
 2194SOL     OW 9535   3.465   3.220   0.418  0.1609  0.4080  0.0580
 2194SOL    HW1 9536   3.459   3.167   0.498 -2.7919 -0.2250 -0.4646
 2194SOL    HW2 9537   3.500   3.161   0.352  1.5478  0.6086  0.5795
 2195SOL     OW 9538   0.063   0.333   0.915 -0.1191 -0.4656 -0.3926
 2195SOL    HW1 9539  -0.018   0.312   0.961  0.3465 -2.0468 -0.2130
 2195SOL    HW2 9540   0.043   0.412   0.866 -2.0252 -1.2188 -0.9423
 2196SOL     OW 9541   2.206   5.439   2.321  0.1794  0.1324 -0.3297
 2196SOL    HW1 9542   2.225   5.483   2.404 -0.0738  2.7564 -1.5525
 2196SOL    HW2 9543   2.148   5.499   2.275  1.6574 -0.3948 -3.1110
 2197SOL     OW 9544   5.415   2.150   0.742 -0.5206  0.5635 -0.2024
 2197SOL    HW1 9545   5.337   2.185   0.699  0.2599  1.3309 -1.0036
 2197SOL    HW2 9546   5.472   2.226   0.756  0.4820 -0.1231 -0.4579
 2198SOL     OW 9547   1.571   1.507   0.140 -0.4856 -0.0686 -0.4641
 2198SOL    HW1 9548   1.570   1.532   0.232 -1.1460 -0.1262 -0.4538
 2198SOL    HW2 9549   1.526   1.423   0.137 -1.2195  0.3341 -0.9511
 2199SOL     OW 9550   3.523   6.290   4.498  0.2299 -0.1987 -0.4058
 2199SOL    HW1 9551   3.490   6.368   4.543  0.0807 -0.6249  0.2386
 2199SOL    HW2 9552   3.468   6.219   4.531  0.4344 -0.5908 -0.9105
 2200SOL     OW 9553   7.914   4.890   6.806  0.0214 -0.1184 -0.2246
 2200SOL    HW1 9554   7.933   4.824   6.873 -0.0197  0.4422  0.3521
 2200SOL    HW2 9555   7.838   4.855   6.759  0.7347 -1.0475 -0.7167
 2201SOL     OW 9556   4.733   2.236   7.496 -0.4748  0.1926  0.5861
 2201SOL    HW1 9557   4.784   2.242   7.577 -0.3599  1.2529  0.4477
 2201SOL    HW2 9558   4.798   2.225   7.427 -0.5496 -0.2337  0.5753
 2202SOL     OW 9559   1.749   0.661   7.662  0.4794  0.1655 -0.2859
 2202SOL    HW1 9560   1.790   0.706   7.736  1.2024 -0.8707 -0.0474
 2202SOL    HW2 9561   1.664   0.633   7.696  0.6591  0.0095  0.0329
 2203SOL     OW 9562   0.151   1.124   2.488  0.2754  0.4195 -0.1431
 2203SOL    HW1 9563   0.108   1.039   2.476  0.3309  0.4263 -0.3904
 2203SOL    HW2 9564   0.238   1.102   2.521  0.6991  0.3228 -1.2853
 2204SOL     OW 9565   2.243   5.220   0.083 -0.1165  0.2896 -0.7328
 2204SOL    HW1 9566   2.147   5.218   0.090 -0.0636  0.3094  0.1924
 2204SOL    HW2 9567   2.267   5.128   0.073 -0.1104 -0.0249  1.5480
 2205SOL     OW 9568   5.535   6.382   6.403 -0.1055 -0.4991 -0.4278
 2205SOL    HW1 9569   5.521   6.458   6.347  2.3891 -0.2386 -0.8185
 2205SOL    HW2 9570   5.507   6.411   6.490 -0.3964  0.4314 -0.8186
 2206SOL     OW 9571   5.414   1.472   2.542  0.1120  0.6713  0.3977
 2206SOL    HW1 9572   5.492   1.438   2.586  0.3599 -0.8862 -1.1124
 2206SOL    HW2 9573   5.351   1.400   2.545  0.2440  0.3671 -1.9218
 2207SOL     OW 9574   3.548   1.660   0.982 -0.3361 -0.4430  0.1799
 2207SOL    HW1 9575   3.585   1.583   1.025  0.8374 -0.4016 -0.7242
 2207SOL    HW2 9576   3.487   1.696   1.047  0.7555 -0.8645  1.4919
 2208SOL     OW 9577   5.496   5.174   1.122 -0.0397 -0.1734  0.4068
 2208SOL    HW1 9578   5.545   5.256   1.126 -0.3321  0.3017 -2.8219
 2208SOL    HW2 9579   5.562   5.105   1.131  0.9499  0.4636 -1.4238
 2209SOL     OW 9580   1.299   6.101   5.105 -0.8675 -0.2653  0.4022
 2209SOL    HW1 9581   1.217   6.053   5.118 -1.7270  1.1661  0.4816
 2209SOL    HW2 9582   1.281   6.160   5.032 -0.2995  0.8699  1.1463
 2210SOL     OW 9583   2.821   1.820   2.134 -0.3134  1.2796  0.1921
 2210SOL    HW1 9584   2.758   1.748   2.127  1.0614 -0.0663  1.0660
 2210SOL    HW2 9585   2.861   1.826   2.047  1.0693 -0.4983  0.6505
 2211SOL     OW 9586   1.648   6.122   1.689 -0.3500 -0.2831  0.5115
 2211SOL    HW1 9587   1.741   6.103   1.692 -0.1082  0.5422 -0.9104
 2211SOL    HW2 9588   1.642   6.216   1.677 -1.4529  0.1034  3.2835
 2212SOL     OW 9589   0.859   6.330   7.973  0.5588 -0.0860  0.3298
 2212SOL    HW1 9590   0.835   6.396   8.037  1.0960  0.7827 -0.3420
 2212SOL    HW2 9591   0.931   6.369   7.923  0.6388 -1.0252 -0.3321
 2213SOL     OW 9592   8.090   2.494   1.228  0.2418 -0.1292  0.0823
 2213SOL    HW1 9593   8.069   2.419   1.171  0.7505 -0.0402 -0.2249
 2213SOL    HW2 9594   8.039   2.566   1.192 -0.6254 -0.4257  0.6649
 2214SOL     OW 9595   3.879   7.144   2.575  0.6350  0.0560  0.2777
 2214SOL    HW1 9596   3.909   7.191   2.653  1.5398 -1.6393  1.0054
 2214SOL    HW2 9597   3.798   7.102   2.603  0.6838 -0.1305  0.1361
 2215SOL     OW 9598   7.835   5.930   3.073 -0.1773  0.2847 -0.9218
 2215SOL    HW1 9599   7.759   5.875   3.092 -0.5387  1.1769  0.3967
 2215SOL    HW2 9600   7.805   5.987   3.002 -1.6363  2.1912  1.0759
 2216SOL     OW 9601   7.081   6.596   6.914  0.3391  0.8951  0.0883
 2216SOL    HW1 9602   7.013   6.535   6.941 -1.0810  2.1518 -0.5268
 2216SOL    HW2 9603   7.056   6.622   6.825  3.2790 -0.8974 -1.4800
 2217SOL     OW 9604   5.462   5.638   5.434  0.3237  0.3317  0.3896
 2217SOL    HW1 9605   5.404   5.702   5.393  0.3978 -1.0433 -1.9987
 2217SOL    HW2 9606   5.415   5.611   5.513 -3.1070 -1.7009 -2.0611
 2218SOL     OW 9607   0.850   0.931   0.517 -0.7017 -0.0525  0.4313
 2218SOL    HW1 9608   0.815   0.857   0.466 -0.9607  0.6334 -0.4104
 2218SOL    HW2 9609   0.790   1.003   0.498 -0.3318  0.4381  1.0874
 2219SOL     OW 9610   6.898   1.627   6.877  0.4128 -0.0974  0.6765
 2219SOL    HW1 9611   6.811   1.630   6.916  0.1129  0.0266  0.0151
 2219SOL    HW2 9612   6.896   1.552   6.818  0.4780  0.3866  0.0422
 2220SOL     OW 9613   5.163   7.442   2.372  0.4266 -0.1349  0.8476
 2220SOL    HW1 9614   5.089   7.391   2.339  1.1969  0.9191 -2.9888
 2220SOL    HW2 9615   5.135   7.533   2.364  1.3547  0.2369  1.5719
 2221SOL     OW 9616   3.122   7.677   6.781  0.4477 -0.2681 -0.2964
 2221SOL    HW1 9617   3.086   7.749   6.833 -0.2262 -1.3791  0.8256
 2221SOL    HW2 9618   3.214   7.701   6.767  0.0241  1.2144 -0.7174
 2222SOL     OW 9619   5.444   1.156   1.497  0.5378 -0.4085 -0.3698
 2222SOL    HW1 9620   5.535   1.170   1.526  0.6624 -0.8388 -0.5544
 2222SOL    HW2 9621   5.392   1.173   1.576  0.7416  0.2794 -0.3726
 2223SOL     OW 9622   5.203   0.648   1.412 -0.1783 -0.0734  0.8538
 2223SOL    HW1 9623   5.245   0.575   1.457  1.0525 -0.2409 -0.4755
 2223SOL    HW2 9624   5.275   0.709   1.394  0.2157 -1.5616 -3.8588
 2224SOL     OW 9625   1.130   4.807   0.766 -0.5713 -0.1737  0.8471
 2224SOL    HW1 9626   1.133   4.880   0.828 -0.3684  1.2938 -0.8016
 2224SOL    HW2 9627   1.091   4.845   0.687  1.9722 -1.1006 -0.9868
 2225SOL     OW 9628   4.488   6.265   3.054 -0.2307  0.0938  0.3484
 2225SOL    HW1 9629   4.439   6.294   3.131 -0.4773  0.6655 -0.0169
 2225SOL    HW2 9630   4.500   6.345   3.002  0.0605 -0.2609 -0.1343
 2226SOL     OW 9631   4.854   1.918   4.160 -0.3343  0.3029 -0.2950
 2226SOL    HW1 9632   4.855   1.906   4.065 -0.7492 -0.1511 -0.2407
 2226SOL    HW2 9633   4.772   1.965   4.177 -1.0043 -0.9342 -0.0082
 2227SOL     OW 9634   7.080   7.552   6.581 -0.1676  0.5344  0.4451
 2227SOL    HW1 9635   7.124   7.619   6.528  0.9596  0.3699  1.1481
 2227SOL    HW2 9636   7.149   7.490   6.603 -1.2290 -1.0331 -0.3999
 2228SOL     OW 9637   0.094   4.623   8.032 -0.0302 -0.2554  0.2954
 2228SOL    HW1 9638   0.084   4.602   7.939  3.9788 -3.0539  0.2316
 2228SOL    HW2 9639   0.163   4.689   8.034 -0.3609  0.0687  1.2563
 2229SOL     OW 9640   5.067   6.398   2.734 -0.4651 -1.2060  0.4814
 2229SOL    HW1 9641   5.149   6.432   2.698 -0.8199 -1.2514 -0.3958
 2229SOL    HW2 9642   5.085   6.387   2.827  1.2306 -3.1668  0.0168
 2230SOL     OW 9643   4.372   2.763   3.133 -0.3802  0.8692 -0.6614
 2230SOL    HW1 9644   4.391   2.697   3.200 -0.1921  0.4571 -1.1142
 2230SOL    HW2 9645   4.451   2.767   3.079 -0.5415  1.1740 -0.8783
 2231SOL     OW 9646   3.583   7.899   3.339  0.9959 -0.4546 -0.2532
 2231SOL    HW1 9647   3.676   7.906   3.362  0.4279 -1.0874  2.5118
 2231SOL    HW2 9648   3.536   7.924   3.418 -1.1915 -2.2036 -0.8845
 2232SOL     OW 9649   5.000   6.305   3.532 -0.0469 -0.3591  0.3006
 2232SOL    HW1 9650   4.940   6.231   3.526 -1.3696  0.6820  0.2898
 2232SOL    HW2 9651   5.020   6.312   3.625 -0.2019 -0.5067  0.3449
 2233SOL     OW 9652   0.065   6.899   4.844  0.5711  0.0568  0.4636
 2233SOL    HW1 9653   0.099   6.882   4.756 -0.9194  0.6053 -0.2512
 2233SOL    HW2 9654   0.119   6.845   4.902  1.1686 -0.7983 -0.8549
 2234SOL     OW 9655   6.860   2.150   2.548 -0.1536 -0.2507 -0.2133
 2234SOL    HW1 9656   6.837   2.086   2.480 -0.9126  0.6433 -0.8390
 2234SOL    HW2 9657   6.784   2.149   2.607 -0.2108  0.1200 -0.2772
 2235SOL     OW 9658   7.741   0.641   1.266 -0.0750  0.0605  0.1716
 2235SOL    HW1 9659   7.780   0.601   1.189  0.5622  0.9447  0.0242
 2235SOL    HW2 9660   7.648   0.645   1.247  0.1389  0.7432 -0.7739
 2236SOL     OW 9661   1.118   3.724   5.609 -0.6068  0.2209  0.0840
 2236SOL    HW1 9662   1.134   3.740   5.702 -1.5430  1.1367  0.1137
 2236SOL    HW2 9663   1.198   3.683   5.577 -0.4370 -0.5163  1.3884
 2237SOL     OW 9664   3.588   0.836   4.416  0.1973 -0.0767  0.5139
 2237SOL    HW1 9665   3.650   0.898   4.376  0.1555  0.0786  0.6917
 2237SOL    HW2 9666   3.510   0.841   4.360  0.9004 -1.4379 -0.6588
 2238SOL     OW 9667   1.235   5.613   5.154 -0.6876  0.0883 -0.3324
 2238SOL    HW1 9668   1.242   5.537   5.211  1.0901  0.0319 -0.5697
 2238SOL    HW2 9669   1.273   5.685   5.205  0.3462  0.1694 -1.1713
 2239SOL     OW 9670   2.090   7.394   0.766 -0.4401 -0.2110  0.2990
 2239SOL    HW1 9671   2.042   7.320   0.728 -0.9698  0.8154 -1.1292
 2239SOL    HW2 9672   2.149   7.354   0.830 -0.1139 -1.9711 -1.0072
 2240SOL     OW 9673   4.800   6.280   2.141 -0.4293  0.1801 -0.4228
 2240SOL    HW1 9674   4.841   6.321   2.217 -0.4847  0.7849 -0.7144
 2240SOL    HW2 9675   4.764   6.353   2.090  1.3852  0.0100 -2.0875
 2241SOL     OW 9676   7.869   4.069   6.132 -0.0834  0.4870  0.1346
 2241SOL    HW1 9677   7.847   4.140   6.072  1.1470  1.1626  0.4523
 2241SOL    HW2 9678   7.835   3.990   6.089  0.1896  1.0375 -1.1335
 2242SOL     OW 9679   1.317   1.170   6.767 -0.4650  0.0658  0.2115
 2242SOL    HW1 9680   1.344   1.127   6.687 -0.1857 -1.9625  1.3431
 2242SOL    HW2 9681   1.254   1.237   6.739  0.0941 -0.1812 -1.7173
 2243SOL     OW 9682   3.189   2.657   4.228  0.3798  0.0208  0.1401
 2243SOL    HW1 9683   3.186   2.731   4.168 -0.6389 -0.0287  0.1091
 2243SOL    HW2 9684   3.250   2.595   4.188 -2.1804 -1.1799 -2.2500
 2244SOL     OW 9685   0.716   0.767   2.312  0.3779  0.7698  0.4927
 2244SOL    HW1 9686   0.645   0.792   2.253  0.5478 -1.1961 -0.6343
 2244SOL    HW2 9687   0.795   0.803   2.271  0.7338 -2.0732 -1.5913
 2245SOL     OW 9688   7.197   7.787   8.132 -0.1436 -0.3540  0.0188
 2245SOL    HW1 9689   7.122   7.809   8.076  1.5667  0.8240 -1.9258
 2245SOL    HW2 9690   7.273   7.811   8.081  1.5886 -0.4623  2.3838
 2246SOL     OW 9691   7.916   1.752   1.001  0.5692  0.4081  0.4056
 2246SOL    HW1 9692   7.943   1.696   1.073 -1.6857 -1.3016  0.0380
 2246SOL    HW2 9693   7.967   1.721   0.926  0.6703  0.0838  0.6066
 2247SOL     OW 9694   5.629   3.110   4.666  0.3908  0.4376  0.1727
 2247SOL    HW1 9695   5.578   3.081   4.590 -0.8607  0.3469  1.0035
 2247SOL    HW2 9696   5.682   3.035   4.690  1.8706  0.9080 -1.4225
 2248SOL     OW 9697   5.876   5.638   3.774 -0.4937  0.2005  0.0198
 2248SOL    HW1 9698   5.846   5.696   3.844  0.7652  0.6619  0.1952
 2248SOL    HW2 9699   5.805   5.639   3.710 -1.2284  0.5648  0.8176
 2249SOL     OW 9700   6.133   7.601   5.159 -0.2060  0.0949  0.2240
 2249SOL    HW1 9701   6.127   7.658   5.236  2.4403 -0.6623  1.1125
 2249SOL    HW2 9702   6.224   7.573   5.157 -0.3632 -0.5815 -2.7700
 2250SOL     OW 9703   2.880   4.558   1.154 -0.0668  0.0507  0.4727
 2250SOL    HW1 9704   2.805   4.591   1.203  0.1925  2.0487 -0.3549
 2250SOL    HW2 9705   2.849   4.553   1.064  0.2073 -1.1154  0.4326
 2251SOL     OW 9706   4.531   6.739   6.876 -0.2639 -0.2218  0.0283
 2251SOL    HW1 9707   4.623   6.752   6.901  0.0918 -0.1632 -1.2690
 2251SOL    HW2 9708   4.535   6.685   6.797 -1.3879 -0.8355  0.3660
 2252SOL     OW 9709   2.774   2.998   4.482 -0.0347 -0.3356 -0.2535
 2252SOL    HW1 9710   2.787   2.904   4.491 -2.5426 -1.0302 -2.6068
 2252SOL    HW2 9711   2.837   3.037   4.542  2.1266 -3.4455 -0.2957
 2253SOL     OW 9712   2.924   3.706   6.495 -0.3557  0.2149 -0.2222
 2253SOL    HW1 9713   2.950   3.616   6.512 -1.6741 -0.0121  0.8016
 2253SOL    HW2 9714   2.854   3.699   6.430 -1.0456  0.3992  0.4766
 2254SOL     OW 9715   6.882   1.737   1.559 -0.3562 -0.0137  0.0441
 2254SOL    HW1 9716   6.811   1.746   1.623 -0.2687 -1.3301  0.3443
 2254SOL    HW2 9717   6.940   1.811   1.577 -0.9343  0.2850  0.7161
 2255SOL     OW 9718   2.993   3.517   1.431 -0.4468  0.0427 -0.4290
 2255SOL    HW1 9719   3.065   3.454   1.432 -0.0957  0.4008 -1.2853
 2255SOL    HW2 9720   2.940   3.495   1.507  0.7963  0.0374  0.4708
 2256SOL     OW 9721   3.148   5.235   0.467 -0.8517 -0.4973 -0.2404
 2256SOL    HW1 9722   3.153   5.145   0.436 -1.4381 -0.3770 -0.6921
 2256SOL    HW2 9723   3.171   5.288   0.390 -1.2980 -0.2335 -0.1935
 2257SOL     OW 9724   6.409   6.048   1.215  0.0172 -0.2285 -0.5037
 2257SOL    HW1 9725   6.325   6.093   1.213 -0.1016 -0.4235  0.0370
 2257SOL    HW2 9726   6.452   6.080   1.295  0.6481  0.2043 -0.9967
 2258SOL     OW 9727   7.606   6.656   0.229 -0.2896 -0.5013  0.2898
 2258SOL    HW1 9728   7.673   6.605   0.274 -0.2685  0.3900  1.3168
 2258SOL    HW2 9729   7.525   6.606   0.242  0.0977 -1.4302 -0.7062
 2259SOL     OW 9730   7.990   5.552   2.532  0.0665  0.3998 -0.0877
 2259SOL    HW1 9731   7.922   5.510   2.479 -1.5805  2.9191 -0.1063
 2259SOL    HW2 9732   8.004   5.492   2.605 -0.4453 -1.2746 -1.2952
 2260SOL     OW 9733   5.539   2.426   5.430 -0.2624  0.6634 -0.7390
 2260SOL    HW1 9734   5.590   2.448   5.508  0.8105 -1.1177 -0.8752
 2260SOL    HW2 9735   5.465   2.375   5.463 -0.3743  0.7955 -0.7874
 2261SOL     OW 9736   6.963   7.254   3.386  0.1876 -0.3448  0.0695
 2261SOL    HW1 9737   7.011   7.300   3.455 -1.4755 -0.9553  1.7113
 2261SOL    HW2 9738   6.909   7.190   3.432 -1.6855 -0.1649 -1.7179
 2262SOL     OW 9739   1.457   7.906   2.273 -0.0229 -0.0491  0.3512
 2262SOL    HW1 9740   1.379   7.853   2.257  0.5735 -0.4853 -1.2366
 2262SOL    HW2 9741   1.444   7.942   2.361 -1.8294 -0.4164  0.2628
 2263SOL     OW 9742   2.481   5.107   7.352 -0.2175  0.5455 -0.0913
 2263SOL    HW1 9743   2.498   5.158   7.273 -0.4062  1.8639  0.6832
 2263SOL    HW2 9744   2.440   5.027   7.321  2.4158 -0.3633 -1.5901
 2264SOL     OW 9745   6.978   4.507   2.062  0.0433  0.4276 -0.0482
 2264SOL    HW1 9746   6.887   4.531   2.082  0.6653  2.7252  0.2396
 2264SOL    HW2 9747   6.972   4.416   2.031 -2.2207  0.1878  0.8725
 2265SOL     OW 9748   0.830   1.484   1.769 -0.7464  0.1329 -0.1449
 2265SOL    HW1 9749   0.839   1.411   1.708 -0.9381 -1.5217  1.7053
 2265SOL    HW2 9750   0.737   1.506   1.766 -1.1455 -1.2465  0.8949
 2266SOL     OW 9751   7.028   6.609   4.692  0.7905 -0.3124 -0.2394
 2266SOL    HW1 9752   6.975   6.640   4.618  0.6878  0.7918  0.2820
 2266SOL    HW2 9753   7.063   6.689   4.732  3.2887 -1.0124 -0.8575
 2267SOL     OW 9754   4.242   0.652   1.909 -0.3833 -0.2130 -0.3815
 2267SOL    HW1 9755   4.240   0.571   1.858 -0.4209  0.1296 -0.9301
 2267SOL    HW2 9756   4.333   0.680   1.904 -0.2311 -0.5646  0.3586
 2268SOL     OW 9757   7.643   1.670   7.981  0.7132 -0.3236 -0.2343
 2268SOL    HW1 9758   7.738   1.674   7.976  0.8185 -0.8227  1.1098
 2268SOL    HW2 9759   7.616   1.634   7.897  2.0273 -4.4133  0.8923
 2269SOL     OW 9760   5.377   7.458   7.482  0.0385  0.2281  0.9090
 2269SOL    HW1 9761   5.426   7.432   7.404 -0.5444  1.0377  0.2538
 2269SOL    HW2 9762   5.352   7.549   7.466 -3.3058 -0.6621  0.3605
 2270SOL     OW 9763   8.056   3.555   0.268  0.5744 -0.5592  0.2506
 2270SOL    HW1 9764   7.977   3.602   0.239 -0.1731 -0.9045  1.6476
 2270SOL    HW2 9765   8.024   3.489   0.328  1.7297 -2.2195 -0.8736
 2271SOL     OW 9766   4.124   3.205   7.157 -0.4147  0.1201 -0.0227
 2271SOL    HW1 9767   4.138   3.120   7.117  2.0590 -0.0835  1.1231
 2271SOL    HW2 9768   4.099   3.262   7.084 -0.6126 -1.2253 -1.0437
 2272SOL     OW 9769   5.728   6.209   2.971  0.9338 -0.0729 -0.3766
 2272SOL    HW1 9770   5.720   6.114   2.975 -1.7543 -0.0361 -2.2482
 2272SOL    HW2 9771   5.819   6.225   2.946  1.4579 -2.1195  0.0844
 2273SOL     OW 9772   3.956   2.033   1.408 -0.3643  0.2330  0.1778
 2273SOL    HW1 9773   4.003   2.010   1.328  0.4456 -2.9751  1.4251
 2273SOL    HW2 9774   4.024   2.046   1.474 -1.0876 -0.7740  1.1571
 2274SOL     OW 9775   5.663   3.813   7.935 -0.0786  0.7630  0.4014
 2274SOL    HW1 9776   5.581   3.794   7.980  0.8313 -1.9529  1.1085
 2274SOL    HW2 9777   5.652   3.775   7.847  0.6659 -0.3799  0.7766
 2275SOL     OW 9778   1.855   4.585   4.029 -0.5680 -0.3850  0.2756
 2275SOL    HW1 9779   1.894   4.670   4.010 -1.0656 -0.5516 -1.8141
 2275SOL    HW2 9780   1.927   4.532   4.063 -0.1323  0.6908  1.0851
 2276SOL     OW 9781   4.202   6.338   3.324 -0.0607 -0.0928 -0.0055
 2276SOL    HW1 9782   4.295   6.359   3.328  0.5639 -2.2979 -1.0689
 2276SOL    HW2 9783   4.174   6.370   3.239 -0.6804  1.8325  0.8746
 2277SOL     OW 9784   6.902   0.532   3.935  0.4896 -0.3337 -0.6139
 2277SOL    HW1 9785   6.918   0.626   3.927  0.1936 -0.1650  0.5723
 2277SOL    HW2 9786   6.861   0.508   3.852  1.3587  0.4035 -1.2770
 2278SOL     OW 9787   6.393   3.983   4.016 -0.2114  0.5402 -0.6524
 2278SOL    HW1 9788   6.431   3.898   3.994  0.7339  1.4743 -3.0118
 2278SOL    HW2 9789   6.388   3.984   4.111  0.4573 -1.8338 -0.5345
 2279SOL     OW 9790   2.519   5.195   5.732 -0.7631  0.8211  0.3676
 2279SOL    HW1 9791   2.592   5.165   5.786 -0.9670  0.5327  0.4849
 2279SOL    HW2 9792   2.478   5.115   5.699  0.3817  0.9959 -1.6213
 2280SOL     OW 9793   4.148   0.272   6.231 -0.7203  0.0359 -0.2109
 2280SOL    HW1 9794   4.146   0.288   6.325  1.4141  0.2210 -0.1485
 2280SOL    HW2 9795   4.232   0.229   6.215  0.4211  2.7600 -2.4126
 2281SOL     OW 9796   4.758   5.782   7.799  0.3288 -0.0199  0.1782
 2281SOL    HW1 9797   4.806   5.822   7.726  2.3854 -0.6681  1.0956
 2281SOL    HW2 9798   4.670   5.817   7.792  0.9813  1.4292 -1.4906
 2282SOL     OW 9799   5.457   6.385   0.115 -0.2025  0.1013 -0.1521
 2282SOL    HW1 9800   5.499   6.461   0.154  0.8786 -1.0313  0.9822
 2282SOL    HW2 9801   5.455   6.320   0.185 -2.2677 -0.5058 -0.7085
 2283SOL     OW 9802   7.390   0.638   5.621  0.4981  0.1665 -0.1394
 2283SOL    HW1 9803   7.364   0.589   5.699 -0.7879 -0.3652 -0.8945
 2283SOL    HW2 9804   7.396   0.729   5.652  1.2132 -0.1952  0.8559
 2284SOL     OW 9805   7.276   6.756   0.294  0.7042  0.2101 -0.7920
 2284SOL    HW1 9806   7.304   6.841   0.260  2.7286  0.1905  0.6412
 2284SOL    HW2 9807   7.266   6.771   0.388  3.6356 -1.6415 -0.0444
 2285SOL     OW 9808   1.019   2.180   4.759  0.1672  0.6189  0.2323
 2285SOL    HW1 9809   0.933   2.202   4.723 -0.6022 -0.6131  1.2529
 2285SOL    HW2 9810   1.056   2.264   4.787 -0.5912  1.1859 -0.4386
 2286SOL     OW 9811   1.067   1.973   6.920 -0.7288 -0.3651  0.2166
 2286SOL    HW1 9812   0.972   1.963   6.919 -0.6972 -1.2967  2.5259
 2286SOL    HW2 9813   1.088   1.997   7.010  1.2767 -0.6464 -0.1289
 2287SOL     OW 9814   1.683   0.169   7.645 -0.0425 -0.1310 -0.1158
 2287SOL    HW1 9815   1.687   0.227   7.569  0.0732  0.3049  0.2235
 2287SOL    HW2 9816   1.743   0.208   7.708 -0.6216 -0.1386  0.4441
 2288SOL     OW 9817   0.266   2.418   4.592 -0.0479  0.1630 -0.2778
 2288SOL    HW1 9818   0.260   2.343   4.533  0.1208  0.7964 -1.1194
 2288SOL    HW2 9819   0.298   2.381   4.675 -1.3961 -0.9269 -0.2038
 2289SOL     OW 9820   5.228   7.255   5.675 -0.8186  0.3167  0.1411
 2289SOL    HW1 9821   5.133   7.266   5.675 -0.6828  2.0066  1.6618
 2289SOL    HW2 9822   5.262   7.342   5.652  0.3881 -0.4348 -1.1087
 2290SOL     OW 9823   6.560   1.529   3.787  0.2527 -0.4661  0.0967
 2290SOL    HW1 9824   6.592   1.524   3.877 -1.5608 -0.6087  0.7901
 2290SOL    HW2 9825   6.572   1.621   3.762 -1.5982  0.2255  1.4957
 2291SOL     OW 9826   6.506   6.003   3.871  0.6496 -0.6981 -0.3219
 2291SOL    HW1 9827   6.470   5.935   3.929 -1.6213  0.1621 -0.6114
 2291SOL    HW2 9828   6.600   5.999   3.885  0.3123 -1.6339  2.2198
 2292SOL     OW 9829   5.648   1.547   1.710  0.0853  0.4626  0.5588
 2292SOL    HW1 9830   5.727   1.592   1.741  1.6205 -1.0644 -0.9878
 2292SOL    HW2 9831   5.625   1.488   1.782  0.4564  0.7637  0.9342
 2293SOL     OW 9832   5.382   7.582   2.677  0.0462 -0.4212 -0.3084
 2293SOL    HW1 9833   5.439   7.566   2.752  1.4663  0.4108 -1.1661
 2293SOL    HW2 9834   5.297   7.544   2.703  0.2257  0.6053  2.0412
 2294SOL     OW 9835   7.417   6.736   0.014  0.1792 -0.4346  0.1649
 2294SOL    HW1 9836   7.366   6.801   0.062  0.0344 -1.2118  1.1085
 2294SOL    HW2 9837   7.476   6.699   0.080 -0.3408 -1.8527 -0.1235
 2295SOL     OW 9838   0.296   7.188   3.219 -0.2300 -0.2762  0.2183
 2295SOL    HW1 9839   0.354   7.112   3.216  0.7676  0.4890 -1.2080
 2295SOL    HW2 9840   0.327   7.240   3.293 -0.5242 -0.9417  0.8167
 2296SOL     OW 9841   7.295   0.922   5.133 -0.2372 -0.7590  0.6448
 2296SOL    HW1 9842   7.321   1.005   5.094  1.6833 -1.7596 -0.3890
 2296SOL    HW2 9843   7.204   0.934   5.159  0.2345  1.9198  1.3160
 2297SOL     OW 9844   7.441   6.801   1.707  0.4513  0.0303  0.8367
 2297SOL    HW1 9845   7.449   6.719   1.658  1.9896 -0.2675  1.5056
 2297SOL    HW2 9846   7.457   6.869   1.642 -0.5099 -0.1894  0.3423
 2298SOL     OW 9847   6.696   6.145   0.768  0.1697  0.1146  0.5067
 2298SOL    HW1 9848   6.650   6.226   0.790 -0.5965  0.5302 -2.2617
 2298SOL    HW2 9849   6.642   6.075   0.804  1.6939  0.7256  4.4418
 2299SOL     OW 9850   7.983   6.573   3.819 -0.0611 -0.3617  0.1444
 2299SOL    HW1 9851   7.924   6.531   3.757 -0.6050 -0.8675  0.9880
 2299SOL    HW2 9852   7.939   6.655   3.843 -0.5558 -0.8494  0.9532
 2300SOL     OW 9853   6.964   7.265   4.604  0.1548  0.0827 -0.8666
 2300SOL    HW1 9854   6.886   7.224   4.643 -0.0925 -0.7142 -2.1372
 2300SOL    HW2 9855   7.037   7.229   4.654 -0.1853 -0.4213 -0.7211
 2301SOL     OW 9856   3.445   2.190   3.340  0.4296 -0.4373  0.9280
 2301SOL    HW1 9857   3.463   2.096   3.350 -0.1650 -0.9633 -2.1123
 2301SOL    HW2 9858   3.532   2.230   3.343  1.0376 -1.4940 -0.8014
 2302SOL     OW 9859   2.917   6.387   7.702 -0.2047  0.3827  0.2655
 2302SOL    HW1 9860   2.967   6.469   7.694  2.4122 -1.1526 -0.3748
 2302SOL    HW2 9861   2.936   6.357   7.792  1.5184 -1.0179 -0.4975
 2303SOL     OW 9862   8.116   0.091   2.859 -0.0744 -0.1072  0.3825
 2303SOL    HW1 9863   8.177   0.144   2.807  0.5217 -1.4742 -0.3801
 2303SOL    HW2 9864   8.144   0.104   2.949  1.5009 -0.8090  0.0438
 2304SOL     OW 9865   7.351   1.449   1.197  0.9468 -0.1502  0.5050
 2304SOL    HW1 9866   7.271   1.495   1.223  1.0315 -0.5577  1.5006
 2304SOL    HW2 9867   7.319   1.371   1.150  0.7576 -0.3555  0.9710
 2305SOL     OW 9868   6.229   3.672   2.153  0.6568 -0.1147 -0.0894
 2305SOL    HW1 9869   6.257   3.705   2.068  0.3332  1.3469  0.3467
 2305SOL    HW2 9870   6.300   3.696   2.213  1.1645 -1.6617 -0.0272
 2306SOL     OW 9871   5.972   7.328   1.222 -0.4189 -0.0049  0.1405
 2306SOL    HW1 9872   5.983   7.320   1.128 -2.3219  1.0723 -0.2167
 2306SOL    HW2 9873   6.049   7.378   1.251  0.7718 -1.3156 -0.6279
 2307SOL     OW 9874   7.279   6.794   2.896  0.4265 -0.0664  0.1006
 2307SOL    HW1 9875   7.211   6.859   2.877  1.3033  0.7862 -0.1734
 2307SOL    HW2 9876   7.305   6.813   2.986 -0.8833 -1.5060  0.8260
 2308SOL     OW 9877   5.075   3.803   5.875  0.1760 -0.1394  0.3836
 2308SOL    HW1 9878   5.077   3.775   5.967  0.3747  0.8763  0.7029
 2308SOL    HW2 9879   5.092   3.897   5.878  0.0023 -0.0567 -0.6875
 2309SOL     OW 9880   3.224   5.953   4.812 -0.1898 -0.0620 -0.3531
 2309SOL    HW1 9881   3.188   5.979   4.897 -0.7338 -0.8815 -0.3190
 2309SOL    HW2 9882   3.281   5.879   4.832 -0.2151 -0.1738 -0.6859
 2310SOL     OW 9883   2.202   2.269   5.606 -0.0290  0.0019 -0.4519
 2310SOL    HW1 9884   2.271   2.208   5.632 -1.8136 -1.5979  0.7559
 2310SOL    HW2 9885   2.209   2.273   5.510  0.9847 -1.0632 -0.4475
 2311SOL     OW 9886   2.488   4.195   4.466 -0.1917 -0.4291  0.3392
 2311SOL    HW1 9887   2.450   4.117   4.427 -1.5752  0.0438  0.6928
 2311SOL    HW2 9888   2.492   4.259   4.394 -1.2177 -0.0933  0.5596
 2312SOL     OW 9889   4.264   7.559   3.492  0.2583  0.1135 -0.0347
 2312SOL    HW1 9890   4.317   7.631   3.527 -0.5779  0.6542  0.1419
 2312SOL    HW2 9891   4.273   7.489   3.557  0.3642  0.3757  0.2333
 2313SOL     OW 9892   0.484   1.552   1.292 -1.1599  0.1350 -0.0811
 2313SOL    HW1 9893   0.573   1.569   1.323 -1.7949  0.7187  1.5659
 2313SOL    HW2 9894   0.493   1.535   1.199  0.6469  0.4280  0.0115
 2314SOL     OW 9895   2.478   6.851   6.053 -0.0032 -0.3569 -0.2109
 2314SOL    HW1 9896   2.513   6.864   5.965  1.5484 -0.1205  0.4137
 2314SOL    HW2 9897   2.402   6.795   6.041  0.5882 -0.8846 -1.6338
 2315SOL     OW 9898   2.136   0.008   3.917 -0.3546 -0.5242  0.0452
 2315SOL    HW1 9899   2.129  -0.073   3.968 -1.0952  0.7904  2.1457
 2315SOL    HW2 9900   2.229   0.031   3.922 -0.3684 -0.5615  0.5688
 2316SOL     OW 9901   4.739   3.336   2.666 -0.1395  0.4390  0.1879
 2316SOL    HW1 9902   4.823   3.379   2.651 -0.1204  0.4313  0.2701
 2316SOL    HW2 9903   4.747   3.300   2.755  0.3822 -0.9430 -0.3905
 2317SOL     OW 9904   4.883   3.675   5.707 -0.2118  0.8801 -0.3617
 2317SOL    HW1 9905   4.939   3.718   5.772 -0.1563  2.4326 -1.3822
 2317SOL    HW2 9906   4.858   3.593   5.748  0.9166  1.2040  1.0697
 2318SOL     OW 9907   4.034   2.557   7.151  0.3106  0.0300 -0.2751
 2318SOL    HW1 9908   4.025   2.480   7.094  2.3283  1.0294 -2.0856
 2318SOL    HW2 9909   4.068   2.521   7.233  2.6167 -0.9329 -1.5632
 2319SOL     OW 9910   3.557   7.906   4.005  1.0315 -0.2780  0.0405
 2319SOL    HW1 9911   3.491   7.850   4.046  0.4176 -0.1454 -0.7458
 2319SOL    HW2 9912   3.614   7.932   4.077  0.8632 -1.2672  0.5546
 2320SOL     OW 9913   6.829   5.611   3.935  0.1169  0.5086 -0.0032
 2320SOL    HW1 9914   6.753   5.627   3.991  0.8400  0.8581  0.9075
 2320SOL    HW2 9915   6.904   5.623   3.993  0.9037  1.1253 -1.1203
 2321SOL     OW 9916   1.091   4.229   4.848 -0.3052  0.4196 -0.1672
 2321SOL    HW1 9917   1.066   4.204   4.937 -0.7690  1.1236 -0.0937
 2321SOL    HW2 9918   1.074   4.151   4.796 -0.1750  0.0490  0.3337
 2322SOL     OW 9919   2.471   4.853   1.628 -0.3860  0.1393  0.5770
 2322SOL    HW1 9920   2.419   4.810   1.560  0.9944  0.3774 -0.6815
 2322SOL    HW2 9921   2.425   4.935   1.646 -1.5326 -0.5591  0.9960
 2323SOL     OW 9922   6.590   7.016   5.423  0.0177  0.4896 -0.5268
 2323SOL    HW1 9923   6.594   6.940   5.482  0.2547  2.1494  1.7507
 2323SOL    HW2 9924   6.506   7.007   5.378 -0.7071 -0.3029  0.8998
 2324SOL     OW 9925   7.243   1.248   4.270 -0.5767 -0.1143  0.0156
 2324SOL    HW1 9926   7.310   1.315   4.281 -0.6520  0.3025 -1.7336
 2324SOL    HW2 9927   7.291   1.166   4.261 -0.2964  0.1556 -1.0386
 2325SOL     OW 9928   4.113   2.470   6.813  0.1556  0.1126  0.3162
 2325SOL    HW1 9929   4.197   2.498   6.776 -0.0268  0.1065 -0.1053
 2325SOL    HW2 9930   4.137   2.408   6.881  0.4776 -0.2573 -0.1284
 2326SOL     OW 9931   0.682   2.501   0.949  0.4810 -1.0729  0.5388
 2326SOL    HW1 9932   0.750   2.433   0.948 -0.3245 -1.8945  0.0819
 2326SOL    HW2 9933   0.603   2.456   0.980 -0.6086 -0.9268 -1.7844
 2327SOL     OW 9934   0.909   0.611   4.361  0.1573  0.1348  0.0561
 2327SOL    HW1 9935   0.886   0.581   4.272 -2.5141  1.6050  0.1518
 2327SOL    HW2 9936   0.909   0.706   4.355  0.9228  0.2491  1.4552
 2328SOL     OW 9937   4.916   5.848   5.170  0.1677  0.0090  0.7940
 2328SOL    HW1 9938   4.986   5.812   5.116  0.3406 -0.5427  1.3788
 2328SOL    HW2 9939   4.838   5.840   5.115  0.8049  2.2777 -0.5767
 2329SOL     OW 9940   7.858   5.256   3.081 -0.8369 -0.4820 -0.1401
 2329SOL    HW1 9941   7.858   5.343   3.041 -1.5986  0.0959  1.0820
 2329SOL    HW2 9942   7.903   5.201   3.016  0.5563  0.9912 -0.5069
 2330SOL     OW 9943   0.031   4.982   4.583  0.6206 -0.1915 -0.0871
 2330SOL    HW1 9944  -0.013   5.063   4.610  0.1384 -0.7910  1.0224
 2330SOL    HW2 9945   0.120   5.008   4.562  0.6295  0.5450  0.8076
 2331SOL     OW 9946   3.971   5.900   5.169 -0.1457 -0.4875  0.0249
 2331SOL    HW1 9947   4.010   5.987   5.180 -1.3034 -0.1022  1.2479
 2331SOL    HW2 9948   3.943   5.899   5.078  1.7191 -0.3850 -0.6068
 2332SOL     OW 9949   2.950   2.071   4.007  0.2395  0.6066 -0.2546
 2332SOL    HW1 9950   2.992   2.059   3.922  2.4627 -0.2710  0.8743
 2332SOL    HW2 9951   3.012   2.125   4.056 -1.0362  1.1546  0.7995
 2333SOL     OW 9952   2.506   1.893   0.565 -0.0776  0.5352 -0.1116
 2333SOL    HW1 9953   2.522   1.860   0.653  1.5857  1.0313 -0.1886
 2333SOL    HW2 9954   2.592   1.918   0.533 -0.4705 -0.6991 -2.3298
 2334SOL     OW 9955   2.812   2.999   6.787  0.6458 -0.3365  0.4448
 2334SOL    HW1 9956   2.889   3.056   6.791  0.9003 -0.7320  1.4737
 2334SOL    HW2 9957   2.737   3.059   6.789  0.9166  0.0157  0.1102
 2335SOL     OW 9958   5.845   0.929   4.405  0.0568  0.3015  0.9293
 2335SOL    HW1 9959   5.931   0.950   4.441  0.3377  0.6886  0.0665
 2335SOL    HW2 9960   5.786   0.992   4.445  0.2581  0.3230  1.1913
 2336SOL     OW 9961   0.497   3.162   0.242  0.4767 -0.1171  0.1746
 2336SOL    HW1 9962   0.550   3.229   0.200  1.0407 -1.1185 -0.7363
 2336SOL    HW2 9963   0.443   3.126   0.172 -1.9079  1.2788  1.1728
 2337SOL     OW 9964   7.173   6.637   0.588 -0.0070  0.0014  0.0945
 2337SOL    HW1 9965   7.147   6.675   0.672 -0.1124  0.2471 -0.0472
 2337SOL    HW2 9966   7.091   6.609   0.548 -0.0788  0.9132 -0.4171
 2338SOL     OW 9967   5.143   5.084   2.997 -0.3070  0.3317  0.3389
 2338SOL    HW1 9968   5.193   5.161   3.022  1.5732 -0.6928 -0.0985
 2338SOL    HW2 9969   5.090   5.063   3.075  0.1529  1.2741  0.9208
 2339SOL     OW 9970   6.411   6.342   0.168  0.0904  0.6619 -0.3413
 2339SOL    HW1 9971   6.398   6.432   0.199 -0.1341  0.2733  0.7276
 2339SOL    HW2 9972   6.341   6.328   0.105  0.7230  1.5642 -1.2819
 2340SOL     OW 9973   6.690   4.353   4.184 -0.0714 -0.3401 -0.7298
 2340SOL    HW1 9974   6.763   4.322   4.238 -0.3886  0.6704  0.3311
 2340SOL    HW2 9975   6.647   4.273   4.153 -0.0391 -0.9839  0.7657
 2341SOL     OW 9976   6.538   7.359   1.014 -0.5294  0.0425 -0.3020
 2341SOL    HW1 9977   6.455   7.407   1.008 -0.8101 -0.3578  0.2527
 2341SOL    HW2 9978   6.529   7.305   1.093 -0.2482 -0.9750 -0.9471
 2342SOL     OW 9979   5.011   7.360   6.566  0.0811 -0.1361 -0.4536
 2342SOL    HW1 9980   4.921   7.329   6.562 -0.0688  0.3394 -0.8441
 2342SOL    HW2 9981   5.039   7.368   6.475  0.5139 -0.2566 -0.3380
 2343SOL     OW 9982   5.431   2.162   7.071 -0.3261  0.5218  0.4187
 2343SOL    HW1 9983   5.456   2.254   7.077  0.3555  0.4269 -0.7648
 2343SOL    HW2 9984   5.344   2.159   7.111 -0.2481  1.6222  0.7160
 2344SOL     OW 9985   4.875   6.881   0.170  0.3270 -0.0157  0.1510
 2344SOL    HW1 9986   4.870   6.879   0.074 -0.6317  1.8157  0.1157
 2344SOL    HW2 9987   4.855   6.792   0.197  1.0581 -0.6684 -1.3548
 2345SOL     OW 9988   1.258   0.687   6.656 -0.5100 -0.4791  0.2935
 2345SOL    HW1 9989   1.293   0.676   6.744  1.5121  1.3838 -0.1767
 2345SOL    HW2 9990   1.295   0.614   6.606  2.1829  0.9052  0.0433
 2346SOL     OW 9991   6.267   2.871   0.147 -0.3355  0.2572  0.5601
 2346SOL    HW1 9992   6.273   2.788   0.194 -4.1133 -0.0283  0.8741
 2346SOL    HW2 9993   6.189   2.913   0.183 -0.8072  2.1316 -2.2982
 2347SOL     OW 9994   6.499   1.931   1.600 -0.3129 -0.1131 -0.1025
 2347SOL    HW1 9995   6.576   1.889   1.638 -1.5300 -1.6522  0.7816
 2347SOL    HW2 9996   6.464   1.866   1.539 -1.3228  0.2407  0.0804
 2348SOL     OW 9997   4.038   4.941   5.629 -0.4604  0.1531  0.2555
 2348SOL    HW1 9998   4.103   4.875   5.605  0.3175  0.6117  1.0622
 2348SOL    HW2 9999   3.989   4.956   5.548  1.5349  1.0368 -0.8587
 2349SOL     OW10000   5.987   2.734   6.990 -0.2283 -0.1499 -0.2421
 2349SOL    HW110001   5.969   2.784   6.911 -0.9099 -2.3331 -1.5365
 2349SOL    HW210002   5.906   2.740   7.042  0.0286  0.8400  0.0506
 2350SOL     OW10003   3.561   3.161   6.847  0.2105 -0.0958 -0.3052
 2350SOL    HW110004   3.557   3.122   6.934 -1.6369  1.3181  0.3112
 2350SOL    HW210005   3.648   3.200   6.842  0.2060  0.1559  1.0908
 2351SOL     OW10006   6.540   1.207   7.817  0.4826 -0.0020 -0.2111
 2351SOL    HW110007   6.609   1.261   7.779  3.5391 -1.5907  2.4860
 2351SOL    HW210008   6.478   1.269   7.855  2.6962  1.6892  0.8625
 2352SOL     OW10009   4.283   6.522   7.893 -0.3595  0.1985 -0.4747
 2352SOL    HW110010   4.246   6.436   7.874 -0.5255 -0.6516  3.0981
 2352SOL    HW210011   4.375   6.514   7.869  0.3703 -2.1195  2.5661
 2353SOL     OW10012   4.665   7.116   0.273  0.1436  0.2705  0.2844
 2353SOL    HW110013   4.588   7.062   0.254  0.0870 -0.2783  1.8707
 2353SOL    HW210014   4.727   7.055   0.314  1.4107  0.7229 -0.8950
 2354SOL     OW10015   4.856   0.338   1.793 -0.0262 -0.6445  0.0880
 2354SOL    HW110016   4.910   0.267   1.759  0.1141  0.4755 -2.2899
 2354SOL    HW210017   4.915   0.413   1.798 -0.7652 -0.0369 -0.0772
 2355SOL     OW10018   5.682   0.668   4.363  0.3644 -0.1441  0.1756
 2355SOL    HW110019   5.665   0.756   4.397 -1.1024  0.5753 -2.1835
 2355SOL    HW210020   5.762   0.678   4.311 -0.6506  0.2462 -1.3841
 2356SOL     OW10021   7.286   4.376   4.699 -0.2558 -0.1013  0.3248
 2356SOL    HW110022   7.226   4.370   4.625 -0.2842  0.8039  0.2632
 2356SOL    HW210023   7.292   4.469   4.717  1.3443 -0.1348  0.1475
 2357SOL     OW10024   1.179   0.982   4.421 -0.0029 -0.0828 -0.3267
 2357SOL    HW110025   1.233   1.043   4.471 -2.4221  1.4118  0.6080
 2357SOL    HW210026   1.092   1.020   4.421 -1.0819 -2.2873 -1.9451
 2358SOL     OW10027   5.909   7.324   3.807 -0.2834 -0.2509  0.1332
 2358SOL    HW110028   5.839   7.280   3.760 -1.4020  1.1063  0.4648
 2358SOL    HW210029   5.868   7.402   3.846  1.2217  0.1711  0.9970
 2359SOL     OW10030   8.099   7.412   4.310 -0.3294  0.4761  0.2361
 2359SOL    HW110031   8.154   7.469   4.257 -0.8913  0.8355  0.0289
 2359SOL    HW210032   8.011   7.449   4.301 -0.5911 -0.0451  0.6189
 2360SOL     OW10033   3.859   6.743   2.728  0.3180  0.3188 -0.0991
 2360SOL    HW110034   3.768   6.749   2.757  0.3086 -0.3545  0.0375
 2360SOL    HW210035   3.903   6.816   2.771  0.0011  0.1811  0.4735
 2361SOL     OW10036   6.588   1.890   5.183  0.0055 -0.0750 -0.7475
 2361SOL    HW110037   6.607   1.941   5.104 -0.6368  0.6773 -0.4314
 2361SOL    HW210038   6.674   1.857   5.211  0.1816 -0.8077 -2.0418
 2362SOL     OW10039   5.632   3.929   7.462 -0.2031 -0.9853 -0.5738
 2362SOL    HW110040   5.720   3.967   7.459  0.0761 -1.5779 -0.0216
 2362SOL    HW210041   5.616   3.899   7.373 -0.5004  0.5517 -1.0774
 2363SOL     OW10042   5.515   7.858   4.226  0.1681 -0.1204 -0.1785
 2363SOL    HW110043   5.455   7.849   4.300 -0.7663  2.2879 -0.5406
 2363SOL    HW210044   5.458   7.860   4.149  0.5842  2.4173 -0.5132
 2364SOL     OW10045   7.661   2.098   2.398  0.1049  0.0984  0.2309
 2364SOL    HW110046   7.704   2.155   2.461  0.6205 -0.2870  0.2362
 2364SOL    HW210047   7.577   2.076   2.439  0.6402 -0.5489  1.0118
 2365SOL     OW10048   4.770   5.683   0.118  0.0520  0.2421  0.1480
 2365SOL    HW110049   4.706   5.619   0.148  2.0571 -1.3623  1.2934
 2365SOL    HW210050   4.831   5.691   0.192  1.1134  1.7583 -0.8524
 2366SOL     OW10051   2.854   3.472   2.282 -0.3072 -0.0679  0.4494
 2366SOL    HW110052   2.904   3.391   2.277 -1.7031 -0.9144 -3.4951
 2366SOL    HW210053   2.916   3.536   2.317  2.4757 -1.7958 -0.9649
 2367SOL     OW10054   4.466   7.112   4.754  0.4638  0.0134  0.3498
 2367SOL    HW110055   4.413   7.174   4.805  1.0211  1.3003 -0.5682
 2367SOL    HW210056   4.511   7.167   4.690  0.5823 -1.4331 -0.8494
 2368SOL     OW10057   3.035   5.492   3.927 -0.4099  0.0204 -0.2951
 2368SOL    HW110058   3.112   5.511   3.874  0.6674  1.4368  1.6522
 2368SOL    HW210059   3.041   5.552   4.001 -0.6932 -3.1186  2.5380
 2369SOL     OW10060   2.010   5.530   4.704  0.1430 -0.1354  0.0163
 2369SOL    HW110061   1.918   5.526   4.677  0.5021  0.9632 -1.4841
 2369SOL    HW210062   2.013   5.480   4.786 -2.0708  1.0722  0.9197
 2370SOL     OW10063   5.704   5.025   2.814 -0.2854  0.0416 -0.0584
 2370SOL    HW110064   5.622   5.070   2.794 -0.5455  0.4893  1.8796
 2370SOL    HW210065   5.772   5.081   2.776 -0.6975  1.2875  0.9951
 2371SOL     OW10066   4.513   6.429   1.130 -0.0389 -0.2749 -0.1008
 2371SOL    HW110067   4.426   6.438   1.092  0.1236 -1.2382 -0.7245
 2371SOL    HW210068   4.509   6.481   1.211 -1.1396 -0.1927 -0.1922
 2372SOL     OW10069   1.891   7.057   5.609  0.2764  0.4101  0.0073
 2372SOL    HW110070   1.844   6.976   5.589 -0.5492  1.2220 -1.5682
 2372SOL    HW210071   1.944   7.036   5.685 -1.0375 -1.1771  0.5415
 2373SOL     OW10072   6.186   8.101   7.175 -0.4210  0.3640 -0.2157
 2373SOL    HW110073   6.174   8.118   7.082 -1.9446  1.8324  0.1892
 2373SOL    HW210074   6.167   8.185   7.217  1.1343 -0.0195  1.3771
 2374SOL     OW10075   4.617   7.204   1.997  0.1284 -0.0285 -0.1780
 2374SOL    HW110076   4.591   7.174   1.910  0.2491  0.8238 -0.5131
 2374SOL    HW210077   4.558   7.278   2.016  0.1282 -0.1830  0.4483
 2375SOL     OW10078   7.473   0.505   7.039 -0.1804  0.0332  0.5098
 2375SOL    HW110079   7.521   0.535   6.962  0.0982  2.1025  1.4184
 2375SOL    HW210080   7.383   0.494   7.009 -0.0799  0.8277 -0.1163
 2376SOL     OW10081   5.118   8.007   4.099 -0.3988  0.1015  0.4945
 2376SOL    HW110082   5.058   7.997   4.173 -0.7733 -0.5758  0.1104
 2376SOL    HW210083   5.063   7.993   4.022  0.7654 -4.0184  0.1411
 2377SOL     OW10084   3.027   2.126   0.497 -0.3414  0.1388 -0.0127
 2377SOL    HW110085   3.060   2.090   0.415 -0.8087 -0.8622  0.2289
 2377SOL    HW210086   3.040   2.057   0.562 -2.1101  0.0262  0.2667
 2378SOL     OW10087   2.620   7.064   7.783 -0.0576  0.0162 -1.0650
 2378SOL    HW110088   2.584   7.153   7.778 -0.5273 -0.1272 -0.3652
 2378SOL    HW210089   2.711   7.073   7.755  0.3309  0.9890  0.3863
 2379SOL     OW10090   5.311   3.956   2.237 -0.3316 -0.5852  0.3500
 2379SOL    HW110091   5.231   3.914   2.206 -0.7316 -0.4126  1.1302
 2379SOL    HW210092   5.327   3.917   2.323 -0.4996  0.5643  0.9211
 2380SOL     OW10093   7.732   3.633   0.649  0.3245 -0.0285  0.1169
 2380SOL    HW110094   7.813   3.611   0.694 -0.5982 -0.3490  1.7001
 2380SOL    HW210095   7.663   3.598   0.705 -0.8975 -0.3875 -1.5452
 2381SOL     OW10096   0.997   3.712   0.639 -0.0203  0.8216 -0.8027
 2381SOL    HW110097   0.914   3.694   0.596  0.1128  0.0756 -0.7614
 2381SOL    HW210098   1.023   3.628   0.677  0.0462  1.3647  0.4110
 2382SOL     OW10099   8.000   2.124   4.358 -0.2482 -0.6056 -0.3139
 2382SOL    HW110100   7.944   2.149   4.284 -0.1669  0.5391 -0.0025
 2382SOL    HW210101   7.986   2.193   4.423  1.0279 -0.6529  0.0314
 2383SOL     OW10102   4.529   2.685   7.455  0.0986 -0.1963  0.2937
 2383SOL    HW110103   4.472   2.747   7.411 -1.3109 -1.4390  0.3028
 2383SOL    HW210104   4.560   2.732   7.533  0.9305  1.2664 -0.8516
 2384SOL     OW10105   5.622   7.128   5.959  0.2507 -0.0160  0.2412
 2384SOL    HW110106   5.635   7.067   6.031 -0.4043  0.5250  0.8344
 2384SOL    HW210107   5.527   7.130   5.946  0.3433  0.0733 -0.4844
 2385SOL     OW10108   0.975   2.772   4.694 -0.4013  0.2193 -0.1213
 2385SOL    HW110109   0.886   2.740   4.709 -1.1173  1.9388 -0.5252
 2385SOL    HW210110   1.032   2.700   4.723 -1.8858 -0.4529  1.2386
 2386SOL     OW10111   2.082   1.028   2.735  0.0172 -0.1553 -0.3200
 2386SOL    HW110112   2.141   0.996   2.803  0.9613 -0.7969 -1.3905
 2386SOL    HW210113   2.055   0.949   2.688 -1.4263  0.1717 -0.0855
 2387SOL     OW10114   3.083   6.107   5.191  0.1868  0.0075 -0.2525
 2387SOL    HW110115   3.145   6.116   5.264  0.0110 -0.6194 -0.0160
 2387SOL    HW210116   2.998   6.096   5.234 -0.5412  3.3003 -0.5428
 2388SOL     OW10117   8.056   1.813   0.224  0.3334 -0.2562 -0.1878
 2388SOL    HW110118   7.967   1.780   0.221 -0.4689  1.7948 -1.7731
 2388SOL    HW210119   8.102   1.756   0.285 -2.1894 -1.0362  1.0835
 2389SOL     OW10120   3.250   6.348   3.391  0.3674 -0.5832  0.9047
 2389SOL    HW110121   3.271   6.303   3.473  3.3031  0.3848  0.8240
 2389SOL    HW210122   3.258   6.441   3.413  1.3578 -0.3153 -0.4740
 2390SOL     OW10123   5.602   2.691   3.619  0.2967 -0.1560  0.4915
 2390SOL    HW110124   5.610   2.786   3.632  1.1565 -0.3256  1.3914
 2390SOL    HW210125   5.576   2.681   3.528  0.5782  0.9382  0.2750
 2391SOL     OW10126   1.860   6.637   2.095  0.2408 -0.2500  0.3461
 2391SOL    HW110127   1.843   6.571   2.162 -0.4076 -0.4726 -0.0360
 2391SOL    HW210128   1.886   6.715   2.145 -1.8147  0.0915  0.9767
 2392SOL     OW10129   3.426   5.378   4.265  0.5030 -0.7947  0.3510
 2392SOL    HW110130   3.394   5.455   4.312  0.7057 -1.8947  2.4143
 2392SOL    HW210131   3.498   5.411   4.211 -0.0031  0.6001  0.4823
 2393SOL     OW10132   0.560   7.927   5.937 -0.7686 -0.3176  0.3753
 2393SOL    HW110133   0.635   7.870   5.949  0.3135  0.6711 -1.3256
 2393SOL    HW210134   0.583   8.008   5.983 -0.9188 -0.1088  0.0868
 2394SOL     OW10135   8.106   4.055   2.519 -0.4651  0.1256  0.1756
 2394SOL    HW110136   8.105   4.005   2.601 -0.0429  0.8728  0.6544
 2394SOL    HW210137   8.091   4.145   2.546  0.0378  0.4325 -0.5353
 2395SOL     OW10138   7.248   0.646   6.306  0.4589 -0.1929  0.4376
 2395SOL    HW110139   7.202   0.703   6.245  1.2189 -0.5405 -0.5006
 2395SOL    HW210140   7.321   0.699   6.338 -0.9387  0.6007  2.4692
 2396SOL     OW10141   7.707   7.463   1.297  0.8989 -0.0230 -0.1474
 2396SOL    HW110142   7.736   7.515   1.222  0.2820  0.2569 -0.1977
 2396SOL    HW210143   7.649   7.521   1.345 -1.8899 -1.4324 -1.5764
 2397SOL     OW10144   5.381   2.194   1.421 -0.2422  0.5427 -1.4241
 2397SOL    HW110145   5.351   2.148   1.500  1.6930  0.0805 -0.9047
 2397SOL    HW210146   5.332   2.276   1.421  1.7745  1.9729  2.0036
 2398SOL     OW10147   1.839   7.775   7.718 -0.2437  0.0501 -0.3748
 2398SOL    HW110148   1.765   7.762   7.659 -1.9446 -0.8068  1.8119
 2398SOL    HW210149   1.868   7.864   7.701  0.0873 -0.5155 -3.2282
 2399SOL     OW10150   3.181   3.101   2.912  0.1089  0.2620 -0.1690
 2399SOL    HW110151   3.166   3.021   2.962 -0.9409  0.0121 -0.8682
 2399SOL    HW210152   3.096   3.124   2.876  0.5055  1.4000 -0.4250
 2400SOL     OW10153   5.930   6.321   6.538  0.9720  0.1982  0.2887
 2400SOL    HW110154   5.890   6.236   6.557  0.9402  0.0579 -0.3885
 2400SOL    HW210155   6.018   6.300   6.507  0.2567  0.2633 -1.9278
 2401SOL     OW10156   0.483   7.671   1.659  0.4321  0.0580 -0.2924
 2401SOL    HW110157   0.396   7.675   1.698  0.1606  1.1138 -0.9861
 2401SOL    HW210158   0.534   7.735   1.708  0.6784 -0.1738 -0.2435
 2402SOL     OW10159   7.206   2.120   5.353  0.3232  0.0678 -0.0867
 2402SOL    HW110160   7.260   2.046   5.324 -0.3171  0.1459 -1.5527
 2402SOL    HW210161   7.213   2.185   5.283  0.8821  1.4303  1.1863
 2403SOL     OW10162   5.653   4.497   2.581  0.0969 -0.0476  0.2919
 2403SOL    HW110163   5.680   4.535   2.498  2.1697 -1.0205  0.4498
 2403SOL    HW210164   5.589   4.559   2.616 -0.4322  0.6441 -1.7515
 2404SOL     OW10165   5.450   2.273   3.459  0.8732 -0.6156 -0.0807
 2404SOL    HW110166   5.458   2.334   3.385  0.9563 -2.0832 -1.3318
 2404SOL    HW210167   5.361   2.238   3.451  0.0500  0.8493  1.8960
 2405SOL     OW10168   6.495   2.144   4.539  0.4870 -0.0056 -0.3094
 2405SOL    HW110169   6.461   2.060   4.568 -2.2146  0.6921 -1.1210
 2405SOL    HW210170   6.589   2.130   4.527  0.6406 -2.0170  2.4507
 2406SOL     OW10171   1.760   3.556   2.210 -0.0782  0.1809 -0.4924
 2406SOL    HW110172   1.707   3.482   2.180 -2.0354  1.1645  0.3788
 2406SOL    HW210173   1.769   3.612   2.133  1.8119 -1.1175 -1.2849
 2407SOL     OW10174   1.908   3.642   7.041 -0.0867 -0.0363 -0.0593
 2407SOL    HW110175   1.856   3.574   7.083 -2.1774  1.5898  0.1360
 2407SOL    HW210176   1.936   3.699   7.114  0.3195  0.1584 -0.3661
 2408SOL     OW10177   0.545   4.334   7.378  0.1873 -0.7392  0.3781
 2408SOL    HW110178   0.615   4.349   7.442 -0.3183 -0.8452  0.9633
 2408SOL    HW210179   0.546   4.240   7.362  0.3198 -0.7114  0.2240
 2409SOL     OW10180   3.213   3.912   7.903  0.0252  0.2328  0.0018
 2409SOL    HW110181   3.229   4.006   7.915 -0.8897  0.2576  1.2880
 2409SOL    HW210182   3.239   3.873   7.986  0.8283 -0.7369 -0.6855
 2410SOL     OW10183   2.175   2.559   5.580 -0.2408 -0.1131  0.2483
 2410SOL    HW110184   2.239   2.586   5.513 -1.0182  0.3091 -0.3461
 2410SOL    HW210185   2.200   2.470   5.601 -0.3688 -0.4995 -1.1129
 2411SOL     OW10186   1.006   0.123   4.501 -0.4158 -0.1549  0.7641
 2411SOL    HW110187   1.081   0.065   4.485 -0.6259 -0.1555 -0.2970
 2411SOL    HW210188   1.023   0.161   4.587  1.1742  0.4074  0.2320
 2412SOL     OW10189   5.574   2.414   7.106  0.4682  0.2754  0.2140
 2412SOL    HW110190   5.666   2.430   7.123  0.8191 -0.3503 -0.9754
 2412SOL    HW210191   5.536   2.393   7.191  1.4825  0.2643  0.6686
 2413SOL     OW10192   4.297   7.497   4.030 -0.2616  0.4432  0.3511
 2413SOL    HW110193   4.367   7.510   4.095 -0.3909  1.9415  0.2271
 2413SOL    HW210194   4.218   7.482   4.082  0.0109 -0.4988  0.5021
 2414SOL     OW10195   6.376   3.192   2.991  0.4293 -0.0602 -0.0907
 2414SOL    HW110196   6.433   3.256   3.033  1.8235 -0.2525 -1.6170
 2414SOL    HW210197   6.369   3.220   2.900 -0.6503 -0.9354 -0.3088
 2415SOL     OW10198   0.439   5.168   4.168 -0.3724 -0.0215  0.5942
 2415SOL    HW110199   0.350   5.200   4.187 -1.3708 -2.6741  0.8339
 2415SOL    HW210200   0.474   5.144   4.254  0.2213  0.1460  0.4001
 2416SOL     OW10201   4.918   6.825   1.881  0.2973 -0.0352  0.2892
 2416SOL    HW110202   5.003   6.860   1.855 -0.1179  0.2420 -0.7504
 2416SOL    HW210203   4.887   6.885   1.949  1.9719 -1.5005  2.4838
 2417SOL     OW10204   5.028   3.032   7.981 -0.2637  0.1650  0.2794
 2417SOL    HW110205   4.948   3.084   7.978  0.9476  2.0524 -0.5302
 2417SOL    HW210206   5.009   2.955   7.927 -1.9522 -0.1200  1.2037
 2418SOL     OW10207   2.987   6.350   3.513 -0.2780 -0.3886 -0.0214
 2418SOL    HW110208   3.068   6.308   3.484 -0.2031  0.3873 -0.9962
 2418SOL    HW210209   2.919   6.283   3.501  0.0158 -0.6095 -0.4794
 2419SOL     OW10210   1.107   1.259   4.289 -0.4268  0.2563  0.2940
 2419SOL    HW110211   1.021   1.228   4.319 -0.5239 -0.5193 -0.7406
 2419SOL    HW210212   1.094   1.279   4.197  0.6798 -0.5742 -0.0636
 2420SOL     OW10213   5.667   7.569   8.095  0.2786  0.3172  0.2651
 2420SOL    HW110214   5.746   7.517   8.104  0.7605  0.4830 -2.3120
 2420SOL    HW210215   5.599   7.517   8.139  1.3586 -0.9003  0.5547
 2421SOL     OW10216   3.621   3.373   0.606  0.6351 -0.4341  0.1718
 2421SOL    HW110217   3.678   3.434   0.559  1.4047 -0.2027  1.3605
 2421SOL    HW210218   3.575   3.325   0.537 -1.7766  3.0153 -0.9419
 2422SOL     OW10219   2.796   5.334   5.866 -0.2324 -0.2022 -0.0418
 2422SOL    HW110220   2.792   5.382   5.948  0.1136 -0.6154  0.2215
 2422SOL    HW210221   2.783   5.242   5.890  0.7818 -0.4360 -0.3249
 2423SOL     OW10222   0.096   6.688   1.092  0.3548  0.1594  0.5611
 2423SOL    HW110223   0.142   6.772   1.087 -3.7595  2.6643  1.0176
 2423SOL    HW210224   0.036   6.689   1.017  0.0688 -2.3545  0.6827
 2424SOL     OW10225   7.423   3.311   5.117  0.0098 -0.6611  0.3366
 2424SOL    HW110226   7.345   3.270   5.155  0.8742 -0.7889  2.0742
 2424SOL    HW210227   7.390   3.388   5.071 -1.1784 -0.9313  0.7014
 2425SOL     OW10228   3.546   6.268   6.959 -0.6797 -0.3138  0.6570
 2425SOL    HW110229   3.486   6.333   6.923 -0.6889  0.1419  1.4537
 2425SOL    HW210230   3.491   6.192   6.977 -0.7386 -0.4198  0.0469
 2426SOL     OW10231   6.861   5.189   0.110 -0.4317  0.0801  0.2582
 2426SOL    HW110232   6.844   5.255   0.177  0.1708  0.3086  0.1995
 2426SOL    HW210233   6.787   5.196   0.050  0.3364  1.7706 -0.5751
 2427SOL     OW10234   6.047   1.547   5.369  0.5119  0.0043 -0.0139
 2427SOL    HW110235   5.989   1.586   5.304  0.4202  0.5714  0.4051
 2427SOL    HW210236   6.106   1.491   5.318 -1.8338 -2.4425 -0.2308
 2428SOL     OW10237   2.523   6.823   5.781  0.1727 -0.4823  0.2713
 2428SOL    HW110238   2.532   6.910   5.743 -0.1484 -0.4193  0.3391
 2428SOL    HW210239   2.526   6.763   5.707  1.2763 -0.4806  0.2884
 2429SOL     OW10240   6.865   1.596   1.321 -0.8366 -0.5213  0.2437
 2429SOL    HW110241   6.898   1.636   1.402  1.6002  0.2751 -1.0284
 2429SOL    HW210242   6.802   1.660   1.287 -0.2751  0.1642  0.4611
 2430SOL     OW10243   5.769   5.111   8.129 -1.1072  0.0250 -0.0078
 2430SOL    HW110244   5.690   5.067   8.161 -0.9702 -1.0280 -1.0368
 2430SOL    HW210245   5.738   5.164   8.055 -0.8013 -0.6845 -0.6511
 2431SOL     OW10246   5.610   3.359   2.035  0.2458 -0.1571 -0.0905
 2431SOL    HW110247   5.514   3.359   2.030  0.1394  0.5949  1.2942
 2431SOL    HW210248   5.639   3.339   1.946 -1.1910  0.1613 -0.6628
 2432SOL     OW10249   4.606   4.244   5.450  0.4739  0.1240 -0.1694
 2432SOL    HW110250   4.647   4.180   5.509  0.4123  0.9129  0.7583
 2432SOL    HW210251   4.654   4.326   5.466 -1.2161  0.9991  0.7056
 2433SOL     OW10252   7.839   7.025   0.357 -0.1212  0.1967  0.2964
 2433SOL    HW110253   7.877   7.090   0.297  0.0424  0.8347  1.0659
 2433SOL    HW210254   7.840   7.068   0.442 -0.7751 -0.5201  0.6833
 2434SOL     OW10255   6.268   0.101   7.562  0.2746 -0.0083  0.0803
 2434SOL    HW110256   6.318   0.182   7.552  0.5127 -0.1188  0.3532
 2434SOL    HW210257   6.201   0.105   7.493 -0.3637  0.8995  0.7295
 2435SOL     OW10258   0.990   7.837   5.208  0.1272  0.1498 -0.9145
 2435SOL    HW110259   0.917   7.778   5.189 -0.4918 -0.1132  1.8158
 2435SOL    HW210260   1.060   7.779   5.238  0.5892  0.5824 -1.1500
 2436SOL     OW10261   1.721   2.531   4.862 -0.3737  0.3621  1.1671
 2436SOL    HW110262   1.710   2.533   4.767  2.6542  1.8477  0.7206
 2436SOL    HW210263   1.685   2.447   4.890  0.6379 -1.1075 -1.6263
 2437SOL     OW10264   5.723   1.385   6.110 -0.6899  0.2726 -0.1399
 2437SOL    HW110265   5.735   1.461   6.166  2.5027 -1.2520  1.5024
 2437SOL    HW210266   5.685   1.318   6.167  1.0604 -0.7864 -0.1380
 2438SOL     OW10267   0.153   0.216   5.020  0.5224  0.7442 -0.5166
 2438SOL    HW110268   0.119   0.302   5.042  0.2911  0.1110  1.8990
 2438SOL    HW210269   0.238   0.233   4.979  0.0976  2.1195 -0.8760
 2439SOL     OW10270   5.677   3.833   2.436  0.2659 -0.2591  0.3017
 2439SOL    HW110271   5.696   3.743   2.408 -0.5622 -0.4600  0.3584
 2439SOL    HW210272   5.625   3.823   2.516  1.6980  0.3009  1.3327
 2440SOL     OW10273   4.648   3.200   0.739  0.6577  0.0316  0.7885
 2440SOL    HW110274   4.652   3.248   0.656 -1.1096  0.7452  1.0971
 2440SOL    HW210275   4.641   3.267   0.806  0.8226 -0.5829  1.4329
 2441SOL     OW10276   6.190   0.832   4.191  0.0331 -0.5595 -0.5481
 2441SOL    HW110277   6.274   0.877   4.194 -1.0667  1.6172 -0.9486
 2441SOL    HW210278   6.162   0.838   4.100 -1.0759 -0.2178 -0.2063
 2442SOL     OW10279   7.938   0.141   0.714  0.2131 -0.2579 -0.2235
 2442SOL    HW110280   7.888   0.220   0.734  1.9041  1.1112 -1.1580
 2442SOL    HW210281   7.957   0.148   0.621  0.3027 -1.8562 -0.3506
 2443SOL     OW10282   7.035   1.996   6.012 -0.0981  0.4510 -0.3865
 2443SOL    HW110283   7.005   2.072   5.962 -0.4065  0.4994 -0.1345
 2443SOL    HW210284   6.979   1.924   5.983 -0.0326  0.3985 -0.3809
 2444SOL     OW10285   3.620   0.285   2.590 -0.3515  1.1830  0.4638
 2444SOL    HW110286   3.530   0.286   2.622  0.3938  1.1617  2.7807
 2444SOL    HW210287   3.672   0.318   2.664  1.7245 -0.4499 -0.1459
 2445SOL     OW10288   0.045   0.970   3.683  0.2106 -0.0001 -0.6184
 2445SOL    HW110289  -0.033   0.928   3.646 -1.2826  2.0639 -0.0161
 2445SOL    HW210290   0.010   1.038   3.740  2.4887 -0.8933  2.0036
 2446SOL     OW10291   4.356   3.382   1.696 -0.4598 -0.0059  0.4022
 2446SOL    HW110292   4.441   3.357   1.659 -1.3104 -0.9902 -0.9726
 2446SOL    HW210293   4.378   3.427   1.778  1.4471  1.0550 -0.6106
 2447SOL     OW10294   4.074   4.678   5.736  0.0483 -0.1564  0.4263
 2447SOL    HW110295   4.129   4.672   5.814  0.0313 -1.1328  0.3737
 2447SOL    HW210296   4.024   4.596   5.735 -0.0512 -0.0974 -0.5326
 2448SOL     OW10297   7.291   6.959   3.390  0.4309  0.0202  0.0271
 2448SOL    HW110298   7.295   6.930   3.481  1.1228 -0.3751 -0.1197
 2448SOL    HW210299   7.198   6.949   3.365  0.4844 -1.2038  0.2677
 2449SOL     OW10300   2.887   2.250   6.327  0.6939  0.2881  0.0074
 2449SOL    HW110301   2.947   2.190   6.281 -0.6363 -0.5535 -0.6955
 2449SOL    HW210302   2.805   2.243   6.279 -0.6548 -0.3076  2.2427
 2450SOL     OW10303   5.052   7.638   5.262 -0.7286  0.7330 -0.5311
 2450SOL    HW110304   5.122   7.697   5.236  0.2323  0.0145  0.3653
 2450SOL    HW210305   5.094   7.553   5.272 -1.7313  0.2766  0.0002
 2451SOL     OW10306   3.110   3.703   1.240 -0.1933 -0.2304  0.2439
 2451SOL    HW110307   3.124   3.661   1.155  0.6239  0.5603 -0.0341
 2451SOL    HW210308   3.080   3.632   1.298 -0.4795 -0.8347 -0.6204
 2452SOL     OW10309   0.937   0.920   1.748  0.3409 -0.1260  0.8920
 2452SOL    HW110310   0.909   0.994   1.694 -0.7737 -0.7563  0.5695
 2452SOL    HW210311   0.865   0.857   1.741  2.1456 -2.1921 -0.5835
 2453SOL     OW10312   1.315   0.482   0.403 -0.1461  0.5971 -0.6237
 2453SOL    HW110313   1.326   0.566   0.447 -1.3864  1.5476 -2.0456
 2453SOL    HW210314   1.240   0.494   0.345 -0.0432 -1.3403 -1.2498
 2454SOL     OW10315   5.433   1.502   7.793 -0.0141  0.3438  0.2261
 2454SOL    HW110316   5.463   1.419   7.831  0.6816  0.8300  0.7607
 2454SOL    HW210317   5.506   1.532   7.740 -1.7187 -1.3937 -3.4185
 2455SOL     OW10318   2.954   6.025   7.793 -0.4829  0.2564 -0.2316
 2455SOL    HW110319   2.980   6.061   7.708  0.2806 -1.3714 -0.7322
 2455SOL    HW210320   2.930   6.101   7.845 -1.6329  1.2590 -2.1177
 2456SOL     OW10321   2.155   6.626   2.932  0.3891 -0.3680  0.0534
 2456SOL    HW110322   2.060   6.616   2.930  0.5327 -1.7587 -0.9128
 2456SOL    HW210323   2.189   6.545   2.895  2.0055 -0.4107  1.4960
 2457SOL     OW10324   5.323   1.982   2.342 -0.3827 -0.1038 -0.0209
 2457SOL    HW110325   5.400   2.007   2.393 -0.2965  0.5895 -0.4840
 2457SOL    HW210326   5.309   2.055   2.282 -0.3837 -0.9902 -1.1166
 2458SOL     OW10327   1.448   2.977   3.625  0.0875  0.1503 -0.4154
 2458SOL    HW110328   1.534   2.955   3.661 -0.0732  0.0525 -0.0765
 2458SOL    HW210329   1.407   3.031   3.693  0.6862  2.0159 -1.4709
 2459SOL     OW10330   3.065   2.030   3.753 -0.2907  0.2942  0.1210
 2459SOL    HW110331   3.010   2.008   3.677  0.1780  0.1576 -0.1810
 2459SOL    HW210332   3.152   2.047   3.716 -0.3262  1.3675  0.4990
 2460SOL     OW10333   3.409   6.521   7.773  0.5551 -0.1127 -0.4351
 2460SOL    HW110334   3.464   6.484   7.842  1.0133  1.6046  0.1527
 2460SOL    HW210335   3.469   6.538   7.700  0.1441 -1.5203 -1.1534
 2461SOL     OW10336   4.835   7.202   4.636  0.1280  0.3286 -0.0002
 2461SOL    HW110337   4.923   7.169   4.620 -0.0573 -0.0112 -0.3492
 2461SOL    HW210338   4.844   7.297   4.634  0.7949  0.3436  1.7139
 2462SOL     OW10339   6.813   3.622   7.362 -0.3681 -0.8044 -0.1840
 2462SOL    HW110340   6.811   3.590   7.272  0.1628 -1.1256 -0.0888
 2462SOL    HW210341   6.884   3.687   7.363 -0.2814 -0.9010  0.0344
 2463SOL     OW10342   6.188   2.936   1.724 -0.2522 -0.0315  0.3420
 2463SOL    HW110343   6.248   3.009   1.710 -0.6743  0.0317 -1.3580
 2463SOL    HW210344   6.221   2.866   1.668 -2.7642  0.6551 -2.2380
 2464SOL     OW10345   1.406   6.376   6.280 -0.2337 -0.0494  0.2294
 2464SOL    HW110346   1.333   6.319   6.259  0.4912 -1.1139  0.5306
 2464SOL    HW210347   1.370   6.465   6.275 -2.2278 -0.6097  3.0011
 2465SOL     OW10348   6.213   4.157   0.239 -0.1129  0.6621  0.5485
 2465SOL    HW110349   6.222   4.099   0.163 -1.0019  1.8790 -0.5337
 2465SOL    HW210350   6.248   4.106   0.312  0.1579 -0.8039 -0.5473
 2466SOL     OW10351   1.046   0.274   2.738 -0.0719 -0.3107 -0.8646
 2466SOL    HW110352   0.972   0.255   2.797  0.2964 -3.1523 -1.1872
 2466SOL    HW210353   1.110   0.319   2.794  0.0863 -2.5498  0.8739
 2467SOL     OW10354   5.345   6.448   4.045  0.4236 -0.1654  0.0888
 2467SOL    HW110355   5.386   6.366   4.019  1.7591  0.9449 -1.4990
 2467SOL    HW210356   5.398   6.481   4.117 -0.3936 -0.9069  1.0406
 2468SOL     OW10357   4.530   1.343   5.249  0.5313  0.1140 -0.3718
 2468SOL    HW110358   4.577   1.372   5.170 -1.7823  1.7312 -1.2774
 2468SOL    HW210359   4.497   1.424   5.288  0.1819 -0.8011  1.3200
 2469SOL     OW10360   4.446   1.703   7.163 -0.0041  0.2045 -0.8113
 2469SOL    HW110361   4.399   1.620   7.149  0.7296 -0.4678  0.4615
 2469SOL    HW210362   4.506   1.709   7.089  1.4770 -1.5604  0.1567
 2470SOL     OW10363   7.326   4.774   0.566 -0.2449 -0.0386  0.2538
 2470SOL    HW110364   7.257   4.794   0.502 -0.7868 -1.5650  0.3174
 2470SOL    HW210365   7.304   4.687   0.597  1.7051 -0.5364  0.3340
 2471SOL     OW10366   1.118   7.128   3.351 -0.8612 -0.1225  0.0836
 2471SOL    HW110367   1.117   7.107   3.444 -0.9728  1.5780  0.4909
 2471SOL    HW210368   1.156   7.215   3.346  0.0877 -0.5739 -1.5646
 2472SOL     OW10369   7.775   7.600   2.723  0.1667  0.2864 -0.1681
 2472SOL    HW110370   7.703   7.579   2.664 -0.3008  1.1761  0.0744
 2472SOL    HW210371   7.844   7.538   2.699 -0.7351 -0.6913 -0.2841
 2473SOL     OW10372   3.093   5.686   6.213 -0.5001 -0.6222 -0.2571
 2473SOL    HW110373   3.122   5.670   6.123 -0.9736 -1.6954 -0.2311
 2473SOL    HW210374   3.136   5.617   6.264  0.7566  0.7161  0.5493
 2474SOL     OW10375   7.249   3.989   6.076 -0.2912  0.4235  0.1478
 2474SOL    HW110376   7.199   3.912   6.105 -0.7988  0.8740  0.4753
 2474SOL    HW210377   7.190   4.063   6.091  0.3602  0.9283  0.2534
 2475SOL     OW10378   7.506   0.117   6.880 -0.0715 -0.2664 -0.2959
 2475SOL    HW110379   7.414   0.142   6.877  0.5028  2.0057 -1.1401
 2475SOL    HW210380   7.553   0.197   6.858  2.1699 -1.0927  1.1306
 2476SOL     OW10381   6.895   1.157   5.178 -0.3759  0.1053  0.2472
 2476SOL    HW110382   6.825   1.220   5.164  0.8874  1.2830 -1.1069
 2476SOL    HW210383   6.965   1.207   5.220  0.3137 -0.6195 -0.0047
 2477SOL     OW10384   5.023   7.212   7.077  0.7436 -0.3899  0.8170
 2477SOL    HW110385   4.974   7.292   7.099 -1.2799 -1.1265 -0.6947
 2477SOL    HW210386   5.107   7.243   7.044 -0.4185  1.2085 -0.8039
 2478SOL     OW10387   3.435   4.260   0.343 -0.0867  0.1784  0.4192
 2478SOL    HW110388   3.428   4.313   0.422  2.0212 -0.0363  0.8245
 2478SOL    HW210389   3.453   4.171   0.375  0.2393 -0.0159 -0.2862
 2479SOL     OW10390   1.186   4.696   5.651 -0.0901 -0.3351  0.3717
 2479SOL    HW110391   1.099   4.724   5.623  0.2525 -0.5750 -1.0202
 2479SOL    HW210392   1.189   4.717   5.744 -0.5101  2.5378 -0.1822
 2480SOL     OW10393   2.999   6.394   7.398  0.1299 -0.3255  0.3961
 2480SOL    HW110394   2.918   6.396   7.449 -1.1066  1.5983 -1.4866
 2480SOL    HW210395   2.988   6.318   7.340 -0.0015 -0.4803  0.6188
 2481SOL     OW10396   5.994   6.780   5.431 -0.2730  0.3056  0.1971
 2481SOL    HW110397   5.999   6.809   5.340 -1.1922  1.5437  0.5327
 2481SOL    HW210398   5.901   6.766   5.447  0.0625 -2.8605  0.0895
 2482SOL     OW10399   6.157   4.901   1.512  0.2504 -0.1799 -0.3864
 2482SOL    HW110400   6.220   4.968   1.538  0.8217 -0.4382 -1.0726
 2482SOL    HW210401   6.073   4.947   1.511  0.3751  0.1036  0.7910
 2483SOL     OW10402   0.117   5.654   2.981 -0.4934 -0.0447  0.1865
 2483SOL    HW110403   0.129   5.598   2.904 -0.9350  0.5587 -0.3336
 2483SOL    HW210404   0.034   5.698   2.966 -0.7217 -0.1219  1.1532
 2484SOL     OW10405   4.876   0.848   3.087  0.2912  0.2458  0.1921
 2484SOL    HW110406   4.884   0.820   3.178  0.4730 -0.3858 -0.0078
 2484SOL    HW210407   4.796   0.900   3.085 -0.2106 -0.4912  0.5402
 2485SOL     OW10408   5.668   4.223   0.463 -0.0133  0.5501 -0.1856
 2485SOL    HW110409   5.613   4.239   0.387 -1.7881  0.9789  1.1033
 2485SOL    HW210410   5.611   4.178   0.525  2.2730 -2.7869 -0.2325
 2486SOL     OW10411   7.454   4.435   7.373 -0.2566  0.2627  0.2077
 2486SOL    HW110412   7.470   4.523   7.407 -1.0120  0.9732 -1.1682
 2486SOL    HW210413   7.363   4.437   7.344 -0.1577 -0.8455 -0.2275
 2487SOL     OW10414   1.578   3.640   0.787 -0.0270  0.1083  0.6087
 2487SOL    HW110415   1.582   3.732   0.814  1.0606  0.3456 -0.2742
 2487SOL    HW210416   1.581   3.643   0.691  1.5349 -0.8688  0.5848
 2488SOL     OW10417   2.227   6.548   2.416 -0.4399  0.1802  0.3604
 2488SOL    HW110418   2.291   6.544   2.487 -0.9417  0.5695  0.8475
 2488SOL    HW210419   2.175   6.469   2.427 -0.5706  0.2822  0.4816
 2489SOL     OW10420   0.321   4.794   4.323 -0.5330  0.2457  0.4624
 2489SOL    HW110421   0.387   4.800   4.392  0.4096 -3.4771  0.1079
 2489SOL    HW210422   0.367   4.820   4.243  0.0546 -0.7125  0.4721
 2490SOL     OW10423   6.780   1.037   0.655 -0.6629 -0.1292 -0.2127
 2490SOL    HW110424   6.778   1.014   0.562  1.1713  1.6896 -0.7715
 2490SOL    HW210425   6.715   1.106   0.664 -0.4537  0.0757 -0.2672
 2491SOL     OW10426   4.993   2.793   0.877 -0.1047  0.3305  0.1881
 2491SOL    HW110427   5.021   2.735   0.806  2.6258  1.8813 -0.1430
 2491SOL    HW210428   4.912   2.832   0.845 -0.0577 -0.5964 -1.1511
 2492SOL     OW10429   3.242   3.639   1.742  0.1415  0.0788  0.1354
 2492SOL    HW110430   3.205   3.552   1.755  0.7476 -0.3518 -0.8494
 2492SOL    HW210431   3.265   3.669   1.830 -0.5894 -0.5157  0.5417
 2493SOL     OW10432   6.557   1.181   3.022 -0.2373  0.5612  0.0652
 2493SOL    HW110433   6.555   1.111   2.957 -0.5304  1.2757 -0.7119
 2493SOL    HW210434   6.475   1.228   3.009  0.5860  1.9238 -0.4174
 2494SOL     OW10435   7.535   5.988   5.976  0.4085  0.0161 -0.4943
 2494SOL    HW110436   7.533   6.022   6.065 -0.5533  0.4031 -0.6562
 2494SOL    HW210437   7.486   5.906   5.980  2.2206 -1.1202 -0.2288
 2495SOL     OW10438   0.145   2.935   7.127  0.3589 -0.1131 -0.2845
 2495SOL    HW110439   0.132   3.003   7.062  0.7121  0.3266  0.0983
 2495SOL    HW210440   0.060   2.924   7.169  0.6484  1.1372  0.6610
 2496SOL     OW10441   1.042   2.473   6.976  0.8603  0.5733 -0.0865
 2496SOL    HW110442   0.974   2.407   6.963  1.0574  0.7668 -2.6101
 2496SOL    HW210443   1.112   2.427   7.021  0.2409 -0.4318 -0.1192
 2497SOL     OW10444   3.707   4.959   3.780 -0.2483  0.2859  0.4365
 2497SOL    HW110445   3.754   5.002   3.709 -0.7974 -0.4842 -0.4100
 2497SOL    HW210446   3.687   4.871   3.747 -2.9247  0.8039  0.4401
 2498SOL     OW10447   0.923   8.073   7.267  0.5103 -0.2135 -0.4841
 2498SOL    HW110448   0.882   8.073   7.353  3.0947  1.8094  0.8870
 2498SOL    HW210449   0.889   7.995   7.224 -1.3929 -0.9158  2.0860
 2499SOL     OW10450   7.179   5.524   5.653  0.5227 -0.5900  0.3313
 2499SOL    HW110451   7.164   5.448   5.709 -0.5022 -0.1260  0.7126
 2499SOL    HW210452   7.183   5.488   5.564  0.7019 -1.1655  0.5711
 2500SOL     OW10453   0.011   2.046   1.011 -0.2366 -0.4645 -0.4904
 2500SOL    HW110454   0.030   2.065   0.919 -1.6923 -0.2226 -0.7581
 2500SOL    HW210455   0.035   1.954   1.022  0.0403 -0.4688 -1.0830
 2501SOL     OW10456   1.332   2.353   6.641  0.7357  0.4596  0.1442
 2501SOL    HW110457   1.356   2.356   6.733  0.5889 -2.0886  0.3401
 2501SOL    HW210458   1.314   2.261   6.624 -2.6242  1.2474 -1.5744
 2502SOL     OW10459   1.437   1.112   4.806  0.2808  0.3078 -0.4347
 2502SOL    HW110460   1.381   1.062   4.866 -0.3762  0.2625 -1.0709
 2502SOL    HW210461   1.382   1.185   4.776  0.7980  0.6688 -0.5214
 2503SOL     OW10462   1.518   5.920   6.320  0.2406  0.0153  1.0832
 2503SOL    HW110463   1.519   5.841   6.374 -1.7308 -1.3357 -0.7064
 2503SOL    HW210464   1.603   5.919   6.274  0.8520 -0.2133  2.1979
 2504SOL     OW10465   7.674   7.165   6.003  0.3923  0.1189  0.3712
 2504SOL    HW110466   7.716   7.190   6.086 -0.2589  1.4152  0.3223
 2504SOL    HW210467   7.581   7.171   6.021  0.2408  1.2484 -0.7043
 2505SOL     OW10468   4.381   4.470   3.987 -1.0345  0.8052  0.0400
 2505SOL    HW110469   4.381   4.487   4.082 -0.7584 -0.4822  0.2968
 2505SOL    HW210470   4.300   4.423   3.972  0.0587 -1.2384  0.1206
 2506SOL     OW10471   3.261   0.810   3.081 -0.6358 -0.1106 -0.5298
 2506SOL    HW110472   3.293   0.721   3.068 -1.2602 -0.3886 -0.2158
 2506SOL    HW210473   3.340   0.864   3.084 -0.2328 -0.7034 -0.3523
 2507SOL     OW10474   7.271   5.791   7.268 -0.0201  0.2209 -0.3692
 2507SOL    HW110475   7.353   5.747   7.292  0.0996  1.5697  2.0397
 2507SOL    HW210476   7.207   5.721   7.262  0.4224 -0.5175  2.1593
 2508SOL     OW10477   6.336   1.770   7.607 -0.6273  0.0651  0.5245
 2508SOL    HW110478   6.295   1.693   7.567 -0.8888 -0.1907  1.2637
 2508SOL    HW210479   6.428   1.747   7.615 -0.5289  0.2170 -0.1564
 2509SOL     OW10480   2.082   7.236   2.635  0.0125  0.3855 -0.4793
 2509SOL    HW110481   2.048   7.157   2.678  4.0014 -1.1137  0.4686
 2509SOL    HW210482   2.122   7.286   2.706 -2.2499  3.3115 -1.1131
 2510SOL     OW10483   0.155   0.939   5.216  0.4869  0.6313 -0.4215
 2510SOL    HW110484   0.188   1.002   5.280 -0.3946 -1.6295  2.4959
 2510SOL    HW210485   0.061   0.957   5.211  0.6010  1.0247 -1.4412
 2511SOL     OW10486   2.824   2.730   1.391 -0.5855  0.6418 -0.2437
 2511SOL    HW110487   2.766   2.802   1.367 -2.0108  0.5310  2.4357
 2511SOL    HW210488   2.870   2.762   1.469 -0.0117 -0.7159 -0.0022
 2512SOL     OW10489   1.135   0.302   6.334 -0.6854  0.5710  0.3424
 2512SOL    HW110490   1.070   0.321   6.402 -1.2747 -0.6054  0.1392
 2512SOL    HW210491   1.208   0.262   6.381 -1.6183 -1.4341  0.1845
 2513SOL     OW10492   5.591   6.605   7.796  0.5593 -0.7649  0.1299
 2513SOL    HW110493   5.605   6.572   7.885  0.6021  1.0434  0.8369
 2513SOL    HW210494   5.527   6.544   7.758 -0.2650 -0.9904  1.7738
 2514SOL     OW10495   5.763   2.590   2.846  0.4020  0.3197  0.3305
 2514SOL    HW110496   5.744   2.684   2.847  0.2187  0.3497 -1.5862
 2514SOL    HW210497   5.819   2.576   2.923 -1.1614  1.6119  1.7790
 2515SOL     OW10498   2.114   0.226   7.836 -0.1492  0.0506 -0.1348
 2515SOL    HW110499   2.084   0.242   7.926 -1.4674  1.8645 -0.8219
 2515SOL    HW210500   2.190   0.169   7.846 -0.9103 -0.7041  2.0493
 2516SOL     OW10501   7.080   0.339   1.902 -0.4120 -0.1605 -0.2437
 2516SOL    HW110502   7.162   0.331   1.950 -0.9304  0.4853  0.7696
 2516SOL    HW210503   7.015   0.294   1.956 -0.9928  0.5243 -0.3569
 2517SOL     OW10504   1.247   3.916   3.693  0.0090 -0.3575 -0.2366
 2517SOL    HW110505   1.290   3.907   3.778  0.8292 -1.6189 -0.7553
 2517SOL    HW210506   1.185   3.842   3.689 -1.6613  0.9633  0.1603
 2518SOL     OW10507   4.263   4.606   4.804  0.7448 -0.1086  0.5644
 2518SOL    HW110508   4.223   4.637   4.722  0.3212  0.7023  1.0581
 2518SOL    HW210509   4.305   4.684   4.840 -0.7461  0.0524  2.0754
 2519SOL     OW10510   5.745   6.772   7.472  0.3857 -0.3214  0.1749
 2519SOL    HW110511   5.682   6.725   7.417 -0.3801 -0.1855  0.9063
 2519SOL    HW210512   5.820   6.713   7.478  0.0499 -0.7908 -0.1622
 2520SOL     OW10513   5.147   0.677   7.617 -0.1319  0.1301  0.3917
 2520SOL    HW110514   5.170   0.584   7.622 -0.0448  0.1519  0.4006
 2520SOL    HW210515   5.070   0.680   7.561  0.4082  0.1385 -0.3790
 2521SOL     OW10516   4.496   4.398   4.533  0.2529  0.1653 -0.2297
 2521SOL    HW110517   4.576   4.361   4.497  0.8668  1.1751  0.0554
 2521SOL    HW210518   4.523   4.440   4.615 -0.8346 -0.7379  0.6262
 2522SOL     OW10519   5.552   1.381   5.222 -0.5194 -0.8814  0.4174
 2522SOL    HW110520   5.502   1.452   5.182  0.1928  0.4097  1.7556
 2522SOL    HW210521   5.497   1.351   5.295 -0.7899 -1.6819 -0.1052
 2523SOL     OW10522   4.702   4.599   5.025 -0.1319  0.7063  0.1294
 2523SOL    HW110523   4.788   4.641   5.026  0.3693 -0.2954  0.4397
 2523SOL    HW210524   4.684   4.580   5.118  0.0388 -0.5137 -0.0749
 2524SOL     OW10525   2.470   1.144   3.998 -0.4737 -0.2789 -0.1549
 2524SOL    HW110526   2.461   1.226   4.046 -1.0180 -0.0001 -0.7095
 2524SOL    HW210527   2.402   1.087   4.034 -0.3897 -0.3297 -0.0770
 2525SOL     OW10528   2.270   1.718   1.986 -0.2344  0.2660  0.2621
 2525SOL    HW110529   2.281   1.756   2.073 -0.2536  1.2687 -0.1610
 2525SOL    HW210530   2.317   1.777   1.927 -0.2772 -0.3603 -0.4176
 2526SOL     OW10531   2.540   3.672   5.065  0.2621 -0.0414 -0.1967
 2526SOL    HW110532   2.634   3.668   5.081  0.4312 -2.0239 -1.3104
 2526SOL    HW210533   2.519   3.586   5.027 -1.6293  1.0910 -1.8910
 2527SOL     OW10534   2.214   2.283   5.320 -0.3850 -0.1177  0.0472
 2527SOL    HW110535   2.294   2.313   5.278  0.8960 -1.6779  1.2523
 2527SOL    HW210536   2.186   2.208   5.268  0.0105 -0.7237  0.6811
 2528SOL     OW10537   0.050   4.418   7.124 -0.2784 -0.3558 -0.0423
 2528SOL    HW110538   0.130   4.460   7.156 -0.9515  0.7945  0.2260
 2528SOL    HW210539   0.079   4.360   7.054  0.9102 -0.8126  0.7984
 2529SOL     OW10540   2.555   7.284   5.160 -0.1217  0.1495  0.1247
 2529SOL    HW110541   2.647   7.260   5.156  0.3525  1.8303  0.2465
 2529SOL    HW210542   2.532   7.280   5.252 -0.1070 -0.0240  0.1210
 2530SOL     OW10543   1.108   0.328   0.748  0.7681  0.4530  0.4039
 2530SOL    HW110544   1.111   0.283   0.663 -2.9014  1.2763 -0.3801
 2530SOL    HW210545   1.199   0.334   0.776  1.8623 -2.8926 -1.8193
 2531SOL     OW10546   1.453   0.429   6.469 -0.2149  0.0617 -0.4899
 2531SOL    HW110547   1.498   0.440   6.553 -0.0912  2.1660 -0.7822
 2531SOL    HW210548   1.426   0.337   6.469  2.9113 -1.0033  0.2821
 2532SOL     OW10549   6.348   0.999   7.374  0.2904  0.1205 -0.1529
 2532SOL    HW110550   6.386   0.925   7.421  1.4309 -0.9200 -2.5448
 2532SOL    HW210551   6.268   0.964   7.335  0.1088  0.5591 -0.1805
 2533SOL     OW10552   3.472   6.187   5.983  0.9610  0.0876  0.7836
 2533SOL    HW110553   3.405   6.120   5.975  2.0207 -0.7819 -3.1187
 2533SOL    HW210554   3.429   6.268   5.955  0.8588  0.0943  0.9602
 2534SOL     OW10555   6.443   7.581   2.926  0.4840  0.0628 -0.7880
 2534SOL    HW110556   6.475   7.525   2.856  0.5015  0.4240 -1.0732
 2534SOL    HW210557   6.347   7.579   2.917  0.4003 -1.0761  0.1099
 2535SOL     OW10558   4.526   3.492   6.438  0.2407 -0.0081  0.4450
 2535SOL    HW110559   4.534   3.587   6.443 -1.8317  0.3166 -1.0632
 2535SOL    HW210560   4.586   3.466   6.367  1.6354 -0.0271  1.5739
 2536SOL     OW10561   5.421   3.391   4.215  0.0612  0.4034  0.2801
 2536SOL    HW110562   5.458   3.366   4.131  0.7473  1.7031  0.1696
 2536SOL    HW210563   5.384   3.479   4.201 -0.9444  0.1196  1.0073
 2537SOL     OW10564   4.846   0.880   6.420  0.3272  0.3988 -0.1754
 2537SOL    HW110565   4.816   0.892   6.330 -0.5555 -1.6119 -0.2029
 2537SOL    HW210566   4.899   0.800   6.418 -1.6302 -1.0378  1.4563
 2538SOL     OW10567   1.832   7.757   2.309 -0.3640  0.1584  0.2474
 2538SOL    HW110568   1.805   7.843   2.275  0.1229  0.2716  0.1345
 2538SOL    HW210569   1.793   7.753   2.396 -1.0164  0.1760 -0.0343
 2539SOL     OW10570   6.300   0.578   8.037 -0.3902 -0.2378 -0.4693
 2539SOL    HW110571   6.387   0.547   8.013 -0.9730 -2.4801  0.1227
 2539SOL    HW210572   6.241   0.540   7.972 -1.0023  1.0647 -0.7268
 2540SOL     OW10573   3.483   0.331   7.103  0.2442 -0.3963  0.2120
 2540SOL    HW110574   3.538   0.387   7.048 -1.3007 -1.0770 -2.1728
 2540SOL    HW210575   3.441   0.391   7.164  1.4736  0.4960  0.2113
 2541SOL     OW10576   5.143   2.461   7.344 -0.1809  0.1450 -0.4560
 2541SOL    HW110577   5.052   2.457   7.318 -0.7916  1.6195  1.2423
 2541SOL    HW210578   5.190   2.491   7.266 -0.7024 -2.9000 -2.0921
 2542SOL     OW10579   6.075   2.593   1.203  0.3257  0.6300 -0.1978
 2542SOL    HW110580   6.096   2.674   1.250 -0.4980  0.8472 -0.1967
 2542SOL    HW210581   6.158   2.568   1.161  0.5936  1.4623 -0.1884
 2543SOL     OW10582   2.584   3.776   7.572 -0.0760  0.1820  0.4850
 2543SOL    HW110583   2.615   3.850   7.520  2.8392 -0.9106  0.4487
 2543SOL    HW210584   2.590   3.806   7.663 -0.2163  0.4116  0.4202
 2544SOL     OW10585   6.592   1.817   5.992  0.2465 -0.0617 -0.2001
 2544SOL    HW110586   6.508   1.798   6.034  0.7973 -0.1067  0.9325
 2544SOL    HW210587   6.569   1.851   5.906 -0.9340 -0.0139  0.1176
 2545SOL     OW10588   2.341   2.978   3.964 -0.0227  0.0457  0.0607
 2545SOL    HW110589   2.271   2.997   4.026 -2.1954  0.9321 -2.4689
 2545SOL    HW210590   2.323   2.888   3.935  0.6845 -0.1903  0.3442
 2546SOL     OW10591   3.484   1.100   7.189 -0.0193  0.2569  0.3663
 2546SOL    HW110592   3.408   1.149   7.221  0.2367 -0.0067  1.4286
 2546SOL    HW210593   3.559   1.147   7.225  0.3025  0.1658 -0.1767
 2547SOL     OW10594   7.529   3.152   7.765 -0.3329 -0.2227  0.0467
 2547SOL    HW110595   7.510   3.180   7.675  0.9187 -0.8396 -0.4338
 2547SOL    HW210596   7.444   3.152   7.808 -1.5991 -3.1853 -2.0663
 2548SOL     OW10597   4.346   1.068   2.942 -0.1515 -0.0486  0.0363
 2548SOL    HW110598   4.330   0.982   2.980  0.0478  0.4318  1.2740
 2548SOL    HW210599   4.387   1.118   3.013  0.6131  0.7779 -0.9523
 2549SOL     OW10600   7.719   0.145   6.367  0.2556 -0.3726  0.2572
 2549SOL    HW110601   7.729   0.234   6.334 -0.1212 -0.6514 -0.6627
 2549SOL    HW210602   7.785   0.095   6.318 -0.6984 -0.9034 -0.5127
 2550SOL     OW10603   1.277   2.011   5.646 -0.1311  0.3066 -0.3751
 2550SOL    HW110604   1.317   1.970   5.722 -0.3415 -1.5178 -1.2077
 2550SOL    HW210605   1.187   2.031   5.673  0.4501  1.8440  0.5755
 2551SOL     OW10606   2.001   1.466   4.789 -0.6120 -0.1690 -0.3705
 2551SOL    HW110607   2.050   1.447   4.869  0.9876 -0.0857 -1.2807
 2551SOL    HW210608   1.909   1.463   4.815 -0.1392  2.2876  2.0311
 2552SOL     OW10609   0.604   4.532   7.153 -0.6231 -0.4085  0.0205
 2552SOL    HW110610   0.611   4.521   7.247 -0.4863  0.6478  0.1431
 2552SOL    HW210611   0.693   4.554   7.124 -0.4177 -1.8319 -0.5278
 2553SOL     OW10612   7.744   3.176   4.093  0.3006  0.3506  0.2184
 2553SOL    HW110613   7.742   3.215   4.180 -1.3482  0.7582  0.0403
 2553SOL    HW210614   7.659   3.132   4.085 -0.5113  2.1343 -1.9512
 2554SOL     OW10615   7.092   6.095   3.280 -0.3260  0.1525  0.7107
 2554SOL    HW110616   6.997   6.097   3.263 -0.1820  0.6128 -0.1081
 2554SOL    HW210617   7.130   6.136   3.202  0.5511 -0.0778  1.0180
 2555SOL     OW10618   3.663   5.954   2.081  0.2361 -0.4798 -0.8421
 2555SOL    HW110619   3.748   5.967   2.124  0.2847 -1.0558 -0.7610
 2555SOL    HW210620   3.648   5.860   2.086  1.0897 -0.8584 -3.7036
 2556SOL     OW10621   8.024   5.270   7.396 -0.6759 -0.1525  0.0785
 2556SOL    HW110622   7.952   5.325   7.366  0.7559  1.5546 -0.4295
 2556SOL    HW210623   7.983   5.208   7.456 -3.2978 -2.2772 -3.5443
 2557SOL     OW10624   2.182   4.297   1.221  0.3290  0.2943 -0.7991
 2557SOL    HW110625   2.259   4.243   1.203  0.5100  0.4240 -0.4300
 2557SOL    HW210626   2.153   4.328   1.135  0.6462  0.1866 -0.9450
 2558SOL     OW10627   6.511   4.264   7.214 -0.2115  0.2266  0.1566
 2558SOL    HW110628   6.573   4.206   7.171  2.2764  1.5281  1.7266
 2558SOL    HW210629   6.448   4.206   7.256  0.7057 -1.2260 -0.4131
 2559SOL     OW10630   4.727   5.055   1.573 -0.0807 -0.7918 -0.5278
 2559SOL    HW110631   4.733   5.151   1.572 -0.3142 -0.7818 -1.3530
 2559SOL    HW210632   4.801   5.026   1.519 -0.5302 -1.0479 -1.0084
 2560SOL     OW10633   7.007   1.900   4.365  0.3141  0.3634  0.1136
 2560SOL    HW110634   7.077   1.963   4.381 -0.2166  0.6605  1.3119
 2560SOL    HW210635   7.044   1.816   4.393 -0.0061  0.6155  1.3299
 2561SOL     OW10636   8.073   5.236   4.621 -0.3250 -0.2779  0.3668
 2561SOL    HW110637   8.032   5.274   4.699  0.6090  1.1789  0.1938
 2561SOL    HW210638   8.160   5.276   4.619  0.2863 -1.6112 -0.4865
 2562SOL     OW10639   4.391   7.268   2.680  0.4553  0.0623 -0.4649
 2562SOL    HW110640   4.371   7.212   2.605 -1.0544 -1.0301  0.6775
 2562SOL    HW210641   4.319   7.331   2.683  0.0403 -0.4249  0.4980
 2563SOL     OW10642   3.315   1.324   1.090  0.1705 -0.2114  0.4394
 2563SOL    HW110643   3.317   1.409   1.046  1.3426 -0.0030  0.8494
 2563SOL    HW210644   3.386   1.274   1.051 -0.1548 -0.8102  0.5946
 2564SOL     OW10645   6.145   5.966   1.497 -0.2999  0.8915  0.2911
 2564SOL    HW110646   6.193   6.039   1.535 -0.5702  1.3201 -0.1813
 2564SOL    HW210647   6.208   5.926   1.436  0.6183 -0.6520  2.1538
 2565SOL     OW10648   7.691   0.213   4.069 -0.0437  0.4303  0.7207
 2565SOL    HW110649   7.648   0.196   3.985 -1.3318  0.3536  1.3896
 2565SOL    HW210650   7.774   0.254   4.044  0.3495 -1.0785 -0.6615
 2566SOL     OW10651   5.861   0.564   1.467  0.2448 -0.7177  0.3755
 2566SOL    HW110652   5.885   0.655   1.485 -0.5373 -0.6578  1.1915
 2566SOL    HW210653   5.836   0.564   1.374  1.1946 -0.3223  0.1114
 2567SOL     OW10654   5.975   0.358   2.313 -0.2624  0.1052  0.3634
 2567SOL    HW110655   6.042   0.338   2.248 -1.9177  1.1962 -1.8213
 2567SOL    HW210656   6.012   0.431   2.364  0.6044  0.0085 -0.1126
 2568SOL     OW10657   5.524   2.567   4.768 -0.1470 -0.2849 -0.1365
 2568SOL    HW110658   5.500   2.529   4.684  0.6849 -2.1452  0.4162
 2568SOL    HW210659   5.533   2.492   4.827  0.8638  0.8399  1.2148
 2569SOL     OW10660   7.801   0.980   5.225  0.3177  0.1198  0.5042
 2569SOL    HW110661   7.724   0.934   5.259 -0.0013  0.5255  0.3372
 2569SOL    HW210662   7.863   0.978   5.298  0.5099 -1.0231  0.3327
 2570SOL     OW10663   5.704   2.120   5.744 -0.1272 -0.7004 -0.2544
 2570SOL    HW110664   5.775   2.073   5.787 -0.4608  0.6788  1.9503
 2570SOL    HW210665   5.627   2.066   5.759  0.1248 -1.3279 -1.1260
 2571SOL     OW10666   3.773   6.091   6.831  0.3465  0.1824 -0.3800
 2571SOL    HW110667   3.704   6.046   6.880 -1.0707  1.2403 -1.2916
 2571SOL    HW210668   3.853   6.044   6.853 -0.8298 -1.8565 -0.1768
 2572SOL     OW10669   4.444   1.237   0.962  0.2917 -0.0935  0.1555
 2572SOL    HW110670   4.418   1.327   0.943  0.7373 -0.5102 -2.9314
 2572SOL    HW210671   4.535   1.232   0.934  0.2470 -1.5497  0.1966
 2573SOL     OW10672   5.698   0.525   1.235  0.2165 -0.0546 -0.6503
 2573SOL    HW110673   5.690   0.432   1.214 -0.5314 -0.3299  0.7903
 2573SOL    HW210674   5.640   0.569   1.173 -0.5161 -0.6788 -0.4172
 2574SOL     OW10675   3.607   6.445   2.574 -0.0496  0.5466  0.1160
 2574SOL    HW110676   3.692   6.470   2.538  0.4703 -1.6006 -0.2845
 2574SOL    HW210677   3.549   6.438   2.499  0.8612 -3.2482 -0.4394
 2575SOL     OW10678   7.720   7.287   0.035 -0.1565  0.0085  0.5256
 2575SOL    HW110679   7.808   7.268   0.002 -0.5445 -1.3370  0.2030
 2575SOL    HW210680   7.726   7.377   0.067  0.5252  1.0928 -2.3030
 2576SOL     OW10681   2.697   5.887   0.317  0.1005  0.1612 -0.2013
 2576SOL    HW110682   2.705   5.920   0.406  1.7482  0.3949 -0.4074
 2576SOL    HW210683   2.731   5.798   0.320 -0.1199  0.0620 -0.5276
 2577SOL     OW10684   7.424   6.947   2.326  0.3278  0.0114 -0.2546
 2577SOL    HW110685   7.459   6.924   2.413  1.6907 -0.2778 -0.8452
 2577SOL    HW210686   7.474   7.024   2.300 -0.7797  0.7059 -0.3789
 2578SOL     OW10687   3.072   1.844   2.276  0.2472 -0.3471  0.8784
 2578SOL    HW110688   3.026   1.787   2.214 -0.6541 -0.9668  2.0693
 2578SOL    HW210689   3.053   1.933   2.246 -1.0935 -0.6139  0.8898
 2579SOL     OW10690   7.605   7.480   2.935 -0.2298  0.1021 -0.5873
 2579SOL    HW110691   7.659   7.406   2.965 -0.0752  0.0974 -0.8690
 2579SOL    HW210692   7.657   7.520   2.865 -0.7018 -0.0518 -1.0319
 2580SOL     OW10693   2.079   5.651   7.239 -0.4173  0.1075  0.0060
 2580SOL    HW110694   2.148   5.600   7.281 -0.6532  0.0870  0.3794
 2580SOL    HW210695   2.113   5.672   7.153 -0.4791 -1.0607 -0.3232
 2581SOL     OW10696   5.119   0.107   2.584 -0.0530  0.7219  0.0766
 2581SOL    HW110697   5.034   0.128   2.622  0.9563  2.2860  1.5997
 2581SOL    HW210698   5.107   0.120   2.490 -1.9985 -1.0606  0.0148
 2582SOL     OW10699   3.374   1.146   3.121 -0.0316 -0.2085 -0.3663
 2582SOL    HW110700   3.376   1.169   3.213  0.0759  1.1870 -0.6879
 2582SOL    HW210701   3.387   1.229   3.075 -0.4625 -0.8116 -1.6449
 2583SOL     OW10702   0.691   7.146   1.556  0.3096 -0.0861 -0.3321
 2583SOL    HW110703   0.610   7.190   1.581  1.2567  0.5630  1.8397
 2583SOL    HW210704   0.680   7.126   1.463 -1.7885  1.1504 -0.4085
 2584SOL     OW10705   1.663   5.470   7.569  0.0166  0.3479  0.8154
 2584SOL    HW110706   1.656   5.417   7.489  2.5652  2.0603 -0.7000
 2584SOL    HW210707   1.632   5.556   7.543 -2.6831  0.0945  2.8370
 2585SOL     OW10708   4.105   0.840   1.065  0.7000  0.3244 -0.2651
 2585SOL    HW110709   4.191   0.879   1.050  0.5712  0.9024  0.4584
 2585SOL    HW210710   4.045   0.915   1.062  0.3160  0.0285  0.0069
 2586SOL     OW10711   7.946   7.347   7.279 -0.3279 -0.5757 -0.0267
 2586SOL    HW110712   8.026   7.306   7.245 -0.5701  0.8826 -2.6205
 2586SOL    HW210713   7.914   7.286   7.346  1.9387 -2.1067 -0.2342
 2587SOL     OW10714   1.034   4.518   8.060  0.1769  0.0825  0.2725
 2587SOL    HW110715   0.966   4.533   7.994 -1.1562 -0.2089  1.5227
 2587SOL    HW210716   1.102   4.469   8.014 -1.8806 -2.4714 -0.3066
 2588SOL     OW10717   5.926   1.941   6.840  0.6857  0.0127  0.4213
 2588SOL    HW110718   6.004   1.958   6.787  0.8781 -1.4652  0.2094
 2588SOL    HW210719   5.914   2.022   6.890  3.3297 -0.2749  1.7084
 2589SOL     OW10720   1.548   2.467   5.971 -0.0293  0.2135 -0.1484
 2589SOL    HW110721   1.516   2.377   5.968  1.9191 -0.5282 -0.1654
 2589SOL    HW210722   1.472   2.519   5.998 -1.9067 -1.0435 -2.6017
 2590SOL     OW10723   6.354   0.076   0.586  0.1866 -0.2582 -0.2625
 2590SOL    HW110724   6.323   0.021   0.514 -0.8925  0.1304 -0.1124
 2590SOL    HW210725   6.422   0.131   0.547 -1.1800  0.7541 -1.3003
 2591SOL     OW10726   2.814   6.705   5.439  0.0111 -0.0382  0.1303
 2591SOL    HW110727   2.842   6.768   5.506  0.0230 -0.5527  0.6079
 2591SOL    HW210728   2.886   6.642   5.434 -1.2329 -1.6531  1.7113
 2592SOL     OW10729   4.595   2.216   4.730 -0.5298  0.3577 -0.0669
 2592SOL    HW110730   4.559   2.290   4.680  1.9827  1.2705 -0.6949
 2592SOL    HW210731   4.659   2.256   4.789  1.3922 -1.3088 -0.8961
 2593SOL     OW10732   6.159   7.906   3.886 -0.0693 -0.4830 -0.3339
 2593SOL    HW110733   6.151   7.889   3.792  1.7872 -0.4397 -0.5311
 2593SOL    HW210734   6.190   7.823   3.922 -1.1190 -0.6078  0.3149
 2594SOL     OW10735   0.941   4.448   4.956  0.4523  0.0361  0.4309
 2594SOL    HW110736   1.008   4.463   5.023  0.8392 -0.5668  0.1901
 2594SOL    HW210737   0.981   4.384   4.897  0.7272  1.6394 -1.2349
 2595SOL     OW10738   0.946   5.698   3.367  0.2600  0.0768  0.4140
 2595SOL    HW110739   1.036   5.682   3.397  1.3477 -0.6429 -2.8464
 2595SOL    HW210740   0.901   5.614   3.379  0.4910 -0.0253  0.5720
 2596SOL     OW10741   2.315   1.213   1.028 -0.3896 -0.4168  0.2138
 2596SOL    HW110742   2.258   1.283   0.996  0.0584 -0.2945 -0.3325
 2596SOL    HW210743   2.340   1.242   1.116  0.2223  0.3748 -0.2086
 2597SOL     OW10744   2.915   7.526   3.852 -0.5607  0.4335 -0.6769
 2597SOL    HW110745   2.961   7.576   3.919  0.3985 -0.0710 -0.9315
 2597SOL    HW210746   2.822   7.538   3.871 -0.3080 -0.0756  1.0341
 2598SOL     OW10747   3.986   4.847   4.317  0.2341 -0.4366  0.4208
 2598SOL    HW110748   3.900   4.824   4.283  0.7847  0.9448 -2.1863
 2598SOL    HW210749   3.973   4.931   4.360  0.2579 -0.2876  0.1367
 2599SOL     OW10750   1.160   1.370   3.675 -0.1535 -0.0143  0.0130
 2599SOL    HW110751   1.213   1.449   3.662  0.6096 -0.4389  0.4304
 2599SOL    HW210752   1.070   1.401   3.675  0.1030  0.7673 -0.4746
 2600SOL     OW10753   6.775   6.359   2.556 -0.5247  0.1736 -0.2439
 2600SOL    HW110754   6.742   6.372   2.468 -0.5000  0.1353 -0.2586
 2600SOL    HW210755   6.701   6.323   2.605  0.6349 -4.2144 -1.3253
 2601SOL     OW10756   6.264   0.757   2.942  0.1344 -0.5610  0.1763
 2601SOL    HW110757   6.330   0.826   2.939  0.3506 -0.7670  0.1839
 2601SOL    HW210758   6.181   0.804   2.957 -0.5226  0.2171 -4.4063
 2602SOL     OW10759   7.458   6.425   0.429 -0.1170  0.3474  0.3762
 2602SOL    HW110760   7.407   6.391   0.355  1.0398  1.3962 -0.9722
 2602SOL    HW210761   7.397   6.481   0.476 -0.5646  0.6428 -0.5194
 2603SOL     OW10762   1.151   2.719   0.419 -0.2469 -0.2906  0.2085
 2603SOL    HW110763   1.230   2.761   0.454  0.5317 -1.2979 -0.3095
 2603SOL    HW210764   1.114   2.672   0.493 -0.3602  0.1720  0.4499
 2604SOL     OW10765   7.529   2.277   0.662  0.0011 -0.0214  0.0201
 2604SOL    HW110766   7.531   2.368   0.692 -2.3366  0.3756 -0.8556
 2604SOL    HW210767   7.531   2.225   0.742 -0.6208  0.8617  0.6281
 2605SOL     OW10768   7.032   0.269   2.445  0.1281 -0.2820  0.5677
 2605SOL    HW110769   7.016   0.319   2.525 -0.0209  0.7633 -0.0955
 2605SOL    HW210770   6.953   0.282   2.392 -0.2544 -1.8970  0.7094
 2606SOL     OW10771   5.465   3.353   1.468  0.5208  0.5783  0.1942
 2606SOL    HW110772   5.503   3.421   1.524  0.0234 -0.2733  1.6257
 2606SOL    HW210773   5.430   3.288   1.529 -1.6951  0.4693 -1.0704
 2607SOL     OW10774   6.903   2.815   0.775  0.8576 -0.3343  0.2394
 2607SOL    HW110775   6.931   2.799   0.865 -0.0631  0.5265  0.6991
 2607SOL    HW210776   6.982   2.847   0.731  0.8024  1.5469  1.3788
 2608SOL     OW10777   0.103   1.934   6.008  0.1092 -0.2431  0.1187
 2608SOL    HW110778   0.193   1.903   6.000 -0.1420 -0.5488 -1.9206
 2608SOL    HW210779   0.092   1.997   5.937 -1.2521 -0.1181  0.3991
 2609SOL     OW10780   6.004   7.247   3.233  0.8469  0.0440 -0.5088
 2609SOL    HW110781   6.004   7.245   3.329 -0.4144 -0.2375 -0.4946
 2609SOL    HW210782   5.983   7.338   3.211  0.8055  0.0353 -0.5061
 2610SOL     OW10783   3.190   0.561   4.751 -0.1694  0.2769 -0.0782
 2610SOL    HW110784   3.274   0.606   4.751 -1.0363  2.0137 -0.7795
 2610SOL    HW210785   3.185   0.517   4.835  2.0747 -1.1622 -0.6291
 2611SOL     OW10786   3.409   2.959   6.721 -0.2154  0.4517 -0.5907
 2611SOL    HW110787   3.447   3.034   6.766  1.1368 -0.0109 -0.9012
 2611SOL    HW210788   3.485   2.912   6.685 -1.0343 -0.9912 -0.5042
 2612SOL     OW10789   0.729   2.178   4.357  0.1892 -0.2971 -0.3734
 2612SOL    HW110790   0.775   2.121   4.295 -0.6049 -0.4116 -0.8609
 2612SOL    HW210791   0.788   2.253   4.368  0.5097 -0.4536 -0.9700
 2613SOL     OW10792   7.087   7.136   0.048 -0.4002 -0.0237 -0.2639
 2613SOL    HW110793   7.039   7.209   0.009 -0.1713 -0.3524 -1.1914
 2613SOL    HW210794   7.043   7.058   0.015 -0.4937 -0.3117  0.5293
 2614SOL     OW10795   3.625   2.073   3.118 -0.4271  0.2199 -0.0556
 2614SOL    HW110796   3.669   2.127   3.184 -1.0803  1.4386 -0.5669
 2614SOL    HW210797   3.568   2.015   3.168 -0.4955  0.7421  0.4843
 2615SOL     OW10798   6.093   0.157   0.621 -0.0869 -0.0267  0.0989
 2615SOL    HW110799   6.047   0.209   0.555  1.3413 -1.2390 -1.9854
 2615SOL    HW210800   6.180   0.144   0.584  0.2570 -2.1495  1.4952
 2616SOL     OW10801   1.436   5.380   8.026  0.4178  0.4109 -0.2231
 2616SOL    HW110802   1.360   5.429   8.056 -1.6611 -0.9230 -2.8994
 2616SOL    HW210803   1.469   5.429   7.951 -0.0313 -0.8320 -1.2661
 2617SOL     OW10804   6.455   5.310   6.040  0.6605  0.3046  0.1591
 2617SOL    HW110805   6.435   5.401   6.061  0.0225 -0.0766  1.2545
 2617SOL    HW210806   6.550   5.310   6.025  0.8440  0.9600  1.1838
 2618SOL     OW10807   5.738   5.008   3.769 -0.0318 -0.6397  0.2546
 2618SOL    HW110808   5.743   5.085   3.826 -0.7529  0.2861 -0.8722
 2618SOL    HW210809   5.800   4.946   3.807  3.4545  1.8732 -0.8209
 2619SOL     OW10810   7.220   6.566   3.861  0.5411  0.4947  0.5316
 2619SOL    HW110811   7.159   6.576   3.789  0.7942  1.1900  0.4005
 2619SOL    HW210812   7.301   6.534   3.821 -0.0564 -1.5391  0.8594
 2620SOL     OW10813   2.486   3.351   1.066 -0.8079 -0.2349  0.3029
 2620SOL    HW110814   2.552   3.347   0.997  0.2241 -1.9488  1.3273
 2620SOL    HW210815   2.456   3.442   1.065  2.0198  0.7836  0.2069
 2621SOL     OW10816   4.295   7.437   6.268  0.9546  0.3263 -0.0474
 2621SOL    HW110817   4.258   7.507   6.215 -0.8987  0.0746  0.8318
 2621SOL    HW210818   4.275   7.357   6.219  2.1720  0.3215 -0.5573
 2622SOL     OW10819   1.068   6.172   4.868 -0.0715  0.4599  0.3055
 2622SOL    HW110820   1.115   6.091   4.853  2.7573  2.0059  0.1050
 2622SOL    HW210821   1.048   6.205   4.780  1.1255  1.2024  0.2936
 2623SOL     OW10822   7.111   4.116   7.672 -0.0427 -0.0340  0.6055
 2623SOL    HW110823   7.110   4.079   7.761 -0.5333  0.5166  0.8405
 2623SOL    HW210824   7.020   4.142   7.656 -0.0744 -0.6627 -0.2938
 2624SOL     OW10825   3.745   2.683   1.591  0.1015 -0.6133 -0.1847
 2624SOL    HW110826   3.786   2.686   1.678  1.5038  1.4097 -0.8551
 2624SOL    HW210827   3.729   2.774   1.568 -0.4893 -1.1195 -1.9603
 2625SOL     OW10828   7.831   1.681   0.094 -0.7347  0.0316  0.2286
 2625SOL    HW110829   7.741   1.714   0.095 -0.0988  1.8785  0.5033
 2625SOL    HW210830   7.864   1.705   0.008 -0.8244 -1.7127 -0.3419
 2626SOL     OW10831   7.043   6.426   4.920  0.1780  0.4511  0.1589
 2626SOL    HW110832   6.949   6.438   4.928 -0.2704 -0.7997 -2.4316
 2626SOL    HW210833   7.069   6.481   4.846  1.5896  1.1072  1.0883
 2627SOL     OW10834   0.667   6.380   4.946  0.5129  0.5655 -0.3003
 2627SOL    HW110835   0.738   6.319   4.965 -0.0362 -0.4039 -1.3217
 2627SOL    HW210836   0.595   6.352   5.003  0.2891  0.2963 -0.7091
 2628SOL     OW10837   3.474   7.798   6.364 -0.6681  0.2236  0.1992
 2628SOL    HW110838   3.523   7.776   6.443 -0.7756 -0.2907  0.1246
 2628SOL    HW210839   3.439   7.715   6.333 -1.6879  0.5906  0.3152
 2629SOL     OW10840   1.535   3.437   2.057  0.5143  0.1612 -0.3545
 2629SOL    HW110841   1.450   3.407   2.024  0.5556  0.3399 -0.6357
 2629SOL    HW210842   1.593   3.432   1.980  0.5281  0.9117 -0.3996
 2630SOL     OW10843   4.857   6.425   5.361 -0.7666 -0.2800 -0.4784
 2630SOL    HW110844   4.778   6.418   5.414  0.8677  0.4515  2.2049
 2630SOL    HW210845   4.928   6.439   5.423  1.5520 -0.9836 -2.7523
 2631SOL     OW10846   4.136   5.819   1.965  0.0161 -0.0603 -0.5165
 2631SOL    HW110847   4.080   5.875   2.019 -0.0160  0.9232 -1.5338
 2631SOL    HW210848   4.099   5.825   1.877  0.5537 -0.9777 -0.8134
 2632SOL     OW10849   4.990   4.990   7.414  0.3385 -0.3497  0.3276
 2632SOL    HW110850   5.038   4.964   7.493 -0.2576 -1.2157  0.4220
 2632SOL    HW210851   4.926   5.054   7.446 -1.6053 -2.5261  1.0642
 2633SOL     OW10852   5.243   3.619   1.621  0.2970 -0.2943 -0.3472
 2633SOL    HW110853   5.309   3.649   1.559  0.0088 -1.7620 -1.4014
 2633SOL    HW210854   5.240   3.688   1.688  1.6465  0.6163 -1.1850
 2634SOL     OW10855   7.121   7.829   3.904  0.0251 -0.0622  0.1034
 2634SOL    HW110856   7.175   7.842   3.981 -0.0834 -2.3253  0.6421
 2634SOL    HW210857   7.031   7.833   3.936 -0.0555  0.2478 -0.1526
 2635SOL     OW10858   2.419   1.543   1.351 -0.0444  1.1304 -0.7047
 2635SOL    HW110859   2.393   1.572   1.438 -1.4869  1.4390 -1.2220
 2635SOL    HW210860   2.358   1.473   1.329  1.5359 -0.3113 -0.6962
 2636SOL     OW10861   0.486   2.684   4.749  0.5678  0.2534 -0.3945
 2636SOL    HW110862   0.471   2.592   4.769  0.7310  0.2231 -0.4156
 2636SOL    HW210863   0.399   2.723   4.752  0.5089  0.1165 -0.2935
 2637SOL     OW10864   5.601   4.356   3.816 -0.3044 -0.2258  0.0745
 2637SOL    HW110865   5.627   4.320   3.731 -0.4487 -0.8402  0.2873
 2637SOL    HW210866   5.575   4.280   3.868 -1.2432  0.2424  0.3167
 2638SOL     OW10867   6.337   6.891   2.337 -0.0749 -0.7549  0.2729
 2638SOL    HW110868   6.281   6.961   2.305 -0.7581 -1.4776 -0.1444
 2638SOL    HW210869   6.297   6.863   2.420  1.1004  0.4035  1.2790
 2639SOL     OW10870   5.437   1.965   1.865  0.2943 -0.5549 -0.0042
 2639SOL    HW110871   5.493   1.902   1.911  1.9851  0.9754  0.1297
 2639SOL    HW210872   5.451   1.945   1.772 -1.0395 -1.8797  0.0326
 2640SOL     OW10873   6.356   3.765   4.530  0.3467  0.0855 -0.4601
 2640SOL    HW110874   6.396   3.683   4.498 -1.0375 -0.8407  0.1112
 2640SOL    HW210875   6.429   3.811   4.572  0.9848 -1.2934  0.0393
 2641SOL     OW10876   3.569   7.027   7.826 -0.3323 -0.2874  0.0069
 2641SOL    HW110877   3.595   6.949   7.777 -0.2670  0.1331 -0.6290
 2641SOL    HW210878   3.516   6.993   7.899 -0.4642 -0.9102 -0.3755
 2642SOL     OW10879   3.186   7.771   4.389 -0.1053 -0.6996 -0.5886
 2642SOL    HW110880   3.164   7.701   4.450 -0.4544  0.1392  0.2887
 2642SOL    HW210881   3.139   7.848   4.424  2.4799  0.6585  0.1128
 2643SOL     OW10882   4.401   1.337   5.672  0.1459 -0.3377  0.2040
 2643SOL    HW110883   4.384   1.305   5.583  0.2226 -0.5599  0.2679
 2643SOL    HW210884   4.496   1.329   5.682  0.2187  0.3288  0.0612
 2644SOL     OW10885   4.726   0.777   0.026 -0.3023  0.0112 -0.6378
 2644SOL    HW110886   4.653   0.759  -0.033 -1.3558  0.7368  0.3982
 2644SOL    HW210887   4.699   0.856   0.074  1.3265  0.5154 -0.4857
 2645SOL     OW10888   5.543   1.240   4.133  0.0995 -0.1241 -0.1898
 2645SOL    HW110889   5.632   1.204   4.137 -0.2759 -1.1415 -0.5161
 2645SOL    HW210890   5.508   1.228   4.221  1.1314  2.6653  0.6986
 2646SOL     OW10891   3.960   4.334   0.043  0.2655 -0.2878  0.3580
 2646SOL    HW110892   3.889   4.269   0.040  1.1587 -1.2626 -1.1818
 2646SOL    HW210893   4.039   4.282   0.055  0.7369  0.8260  2.5011
 2647SOL     OW10894   5.345   3.425   0.533 -0.0249 -0.3779  0.9652
 2647SOL    HW110895   5.434   3.407   0.564  0.1273 -0.0502  0.7156
 2647SOL    HW210896   5.316   3.341   0.496  1.5666  0.3777 -2.3917
 2648SOL     OW10897   3.182   5.204   3.273  0.4147  0.1271  0.1800
 2648SOL    HW110898   3.272   5.173   3.259  0.2839 -0.5737  0.8137
 2648SOL    HW210899   3.192   5.281   3.328  0.5860 -0.4828  1.0201
 2649SOL     OW10900   0.850   7.502   6.226  0.2517 -0.4818  0.1182
 2649SOL    HW110901   0.942   7.530   6.233  0.6089 -1.6022  0.0532
 2649SOL    HW210902   0.822   7.490   6.316  0.1647 -0.1648  0.1372
 2650SOL     OW10903   6.912   0.077   3.055  0.1768  0.6427 -0.9067
 2650SOL    HW110904   6.883   0.017   2.986  1.1993 -0.1903 -0.6351
 2650SOL    HW210905   6.927   0.020   3.131  1.4995  1.1824 -0.7459
 2651SOL     OW10906   1.882   0.854   5.222 -0.0384  0.3900 -0.3083
 2651SOL    HW110907   1.890   0.820   5.311 -1.6764 -1.3230 -0.7517
 2651SOL    HW210908   1.856   0.946   5.234  0.3396  0.3561  0.9577
 2652SOL     OW10909   8.016   1.367   5.818  0.0108 -0.0420  0.0823
 2652SOL    HW110910   8.110   1.386   5.825 -0.1094  0.8572 -0.6566
 2652SOL    HW210911   7.988   1.410   5.737 -0.6378 -2.0022 -0.7974
 2653SOL     OW10912   0.763   7.034   3.045  0.0483  0.0624  0.4832
 2653SOL    HW110913   0.829   7.097   3.016 -0.1026  1.0925  2.2670
 2653SOL    HW210914   0.679   7.077   3.029 -0.0788  0.0581  1.1133
 2654SOL     OW10915   0.712   5.581   6.719 -0.1930 -0.9465  0.0429
 2654SOL    HW110916   0.670   5.516   6.663 -0.4892  0.1137 -1.0124
 2654SOL    HW210917   0.669   5.664   6.696  0.3808 -0.3266  1.1271
 2655SOL     OW10918   3.548   2.181   1.129 -0.0090 -0.6556  0.3201
 2655SOL    HW110919   3.503   2.162   1.211  0.6358 -1.3194  0.5252
 2655SOL    HW210920   3.640   2.161   1.146  0.3379  0.3781 -0.1880
 2656SOL     OW10921   7.066   5.934   7.626 -0.0164  0.6288  0.1223
 2656SOL    HW110922   7.114   5.853   7.644  0.8257  1.0688 -0.0468
 2656SOL    HW210923   7.111   5.971   7.550 -0.1819  1.4083  0.4005
 2657SOL     OW10924   1.448   2.879   6.277  0.0197  0.3976  0.0970
 2657SOL    HW110925   1.541   2.891   6.297  0.3608  2.3083 -2.0488
 2657SOL    HW210926   1.410   2.966   6.291 -1.2493 -0.1284  0.0226
 2658SOL     OW10927   1.257   3.564   7.770 -0.1397  0.0374  0.4946
 2658SOL    HW110928   1.241   3.578   7.863 -0.7420 -0.5453  0.4870
 2658SOL    HW210929   1.241   3.649   7.730 -2.5170 -0.3143  0.5874
 2659SOL     OW10930   0.906   2.290   6.047  0.6949 -0.6865 -0.7332
 2659SOL    HW110931   0.899   2.291   6.143 -1.9766 -0.8501 -0.8498
 2659SOL    HW210932   0.906   2.197   6.024  1.2586 -0.6455 -0.9092
 2660SOL     OW10933   2.976   7.608   7.125 -0.2185 -0.1332 -0.1813
 2660SOL    HW110934   2.918   7.534   7.140  0.4510 -0.5970  0.1982
 2660SOL    HW210935   3.028   7.583   7.048 -0.2951  0.1362 -0.3244
 2661SOL     OW10936   7.024   6.000   4.211 -0.5832 -0.3985  0.6671
 2661SOL    HW110937   6.952   5.949   4.175 -0.1478 -1.9146  1.8325
 2661SOL    HW210938   7.085   6.011   4.137 -1.0971 -0.7840  0.1773
 2662SOL     OW10939   1.877   5.834   7.236  0.6745 -0.3610  0.8910
 2662SOL    HW110940   1.918   5.747   7.242 -0.0830 -0.7537  0.5115
 2662SOL    HW210941   1.931   5.889   7.293  1.8144 -0.8285  0.3072
 2663SOL     OW10942   3.604   4.486   2.446  0.0939 -0.5663  0.0219
 2663SOL    HW110943   3.690   4.449   2.465  0.7049  0.3267 -0.9368
 2663SOL    HW210944   3.617   4.539   2.368 -1.3689 -0.5385 -0.2288
 2664SOL     OW10945   6.789   7.515   2.830 -0.3475  0.0060  0.0563
 2664SOL    HW110946   6.823   7.504   2.741  0.2666 -2.3679  0.5157
 2664SOL    HW210947   6.840   7.588   2.866  1.0974 -0.5381 -0.7853
 2665SOL     OW10948   8.105   1.719   3.604 -0.0463  0.3490  0.3390
 2665SOL    HW110949   8.135   1.705   3.515  0.6617  1.1851  0.4388
 2665SOL    HW210950   8.019   1.760   3.595  0.7258  1.9396  0.0234
 2666SOL     OW10951   6.540   5.665   2.473 -0.3579  0.2570  0.1918
 2666SOL    HW110952   6.463   5.634   2.425 -0.1736 -0.6005  0.4365
 2666SOL    HW210953   6.509   5.745   2.517 -1.4021 -0.5544  1.0161
 2667SOL     OW10954   6.353   7.883   6.331 -0.5755  0.2693  0.3973
 2667SOL    HW110955   6.397   7.886   6.416  2.4277  1.1269 -1.0501
 2667SOL    HW210956   6.403   7.818   6.281 -1.7032  0.4573 -1.0220
 2668SOL     OW10957   5.814   3.097   4.436 -0.5916 -0.1562  0.0788
 2668SOL    HW110958   5.905   3.070   4.447 -0.3399  0.6242  0.0193
 2668SOL    HW210959   5.820   3.180   4.389 -1.3947 -0.8293 -1.2758
 2669SOL     OW10960   5.071   2.400   1.197 -0.0692 -0.5051 -0.5920
 2669SOL    HW110961   5.004   2.376   1.261  1.8647  1.7082  2.5321
 2669SOL    HW210962   5.047   2.489   1.170  1.8350  0.5979  1.1084
 2670SOL     OW10963   6.263   2.301   4.614  0.1964  0.4129 -0.1271
 2670SOL    HW110964   6.340   2.246   4.600 -1.1363 -1.5601 -0.1022
 2670SOL    HW210965   6.206   2.248   4.670 -1.1165  1.8879 -0.0080
 2671SOL     OW10966   6.503   4.142   0.379 -0.0970 -0.2921 -0.2237
 2671SOL    HW110967   6.577   4.195   0.409 -1.5254  2.3331 -1.0698
 2671SOL    HW210968   6.462   4.111   0.460  1.4365 -1.1946  0.2631
 2672SOL     OW10969   0.700   0.582   7.219  0.4780  0.3016  0.4935
 2672SOL    HW110970   0.730   0.492   7.231  0.5068  0.2756  0.2326
 2672SOL    HW210971   0.604   0.575   7.219  0.4739  0.0009 -1.4657
 2673SOL     OW10972   5.563   1.269   2.714 -0.0745  0.4209 -0.1125
 2673SOL    HW110973   5.639   1.295   2.766  0.0352 -1.5072  0.7658
 2673SOL    HW210974   5.593   1.195   2.662 -0.7910  0.9815 -1.3797
 2674SOL     OW10975   5.308   3.959   0.987  1.2682  0.2175  0.4030
 2674SOL    HW110976   5.265   3.994   0.909 -0.3448  1.2628  1.6912
 2674SOL    HW210977   5.363   4.030   1.019  1.8238 -0.1589  0.2925
 2675SOL     OW10978   2.219   0.668   5.165 -0.3140 -0.5102 -0.4229
 2675SOL    HW110979   2.227   0.732   5.235 -1.9677 -0.7710  0.0438
 2675SOL    HW210980   2.309   0.655   5.134  0.3289  0.2982  1.0088
 2676SOL     OW10981   2.830   4.283   1.102  0.4323 -0.0251  0.0585
 2676SOL    HW110982   2.827   4.283   1.006  1.6435 -2.5583 -0.0623
 2676SOL    HW210983   2.832   4.375   1.126 -0.1510  0.6772 -2.3269
 2677SOL     OW10984   2.434   7.489   1.526 -0.3437 -0.4804 -0.1833
 2677SOL    HW110985   2.463   7.402   1.499 -1.3974 -0.3751 -1.8277
 2677SOL    HW210986   2.494   7.514   1.596  1.8867 -1.3022 -1.6801
 2678SOL     OW10987   2.075   1.644   6.955 -0.1972 -0.2201  0.7154
 2678SOL    HW110988   2.026   1.639   6.872 -2.5033 -0.3785  1.9979
 2678SOL    HW210989   2.052   1.729   6.991  1.7995  0.3958  0.6709
 2679SOL     OW10990   0.386   7.187   0.855  0.6613  0.0165  0.4309
 2679SOL    HW110991   0.478   7.160   0.855  0.6905 -0.0233 -1.6610
 2679SOL    HW210992   0.347   7.141   0.781 -0.6704  1.2256  0.3325
 2680SOL     OW10993   3.116   5.673   4.485 -0.0718  0.0080  0.0307
 2680SOL    HW110994   3.084   5.745   4.541 -1.0805 -0.0653 -0.4309
 2680SOL    HW210995   3.049   5.665   4.417 -0.9763 -2.6085  1.1086
 2681SOL     OW10996   3.175   1.991   8.021 -0.2477  0.3237 -0.2122
 2681SOL    HW110997   3.108   2.052   8.052 -0.3492 -0.4842  1.2630
 2681SOL    HW210998   3.238   2.046   7.975 -1.4913  1.2042 -0.9211
 2682SOL     OW10999   7.954   4.075   4.549  0.2079 -0.2771  1.0327
 2682SOL    HW111000   7.937   4.154   4.600 -2.5477 -0.6030  0.7392
 2682SOL    HW211001   7.905   4.006   4.593  0.8845 -1.4102  0.0987
 2683SOL     OW11002   1.703   5.134   5.011 -0.5845  0.2522 -0.0360
 2683SOL    HW111003   1.743   5.047   5.011  1.1018  0.9912 -0.0163
 2683SOL    HW211004   1.618   5.122   4.967 -1.3123 -1.7804  1.7380
 2684SOL     OW11005   3.254   4.260   3.646  0.1982 -0.2630 -0.0578
 2684SOL    HW111006   3.323   4.295   3.589 -0.8845  1.3709 -0.4364
 2684SOL    HW211007   3.177   4.253   3.589 -0.3051 -0.8162  0.6709
 2685SOL     OW11008   1.882   6.649   3.641  0.2400 -0.3062  0.2234
 2685SOL    HW111009   1.839   6.659   3.556 -1.2671  1.3520  1.0983
 2685SOL    HW211010   1.810   6.646   3.704  1.3118  2.7243  1.7767
 2686SOL     OW11011   6.786   2.284   0.384  0.1122 -0.0956  0.3076
 2686SOL    HW111012   6.752   2.220   0.321  0.3146  0.4908 -0.4019
 2686SOL    HW211013   6.720   2.353   0.385  0.6677  0.4453 -0.1283
 2687SOL     OW11014   7.343   2.394   6.769  0.0826 -0.1109 -0.2056
 2687SOL    HW111015   7.387   2.315   6.740  0.3273 -0.1054  0.1362
 2687SOL    HW211016   7.413   2.447   6.809  0.4229  1.3573 -2.5571
 2688SOL     OW11017   5.831   2.321   3.666  0.4313 -0.3148 -0.0930
 2688SOL    HW111018   5.845   2.304   3.759  0.4496  0.3972  0.0408
 2688SOL    HW211019   5.741   2.292   3.650  0.2017  0.1585  0.3005
 2689SOL     OW11020   5.360   3.839   4.123 -0.2259  0.0795  0.3362
 2689SOL    HW111021   5.356   3.784   4.045 -1.6639 -0.4152  0.7194
 2689SOL    HW211022   5.338   3.780   4.195 -0.2081  0.8087  0.9537
 2690SOL     OW11023   0.095   1.362   0.495 -0.0959 -0.5140  0.3189
 2690SOL    HW111024   0.112   1.333   0.405 -0.5313  0.5645 -0.1276
 2690SOL    HW211025   0.057   1.286   0.538  0.3496 -1.1243 -0.3386
 2691SOL     OW11026   5.829   1.333   0.035 -0.0354 -0.3260 -0.1368
 2691SOL    HW111027   5.737   1.309   0.039  0.0722 -0.8438 -0.7073
 2691SOL    HW211028   5.872   1.259  -0.008  0.6427 -0.0807  0.0993
 2692SOL     OW11029   3.567   1.344   2.674 -0.7606 -0.1364  0.4041
 2692SOL    HW111030   3.488   1.351   2.621 -0.8806  0.2919  0.6339
 2692SOL    HW211031   3.630   1.300   2.617 -0.8219  0.5007 -0.1749
 2693SOL     OW11032   7.492   5.117   4.035  0.7036  0.2039 -0.1165
 2693SOL    HW111033   7.543   5.194   4.059  1.1368  0.1243 -0.7574
 2693SOL    HW211034   7.507   5.107   3.941 -1.4461  0.8686 -0.5708
 2694SOL     OW11035   3.738   6.339   6.361  0.1410  0.3180  0.4317
 2694SOL    HW111036   3.675   6.272   6.336  0.2025  0.2467  0.4682
 2694SOL    HW211037   3.760   6.319   6.452 -0.2014  0.6693  0.5961
 2695SOL     OW11038   3.486   4.302   7.971  0.9385 -0.0592  0.7396
 2695SOL    HW111039   3.474   4.308   8.066 -0.9084  0.2905  0.5166
 2695SOL    HW211040   3.421   4.362   7.935 -1.8980 -3.7788 -0.8835
 2696SOL     OW11041   5.813   0.506   2.684  0.0996 -0.1984  0.0609
 2696SOL    HW111042   5.758   0.551   2.621  2.8525  0.8231 -1.7820
 2696SOL    HW211043   5.788   0.413   2.676  0.0220 -0.0184 -2.1684
 2697SOL     OW11044   6.508   5.763   6.859 -0.2886  0.8363 -0.2590
 2697SOL    HW111045   6.485   5.751   6.767  1.3287  1.1727 -0.7445
 2697SOL    HW211046   6.447   5.706   6.907 -1.0037  0.4783 -1.5473
 2698SOL     OW11047   3.062   2.560   4.759  0.4997  0.5404 -0.2674
 2698SOL    HW111048   3.086   2.596   4.844  0.9469 -0.1802 -0.0835
 2698SOL    HW211049   3.078   2.632   4.697  0.7650  0.8607  0.1730
 2699SOL     OW11050   0.611   7.494   3.973  0.3433 -0.3577  0.3503
 2699SOL    HW111051   0.697   7.503   4.013  0.5962 -1.9033  0.2352
 2699SOL    HW211052   0.618   7.414   3.920 -0.3938  0.8648 -1.6875
 2700SOL     OW11053   4.658   1.720   2.081  0.4078  0.4532 -0.0435
 2700SOL    HW111054   4.650   1.625   2.091 -0.3314  0.2926 -1.7836
 2700SOL    HW211055   4.740   1.732   2.033 -0.1577  0.5529 -1.0358
 2701SOL     OW11056   5.435   3.305   3.496 -0.4721  0.4404  0.3539
 2701SOL    HW111057   5.451   3.223   3.449  1.1399  0.2401  1.1814
 2701SOL    HW211058   5.520   3.349   3.498 -1.5686  2.8218 -1.2664
 2702SOL     OW11059   1.668   7.178   6.822 -0.0433  0.0779  0.4130
 2702SOL    HW111060   1.690   7.183   6.729 -1.3549 -2.1640 -0.0962
 2702SOL    HW211061   1.744   7.137   6.863  0.8239  1.6858  0.5136
 2703SOL     OW11062   5.271   3.380   2.458 -0.6807  0.0384 -0.1593
 2703SOL    HW111063   5.294   3.297   2.414  0.1642  0.3423 -0.3088
 2703SOL    HW211064   5.302   3.368   2.548 -0.3252  0.2852 -0.2476
 2704SOL     OW11065   0.774   4.291   2.089  0.4227 -0.0021 -0.0607
 2704SOL    HW111066   0.786   4.272   1.995 -1.3181  1.9014 -0.7412
 2704SOL    HW211067   0.796   4.208   2.132 -0.8517 -1.6651 -2.3141
 2705SOL     OW11068   3.609   3.769   4.221 -0.8335  0.1232 -0.5995
 2705SOL    HW111069   3.546   3.729   4.282  0.0696  1.6527  1.4661
 2705SOL    HW211070   3.581   3.860   4.214  0.7333  0.6762 -0.1415
 2706SOL     OW11071   5.173   7.875   4.637  0.3960 -0.7367  0.3610
 2706SOL    HW111072   5.156   7.960   4.598  0.3658  0.1904  2.2861
 2706SOL    HW211073   5.266   7.859   4.621  0.1964 -0.7762 -0.7919
 2707SOL     OW11074   7.357   7.887   1.055  0.5993  0.1157 -0.6616
 2707SOL    HW111075   7.431   7.885   0.993  2.0886  3.0184  0.8130
 2707SOL    HW211076   7.303   7.960   1.025 -0.2659 -0.3264 -0.2003
 2708SOL     OW11077   7.929   5.923   7.038  0.5477 -0.5614 -0.1254
 2708SOL    HW111078   7.870   5.888   7.105  0.2727  2.2855  1.2645
 2708SOL    HW211079   8.011   5.941   7.085  0.9550 -0.1628 -0.9683
 2709SOL     OW11080   1.895   4.768   3.478  0.1124 -0.0231  0.5795
 2709SOL    HW111081   1.864   4.705   3.544 -0.8965 -0.6765 -0.4659
 2709SOL    HW211082   1.983   4.739   3.457  0.0947 -0.3739  0.9711
 2710SOL     OW11083   1.186   4.357   5.319 -0.4507 -0.1517 -0.0800
 2710SOL    HW111084   1.165   4.431   5.262 -0.9935 -0.5119 -0.3594
 2710SOL    HW211085   1.185   4.393   5.408 -1.6970 -0.0220 -0.1319
 2711SOL     OW11086   3.466   6.801   0.835  0.2756  0.6119  0.3684
 2711SOL    HW111087   3.492   6.890   0.810 -0.7026  1.2599  1.5782
 2711SOL    HW211088   3.378   6.791   0.800  0.1800  0.3052  0.6906
 2712SOL     OW11089   6.953   3.172   6.861 -0.0778 -0.2308 -0.2715
 2712SOL    HW111090   6.890   3.140   6.797  0.9241 -0.1602 -1.3337
 2712SOL    HW211091   7.037   3.138   6.831  0.6516  1.2202  0.0308
 2713SOL     OW11092   4.864   4.365   0.901 -0.1538  0.3579 -0.1718
 2713SOL    HW111093   4.895   4.286   0.945  0.2635 -0.0040 -1.0816
 2713SOL    HW211094   4.898   4.437   0.954 -0.1406 -0.0726  0.4100
 2714SOL     OW11095   3.872   5.341   0.501  0.1336 -0.1058 -0.1767
 2714SOL    HW111096   3.830   5.425   0.483  0.1292  0.1884  1.1663
 2714SOL    HW211097   3.896   5.308   0.414  0.2336  1.3238 -0.7193
 2715SOL     OW11098   1.660   4.516   0.060  0.1141 -0.3395 -0.3352
 2715SOL    HW111099   1.620   4.533   0.145  1.0571  2.2021 -0.2867
 2715SOL    HW211100   1.731   4.455   0.079 -0.9264 -1.3796  0.3264
 2716SOL     OW11101   1.978   1.134   0.828 -0.2705 -0.4197 -0.1988
 2716SOL    HW111102   2.023   1.147   0.912 -0.0744  0.0713 -0.3751
 2716SOL    HW211103   1.890   1.169   0.843 -0.3053 -0.5399 -0.1269
 2717SOL     OW11104   7.045   2.212   6.851  0.4677  0.4008 -0.3042
 2717SOL    HW111105   7.074   2.220   6.760  1.6405 -1.4747 -0.1538
 2717SOL    HW211106   6.949   2.214   6.846  0.5156  0.4490 -1.5499
 2718SOL     OW11107   5.868   8.024   2.433 -0.0283 -0.1349 -0.7397
 2718SOL    HW111108   5.813   8.102   2.421  0.9388  0.6218 -0.3911
 2718SOL    HW211109   5.931   8.050   2.500 -0.5654 -1.7116  0.4304
 2719SOL     OW11110   3.266   3.977   2.703 -0.0230 -0.3364  0.6217
 2719SOL    HW111111   3.240   3.994   2.794  0.2216 -0.9346  0.8075
 2719SOL    HW211112   3.359   3.999   2.700  0.1018 -0.8580  0.6589
 2720SOL     OW11113   2.171   2.601   3.404  0.3320 -0.3619  0.4343
 2720SOL    HW111114   2.138   2.512   3.414  0.7400 -0.5241  0.3502
 2720SOL    HW211115   2.246   2.593   3.346 -0.6771  0.2820 -1.0210
 2721SOL     OW11116   1.767   0.219   6.920 -0.2735  0.1754 -0.1784
 2721SOL    HW111117   1.855   0.188   6.901 -1.3874 -2.3825 -1.6539
 2721SOL    HW211118   1.757   0.206   7.015  1.2338  1.4677  0.1881
 2722SOL     OW11119   3.541   0.943   6.945 -0.4004  0.2144  0.2141
 2722SOL    HW111120   3.528   1.017   7.004  1.1409  2.3553 -1.9552
 2722SOL    HW211121   3.634   0.945   6.924 -0.9692 -0.0362 -2.7353
 2723SOL     OW11122   5.933   1.416   1.493 -0.4842 -0.4562  0.0190
 2723SOL    HW111123   5.909   1.468   1.416 -2.0799 -0.2736  0.6199
 2723SOL    HW211124   5.895   1.330   1.477  0.1897 -0.7714  0.0795
 2724SOL     OW11125   3.808   5.929   3.210  0.3032  0.0295 -0.2423
 2724SOL    HW111126   3.851   5.875   3.143 -1.0849 -0.1532 -1.0413
 2724SOL    HW211127   3.859   6.010   3.213  1.1175 -0.4544 -0.6239
 2725SOL     OW11128   1.629   0.748   5.458  0.2778 -0.2599 -0.1592
 2725SOL    HW111129   1.693   0.678   5.444  1.3574  0.8708 -1.0823
 2725SOL    HW211130   1.544   0.706   5.446  0.7752 -1.9375  1.6831
 2726SOL     OW11131   7.319   6.713   1.070  0.1985 -1.0381 -0.3360
 2726SOL    HW111132   7.307   6.619   1.088 -0.0179 -0.6685  1.6384
 2726SOL    HW211133   7.390   6.740   1.128 -1.3527  0.5160  0.9416
 2727SOL     OW11134   0.267   1.714   7.539 -0.0100 -0.4979 -0.3319
 2727SOL    HW111135   0.180   1.738   7.572 -0.4429  0.1722 -1.8895
 2727SOL    HW211136   0.252   1.689   7.448  1.6170  0.8815 -1.0153
 2728SOL     OW11137   4.439   4.514   2.375  0.4230 -0.0167  0.1648
 2728SOL    HW111138   4.532   4.536   2.364  0.2859  0.4147 -0.1378
 2728SOL    HW211139   4.438   4.450   2.446  0.8135  1.1102  1.2095
 2729SOL     OW11140   5.055   1.011   5.014  0.0135  0.3806  0.0954
 2729SOL    HW111141   4.960   1.012   5.020 -0.1034 -0.7596 -1.0597
 2729SOL    HW211142   5.084   0.955   5.086 -0.2921 -0.3050 -0.3021
 2730SOL     OW11143   3.700   3.202   4.564  0.0488 -0.3964  0.3588
 2730SOL    HW111144   3.770   3.251   4.606  0.0021 -0.7657  0.8762
 2730SOL    HW211145   3.739   3.168   4.484  0.5364 -0.8036  0.7618
 2731SOL     OW11146   1.149   6.280   6.144 -0.2749 -0.3082 -0.0877
 2731SOL    HW111147   1.111   6.229   6.216 -1.0992 -0.0873 -0.3520
 2731SOL    HW211148   1.088   6.268   6.072 -1.0399  1.8270  0.1276
 2732SOL     OW11149   0.657   1.229   3.381 -0.5399 -0.5514 -0.2702
 2732SOL    HW111150   0.661   1.142   3.341 -1.3050  0.1151 -1.8998
 2732SOL    HW211151   0.701   1.287   3.318  0.2207  0.2177  0.9203
 2733SOL     OW11152   6.765   5.293   4.883 -0.3960 -0.2334 -0.0229
 2733SOL    HW111153   6.675   5.324   4.891 -0.1865  0.1093  1.1955
 2733SOL    HW211154   6.784   5.252   4.968  1.0650  1.0025  0.2926
 2734SOL     OW11155   5.022   0.631   6.789  0.1221 -0.1368  0.1543
 2734SOL    HW111156   4.970   0.617   6.868 -1.4995  0.1972 -0.8259
 2734SOL    HW211157   5.012   0.723   6.768  2.6075  0.3972  0.9145
 2735SOL     OW11158   5.795   7.572   0.512 -0.3535  0.1945 -0.1226
 2735SOL    HW111159   5.795   7.486   0.554 -1.9346  0.1627 -0.1059
 2735SOL    HW211160   5.874   7.574   0.459  1.1258 -0.2097  1.9569
 2736SOL     OW11161   3.049   1.398   7.204 -0.3937 -0.0996  0.2837
 2736SOL    HW111162   3.020   1.484   7.235 -0.0520  0.1207 -0.0013
 2736SOL    HW211163   3.009   1.388   7.118 -0.1372 -0.0613  0.1565
 2737SOL     OW11164   5.814   1.476   7.552  0.4009  0.6887  0.3214
 2737SOL    HW111165   5.847   1.474   7.641  1.7312  1.4324 -0.1273
 2737SOL    HW211166   5.775   1.389   7.538  0.5092  0.4442  1.4867
 2738SOL     OW11167   0.081   0.355   6.593  0.2929  0.3005 -0.1876
 2738SOL    HW111168   0.090   0.426   6.530 -0.0428  2.9204  2.5140
 2738SOL    HW211169   0.154   0.295   6.572  2.0958  2.6676 -1.1268
 2739SOL     OW11170   4.919   2.166   7.038  0.6138 -0.2810 -0.0357
 2739SOL    HW111171   4.836   2.129   7.006 -1.2975  2.4424  1.3409
 2739SOL    HW211172   4.968   2.187   6.958  0.3154 -2.4379 -0.8749
 2740SOL     OW11173   2.093   7.154   4.169 -0.5668  0.3876 -0.1297
 2740SOL    HW111174   2.063   7.110   4.249 -1.7919  3.4903  1.2962
 2740SOL    HW211175   2.029   7.129   4.102 -1.3418  0.1985  0.6690
 2741SOL     OW11176   7.691   1.711   3.068  0.4683 -0.0579  0.3908
 2741SOL    HW111177   7.733   1.696   2.983 -0.6256 -1.1876  0.0377
 2741SOL    HW211178   7.738   1.654   3.128  0.9985  0.4644  0.4786
 2742SOL     OW11179   4.609   1.882   5.865  0.0942  0.2073  0.4175
 2742SOL    HW111180   4.613   1.816   5.796  2.3442  0.4303  0.2727
 2742SOL    HW211181   4.620   1.832   5.946  0.3542  0.2532  0.4102
 2743SOL     OW11182   5.438   3.733   1.437 -0.4166  0.2324  0.0953
 2743SOL    HW111183   5.473   3.670   1.375 -1.0213 -1.2053  1.1725
 2743SOL    HW211184   5.384   3.792   1.384 -0.7667 -0.8445 -0.7719
 2744SOL     OW11185   2.328   5.422   6.450 -0.4085 -0.1139 -0.4828
 2744SOL    HW111186   2.408   5.467   6.422 -0.7811  0.7065 -0.2852
 2744SOL    HW211187   2.341   5.407   6.544 -0.7279  0.5790 -0.3182
 2745SOL     OW11188   0.805   3.812   8.052  0.4983  0.7524 -0.7815
 2745SOL    HW111189   0.750   3.891   8.053 -1.0122 -0.2696 -0.7380
 2745SOL    HW211190   0.769   3.759   7.981 -0.2701 -1.0925  0.9140
 2746SOL     OW11191   5.066   7.507   1.014 -0.0542 -0.2657 -0.0355
 2746SOL    HW111192   5.122   7.435   0.985 -0.3120 -0.8437  0.8603
 2746SOL    HW211193   5.125   7.566   1.061 -0.0159 -0.3928  0.0780
 2747SOL     OW11194   1.433   4.049   0.932  0.3090 -0.0535  0.1855
 2747SOL    HW111195   1.392   4.052   0.846  1.0707  2.9035 -0.1773
 2747SOL    HW211196   1.523   4.021   0.914  0.5608  0.8750 -0.0618
 2748SOL     OW11197   4.648   0.093   4.776 -0.3782  0.1358  0.6408
 2748SOL    HW111198   4.578   0.030   4.759  0.2094 -0.2893 -0.2639
 2748SOL    HW211199   4.628   0.129   4.863 -1.2721 -0.5590  0.7285
 2749SOL     OW11200   6.403   5.307   8.050 -0.1862 -0.7414 -0.3662
 2749SOL    HW111201   6.332   5.310   8.115  0.1986 -0.4337  0.0386
 2749SOL    HW211202   6.358   5.288   7.968 -0.8389  0.1770 -0.2414
 2750SOL     OW11203   4.481   6.065   4.930  0.1468  0.0334  0.6401
 2750SOL    HW111204   4.389   6.074   4.906 -0.5031  0.5740  3.0319
 2750SOL    HW211205   4.494   6.129   5.000  2.0745 -0.7052  1.0279
 2751SOL     OW11206   5.017   5.407   6.372 -1.2290  0.5898 -0.0417
 2751SOL    HW111207   5.071   5.476   6.411 -0.1176 -0.4591  0.3084
 2751SOL    HW211208   4.930   5.447   6.363 -0.3305  2.4754 -1.0247
 2752SOL     OW11209   6.027   6.769   6.208  0.0962  0.2329 -0.4355
 2752SOL    HW111210   5.970   6.845   6.224  1.3065  0.9750  0.5093
 2752SOL    HW211211   6.063   6.748   6.294  0.0673 -1.2014 -0.7581
 2753SOL     OW11212   1.854   2.223   0.188  0.0036 -0.3976 -0.0670
 2753SOL    HW111213   1.933   2.191   0.230  0.3020 -1.4403 -1.3659
 2753SOL    HW211214   1.847   2.173   0.107 -2.0427 -0.4064  0.0531
 2754SOL     OW11215   7.694   1.642   4.575  0.0213 -0.8552 -0.2895
 2754SOL    HW111216   7.602   1.666   4.581  0.0647 -0.7737  0.0714
 2754SOL    HW211217   7.694   1.547   4.568 -0.1091 -0.8252 -0.7939
 2755SOL     OW11218   2.935   6.957   4.587  0.5084  0.0506  0.3137
 2755SOL    HW111219   2.907   6.869   4.562  1.5055 -0.0358 -0.5890
 2755SOL    HW211220   2.856   6.999   4.620  0.0034 -1.1565  0.6957
 2756SOL     OW11221   7.568   7.880   4.595 -1.1325 -0.6646 -0.6609
 2756SOL    HW111222   7.486   7.923   4.571 -0.1845  0.7641 -1.5038
 2756SOL    HW211223   7.580   7.813   4.528 -0.5066  0.6528 -1.9246
 2757SOL     OW11224   6.657   0.253   0.196  0.0118 -0.1070 -0.0077
 2757SOL    HW111225   6.678   0.171   0.241 -0.5935 -0.4267 -0.2918
 2757SOL    HW211226   6.631   0.226   0.108  0.2518  0.4318 -0.2443
 2758SOL     OW11227   5.038   4.583   0.947 -0.0716  0.4558 -0.3903
 2758SOL    HW111228   5.000   4.636   1.017 -2.0112 -1.3645  0.0171
 2758SOL    HW211229   5.120   4.628   0.926 -0.9209  2.8081  0.8603
 2759SOL     OW11230   5.414   4.759   7.134 -0.1594 -0.1799  0.2178
 2759SOL    HW111231   5.356   4.749   7.059  1.0064 -1.0717 -0.6066
 2759SOL    HW211232   5.411   4.853   7.154  1.0548  0.5044 -2.3042
 2760SOL     OW11233   4.863   6.276   0.144  0.2428  0.0717  0.5699
 2760SOL    HW111234   4.899   6.192   0.116  0.9436  1.1863 -2.2078
 2760SOL    HW211235   4.888   6.337   0.075 -0.0908  2.6419  2.5643
 2761SOL     OW11236   0.497   0.073   3.308  0.0077 -0.1483 -0.1205
 2761SOL    HW111237   0.548  -0.002   3.339  0.1289  0.0884  0.2692
 2761SOL    HW211238   0.472   0.118   3.389  0.7286  0.7463 -0.3780
 2762SOL     OW11239   0.881   6.166   6.000 -0.2130  0.0022 -0.6339
 2762SOL    HW111240   0.872   6.086   6.053 -0.1051  0.3509 -0.0743
 2762SOL    HW211241   0.834   6.147   5.920 -3.6805  0.7922  1.0401
 2763SOL     OW11242   7.952   4.571   5.653 -0.2924 -0.6055 -0.0520
 2763SOL    HW111243   7.916   4.649   5.612  0.3237 -1.0536 -1.5097
 2763SOL    HW211244   8.046   4.576   5.638 -0.2788 -1.7976 -0.4870
 2764SOL     OW11245   4.181   4.654   2.411 -0.0446  0.5012 -0.5835
 2764SOL    HW111246   4.269   4.616   2.407  0.3858  1.5510 -1.5283
 2764SOL    HW211247   4.165   4.687   2.323 -0.4074  2.4510  0.1628
 2765SOL     OW11248   4.483   1.422   3.742  0.1248 -0.0999  0.2759
 2765SOL    HW111249   4.524   1.426   3.655 -0.2671  0.2604  0.1072
 2765SOL    HW211250   4.525   1.346   3.784 -0.3504 -0.8543 -0.5716
 2766SOL     OW11251   4.626   7.799   4.216 -0.2332  0.4095 -0.1708
 2766SOL    HW111252   4.608   7.851   4.294 -0.2772 -0.4880  0.4385
 2766SOL    HW211253   4.696   7.740   4.242  0.2792  0.6087 -1.0521
 2767SOL     OW11254   4.286   2.111   3.868 -0.4380 -0.5811 -0.1626
 2767SOL    HW111255   4.279   2.016   3.870  0.8589 -0.6870  0.5410
 2767SOL    HW211256   4.307   2.135   3.959 -1.2665  0.4360 -0.2138
 2768SOL     OW11257   4.508   0.676   0.796 -0.2031  0.3613  0.6704
 2768SOL    HW111258   4.523   0.687   0.702 -0.3701 -0.3219  0.5593
 2768SOL    HW211259   4.595   0.666   0.833 -0.2051 -0.8693  0.3839
 2769SOL     OW11260   5.846   6.131   3.335 -0.7408 -0.2039 -0.6628
 2769SOL    HW111261   5.916   6.082   3.292  0.5058 -1.3203  2.3752
 2769SOL    HW211262   5.891   6.203   3.380 -1.9501  0.8188 -1.0144
 2770SOL     OW11263   5.372   5.441   7.747  0.5442  0.2484  0.3322
 2770SOL    HW111264   5.293   5.419   7.797  1.0478  0.5974  1.3062
 2770SOL    HW211265   5.401   5.525   7.783  1.2853  0.1902 -0.1032
 2771SOL     OW11266   5.951   7.789   7.922 -0.1329  0.1475  0.2578
 2771SOL    HW111267   5.874   7.738   7.900  0.3759 -1.1076  1.2277
 2771SOL    HW211268   5.986   7.747   8.001  1.0373  1.2231  0.3516
 2772SOL     OW11269   5.776   0.832   0.127  0.1839 -0.1680  0.0892
 2772SOL    HW111270   5.822   0.901   0.175 -1.3918  0.1471  1.2225
 2772SOL    HW211271   5.820   0.751   0.153 -2.3140 -0.4003  4.5282
 2773SOL     OW11272   0.855   6.594   3.468  0.2831  0.0577 -0.2077
 2773SOL    HW111273   0.850   6.681   3.508 -0.5012  0.8092 -1.8381
 2773SOL    HW211274   0.925   6.601   3.403 -0.6737 -0.0813 -1.2921
 2774SOL     OW11275   5.715   7.318   6.226  0.0719 -0.4470  0.1302
 2774SOL    HW111276   5.806   7.291   6.219  0.6003  0.9525  1.1202
 2774SOL    HW211277   5.667   7.237   6.245  0.8893 -1.4130 -1.7123
 2775SOL     OW11278   7.497   2.455   7.941 -0.3790  0.2700  0.5267
 2775SOL    HW111279   7.473   2.406   8.020  1.2119  1.6928  1.9625
 2775SOL    HW211280   7.420   2.509   7.923 -0.4563  0.5284  1.5870
 2776SOL     OW11281   2.838   6.846   3.188 -0.7839 -0.2554 -0.2892
 2776SOL    HW111282   2.755   6.829   3.232 -1.6197 -1.2876 -2.1556
 2776SOL    HW211283   2.830   6.936   3.155 -1.4499 -0.5544 -0.9841
 2777SOL     OW11284   4.354   6.412   0.735  0.0677 -0.0038 -0.4876
 2777SOL    HW111285   4.273   6.433   0.688 -1.1909 -1.6901  0.7967
 2777SOL    HW211286   4.424   6.443   0.678 -1.3791 -1.3752 -3.1880
 2778SOL     OW11287   6.281   1.801   2.976 -0.2565 -0.3462 -0.3648
 2778SOL    HW111288   6.342   1.747   2.926 -0.1357 -1.0003  0.4826
 2778SOL    HW211289   6.214   1.739   3.006 -0.5472  0.1186 -0.0531
 2779SOL     OW11290   5.094   5.153   3.491  0.7987  0.5509 -0.0873
 2779SOL    HW111291   5.167   5.214   3.502  0.8484  1.1704 -3.0031
 2779SOL    HW211292   5.131   5.067   3.511  1.7719  1.0755  0.4267
 2780SOL     OW11293   2.137   1.974   4.730 -0.0776 -0.1040 -0.6293
 2780SOL    HW111294   2.092   1.890   4.720 -0.8391 -0.2837  3.0421
 2780SOL    HW211295   2.068   2.040   4.728 -0.3541 -0.1765  2.5996
 2781SOL     OW11296   3.008   1.976   4.430 -0.8246 -0.0773  0.1959
 2781SOL    HW111297   3.043   1.969   4.341 -0.5129 -0.7912  0.3664
 2781SOL    HW211298   2.943   2.045   4.425 -0.9129 -0.2101 -0.6221
 2782SOL     OW11299   4.044   6.171   0.173 -0.0057  0.0321 -0.4286
 2782SOL    HW111300   4.089   6.204   0.094  0.3438 -1.2686 -0.8127
 2782SOL    HW211301   4.035   6.077   0.157 -0.7964 -0.0998  0.6838
 2783SOL     OW11302   7.000   2.386   4.765 -0.1164 -0.5700 -0.5863
 2783SOL    HW111303   7.020   2.403   4.673  0.1484 -0.0117 -0.4302
 2783SOL    HW211304   7.071   2.429   4.813 -0.3209 -0.7557 -0.1168
 2784SOL     OW11305   7.108   4.192   6.367 -0.0802  0.1962 -1.1546
 2784SOL    HW111306   7.033   4.250   6.383 -0.3516 -0.1506 -1.1551
 2784SOL    HW211307   7.175   4.222   6.428 -0.4514  0.0851 -0.6891
 2785SOL     OW11308   4.169   0.239   2.363 -0.1451  0.6027 -0.5244
 2785SOL    HW111309   4.210   0.173   2.306  0.1248  0.7113 -0.4606
 2785SOL    HW211310   4.107   0.190   2.416  0.2163  0.3614 -0.3203
 2786SOL     OW11311   7.760   1.213   6.176 -0.3381  0.7130 -0.0515
 2786SOL    HW111312   7.748   1.274   6.249  1.3366  0.3113  0.5989
 2786SOL    HW211313   7.737   1.264   6.098 -2.3731  1.0841  0.7328
 2787SOL     OW11314   0.343   2.422   7.958 -0.5800  0.6773 -0.3117
 2787SOL    HW111315   0.325   2.329   7.946 -1.9561  0.9729 -0.6968
 2787SOL    HW211316   0.419   2.440   7.903 -0.1342 -0.2626 -0.0187
 2788SOL     OW11317   7.161   3.289   1.038  0.8191  1.1861  0.1028
 2788SOL    HW111318   7.216   3.366   1.022 -0.0424  1.8315  0.2147
 2788SOL    HW211319   7.081   3.324   1.078  0.2407  0.2796 -0.2376
 2789SOL     OW11320   1.163   8.029   5.046 -0.2326 -0.3544  0.1378
 2789SOL    HW111321   1.089   7.989   5.091 -0.7422  0.7150  0.2917
 2789SOL    HW211322   1.130   8.114   5.017  0.6924 -0.2030 -0.5100
 2790SOL     OW11323   5.633   6.349   3.579 -0.0469  0.0681  0.2472
 2790SOL    HW111324   5.725   6.325   3.586  0.7248  2.7873  0.5351
 2790SOL    HW211325   5.587   6.266   3.566  2.4128 -1.3625  0.1710
 2791SOL     OW11326   0.968   7.082   7.392  0.3027 -0.1158  0.2480
 2791SOL    HW111327   1.017   7.057   7.470  0.1265 -0.8970  0.1130
 2791SOL    HW211328   1.035   7.116   7.332  0.3465  1.1716  0.9918
 2792SOL     OW11329   6.764   6.135   3.836 -0.1220 -0.0202 -0.3508
 2792SOL    HW111330   6.828   6.119   3.767  0.1255  1.9851 -0.6450
 2792SOL    HW211331   6.699   6.193   3.795 -0.6572  0.1708  0.7388
 2793SOL     OW11332   2.921   5.146   5.621  0.1284  0.4087 -0.4851
 2793SOL    HW111333   2.898   5.228   5.579  0.9266  1.4454  1.0187
 2793SOL    HW211334   2.861   5.139   5.695  0.5124 -0.0440 -0.2126
 2794SOL     OW11335   1.276   6.622   6.264  0.5704 -0.2636  0.0996
 2794SOL    HW111336   1.242   6.632   6.175  1.1829  0.9917 -0.0087
 2794SOL    HW211337   1.284   6.711   6.298  0.1874 -0.7338  1.4885
 2795SOL     OW11338   2.762   0.079   5.082  0.0734  0.1866 -0.0225
 2795SOL    HW111339   2.748   0.085   4.988 -0.4706 -1.3090 -0.0597
 2795SOL    HW211340   2.829   0.011   5.092  1.3835  1.5077  0.6069
 2796SOL     OW11341   5.196   4.047   6.171 -0.2890 -0.3044  0.6329
 2796SOL    HW111342   5.256   3.981   6.207 -1.2884 -2.1277 -0.8634
 2796SOL    HW211343   5.225   4.058   6.080  1.0006  2.7831  1.2980
 2797SOL     OW11344   0.775   5.659   2.401 -0.0328  0.7747  0.3866
 2797SOL    HW111345   0.799   5.665   2.309 -0.2603  4.3907  0.4203
 2797SOL    HW211346   0.858   5.662   2.448  0.0245  0.1485  0.3300
 2798SOL     OW11347   7.397   7.783   2.408 -0.1961  0.1153  0.2247
 2798SOL    HW111348   7.438   7.710   2.455  0.0516 -0.0242 -0.2031
 2798SOL    HW211349   7.365   7.745   2.326 -0.1332  0.4676  0.0321
 2799SOL     OW11350   1.920   0.896   7.043  0.4465  0.0569  0.2181
 2799SOL    HW111351   1.895   0.987   7.028 -0.8093 -0.1992  0.5832
 2799SOL    HW211352   1.967   0.870   6.964  1.8925  1.3624  0.6063
 2800SOL     OW11353   6.751   7.404   4.478  0.4024  0.3292 -0.2878
 2800SOL    HW111354   6.804   7.389   4.556 -0.4495  2.0288  0.6781
 2800SOL    HW211355   6.665   7.367   4.499  0.8344 -1.4131 -1.4116
 2801SOL     OW11356   7.799   7.376   5.145  0.2375 -0.2060  0.1650
 2801SOL    HW111357   7.750   7.435   5.203  0.8680 -0.5120  1.0162
 2801SOL    HW211358   7.889   7.406   5.151  0.0442  1.1709 -2.3793
 2802SOL     OW11359   0.491   7.043   4.401 -0.2331  0.6170  0.0490
 2802SOL    HW111360   0.541   7.119   4.373  0.3959  0.5183  0.8543
 2802SOL    HW211361   0.557   6.980   4.430 -0.7332 -0.3181 -0.7857
 2803SOL     OW11362   5.529   7.476   6.115  0.0624  0.2843  0.8583
 2803SOL    HW111363   5.611   7.436   6.143  0.5750  0.6097 -0.1369
 2803SOL    HW211364   5.503   7.532   6.189  1.2779  0.9870  0.7698
 2804SOL     OW11365   4.819   5.510   3.395  0.1971 -0.1645 -0.2187
 2804SOL    HW111366   4.769   5.445   3.445 -2.0623  1.2048 -0.5485
 2804SOL    HW211367   4.875   5.458   3.338 -1.5524 -1.8585 -0.5065
 2805SOL     OW11368   6.885   3.193   4.930 -1.1159  0.6963  0.4124
 2805SOL    HW111369   6.870   3.126   4.997  0.0425  1.0073  1.0164
 2805SOL    HW211370   6.799   3.231   4.914 -1.3417  1.0506  2.2199
 2806SOL     OW11371   0.170   2.392   2.136 -0.0758  0.0769  0.5519
 2806SOL    HW111372   0.232   2.431   2.075 -0.9641  0.0494 -0.3984
 2806SOL    HW211373   0.196   2.301   2.144  0.6504  0.3185  1.0172
 2807SOL     OW11374   0.815   7.540   0.787 -0.6441  0.1695  0.0270
 2807SOL    HW111375   0.811   7.575   0.875 -0.8525  0.2070  0.0020
 2807SOL    HW211376   0.871   7.601   0.739  0.1995 -0.3320  0.3563
 2808SOL     OW11377   4.245   5.344   2.431 -0.0633  0.0850 -0.0727
 2808SOL    HW111378   4.303   5.339   2.507  0.0978  2.4943  0.0477
 2808SOL    HW211379   4.304   5.338   2.356 -0.0954 -1.1157 -0.0213
 2809SOL     OW11380   4.857   6.056   6.244 -0.1614 -0.0808 -0.3620
 2809SOL    HW111381   4.862   5.962   6.262 -1.7704 -0.1966 -0.3990
 2809SOL    HW211382   4.848   6.096   6.331  1.1411  0.1100 -0.2970
 2810SOL     OW11383   1.133   2.945   3.958 -0.0757  0.4144  0.1417
 2810SOL    HW111384   1.176   2.869   3.998  0.6991  0.8562  0.1708
 2810SOL    HW211385   1.067   2.972   4.022 -1.3065 -1.0395 -0.4452
 2811SOL     OW11386   4.333   3.254   7.344  0.3044 -0.2501 -0.2198
 2811SOL    HW111387   4.394   3.180   7.340  0.4887 -0.1427  0.5021
 2811SOL    HW211388   4.274   3.241   7.269  0.9500 -0.5836 -0.6738
 2812SOL     OW11389   7.482   3.214   7.511 -0.2921  0.0557 -0.2721
 2812SOL    HW111390   7.440   3.300   7.515  1.8918  1.1511  1.6496
 2812SOL    HW211391   7.561   3.229   7.460  1.6684  0.0650  2.5113
 2813SOL     OW11392   3.300   4.932   4.615  0.2481 -0.2202  0.5990
 2813SOL    HW111393   3.298   4.952   4.709 -1.3913  0.3826  0.4620
 2813SOL    HW211394   3.381   4.972   4.584  0.1402  0.7651  1.5080
 2814SOL     OW11395   5.164   5.481   1.795  0.3007 -0.0260  0.0561
 2814SOL    HW111396   5.215   5.472   1.875  1.5635  2.0319 -0.4215
 2814SOL    HW211397   5.230   5.498   1.727 -0.9359  3.9711 -0.4067
 2815SOL     OW11398   4.834   2.362   1.336 -0.1289 -0.4200 -0.6001
 2815SOL    HW111399   4.881   2.290   1.378  0.2442  0.7915  1.1881
 2815SOL    HW211400   4.745   2.329   1.323  0.2814 -1.5117 -0.6694
 2816SOL     OW11401   0.525   7.033   2.341 -0.2814 -0.3593  0.6214
 2816SOL    HW111402   0.552   6.943   2.359 -0.7221  0.1001  4.1923
 2816SOL    HW211403   0.608   7.081   2.336 -0.0590 -0.8483 -0.9865
 2817SOL     OW11404   0.255   7.977   1.564  0.5292  0.3309 -0.1282
 2817SOL    HW111405   0.308   8.036   1.618  1.3457 -0.0026 -0.5475
 2817SOL    HW211406   0.238   7.901   1.620  1.5248 -0.0930 -0.3705
 2818SOL     OW11407   6.143   6.689   4.816 -0.0522  0.4813 -0.4993
 2818SOL    HW111408   6.221   6.658   4.771 -0.9015  0.4309 -2.0046
 2818SOL    HW211409   6.132   6.630   4.890  0.2854 -0.6773 -1.3540
 2819SOL     OW11410   5.331   4.667   6.868 -0.0397  0.4656  0.3467
 2819SOL    HW111411   5.384   4.683   6.790 -0.9752  0.6054 -0.2720
 2819SOL    HW211412   5.318   4.573   6.870 -0.9182  0.5624 -0.2846
 2820SOL     OW11413   3.292   5.663   0.686  0.6564 -0.1131 -0.2818
 2820SOL    HW111414   3.359   5.731   0.683  1.7463 -1.1712 -0.9005
 2820SOL    HW211415   3.233   5.690   0.756  2.4204  0.2303  1.1420
 2821SOL     OW11416   0.468   3.860   6.558 -0.6055 -0.1330 -0.2927
 2821SOL    HW111417   0.485   3.911   6.478  0.7983 -0.4763 -0.2453
 2821SOL    HW211418   0.441   3.774   6.527  3.7299 -1.6128 -0.6126
 2822SOL     OW11419   1.982   7.497   2.087  0.3158 -0.0521  0.1571
 2822SOL    HW111420   2.027   7.500   2.002  0.3769  1.7848  0.2301
 2822SOL    HW211421   2.033   7.555   2.144 -0.1753 -0.6499  1.2432
 2823SOL     OW11422   7.476   7.708   5.051 -0.0914 -0.1360  0.1769
 2823SOL    HW111423   7.409   7.774   5.068  0.1373 -0.2078  1.5054
 2823SOL    HW211424   7.559   7.755   5.056 -0.0137  0.0095 -1.7576
 2824SOL     OW11425   2.791   8.131   1.181  0.1716 -0.2921  0.2840
 2824SOL    HW111426   2.745   8.068   1.125 -0.5107  1.4090 -1.1853
 2824SOL    HW211427   2.865   8.082   1.217  1.5355 -1.1625 -3.2735
 2825SOL     OW11428   4.100   3.973   1.917 -0.1873  0.2938  0.1749
 2825SOL    HW111429   4.021   4.011   1.954  0.2278 -0.2951  1.7286
 2825SOL    HW211430   4.125   4.033   1.847 -1.6062  0.8535  0.1297
 2826SOL     OW11431   6.656   6.419   5.307 -0.3211 -0.0711  0.2859
 2826SOL    HW111432   6.702   6.347   5.263 -0.9926 -1.2498  1.4615
 2826SOL    HW211433   6.584   6.377   5.353 -2.0834  1.6409 -0.7994
 2827SOL     OW11434   1.286   1.342   4.787  0.3132  0.3160  0.4310
 2827SOL    HW111435   1.276   1.409   4.720 -0.5409  0.4297  0.6619
 2827SOL    HW211436   1.206   1.290   4.781  0.4530  0.0196  1.0258
 2828SOL     OW11437   2.078   5.865   6.793  0.3782 -0.0948  0.3839
 2828SOL    HW111438   2.051   5.800   6.729  0.2102  0.3428 -0.0006
 2828SOL    HW211439   2.113   5.937   6.740  1.1402 -0.1318  0.8205
 2829SOL     OW11440   5.234   1.160   0.778 -0.8297 -0.2074  0.0481
 2829SOL    HW111441   5.158   1.102   0.788 -1.5812  0.4023 -1.7408
 2829SOL    HW211442   5.216   1.233   0.837 -1.5483 -0.1671 -0.2090
 2830SOL     OW11443   4.231   1.313   3.689 -0.2253 -0.1864  0.1554
 2830SOL    HW111444   4.297   1.342   3.626  2.0907 -3.3221  0.8944
 2830SOL    HW211445   4.269   1.332   3.775 -1.4077  0.1646  0.6210
 2831SOL     OW11446   1.335   1.098   5.239 -0.1534 -0.1610  0.2095
 2831SOL    HW111447   1.313   1.017   5.193 -0.4019  0.1916 -0.3022
 2831SOL    HW211448   1.371   1.069   5.323  1.3958 -0.8638 -0.6408
 2832SOL     OW11449   0.818   4.006   2.140 -0.3922  0.6305 -0.0785
 2832SOL    HW111450   0.733   3.993   2.100  0.7873 -2.0182 -1.9802
 2832SOL    HW211451   0.809   3.971   2.229 -2.4706  4.8057  1.6720
 2833SOL     OW11452   7.474   7.182   3.838 -0.0910  0.4948 -0.7776
 2833SOL    HW111453   7.448   7.234   3.914  0.2733  0.2783 -0.5028
 2833SOL    HW211454   7.469   7.243   3.764 -0.7578  0.6243 -0.6333
 2834SOL     OW11455   5.603   5.148   5.485  0.8004 -0.4347  0.4071
 2834SOL    HW111456   5.520   5.114   5.516  0.8706 -0.8826  0.1204
 2834SOL    HW211457   5.655   5.070   5.464  0.2340 -0.2027 -2.1906
 2835SOL     OW11458   3.675   1.343   0.557 -0.0076 -0.5462  0.3964
 2835SOL    HW111459   3.643   1.254   0.545 -0.9470 -0.3419  1.3018
 2835SOL    HW211460   3.640   1.371   0.641  0.8099  0.4590  0.4290
 2836SOL     OW11461   4.064   4.562   7.176 -0.1468 -0.5121 -0.1674
 2836SOL    HW111462   4.081   4.468   7.181 -1.3696 -0.7703 -0.3778
 2836SOL    HW211463   4.013   4.581   7.255  1.1442  0.2296  0.5004
 2837SOL     OW11464   5.794   0.105   2.691  0.2947  0.0602  0.0182
 2837SOL    HW111465   5.792   0.010   2.707 -0.4617 -0.1407 -1.1383
 2837SOL    HW211466   5.876   0.119   2.643 -0.6647 -0.3953 -1.8448
 2838SOL     OW11467   2.517   7.916   3.461 -0.2844  0.3594 -0.2225
 2838SOL    HW111468   2.454   7.954   3.523 -0.7258 -1.2101  0.3290
 2838SOL    HW211469   2.467   7.907   3.380 -0.5142 -0.0146 -0.0466
 2839SOL     OW11470   4.089   3.335   6.918  0.2077  0.1823  0.3898
 2839SOL    HW111471   4.049   3.413   6.957  1.5271  1.2451 -0.3186
 2839SOL    HW211472   4.165   3.368   6.871  0.8660 -1.5643  0.1668
 2840SOL     OW11473   1.321   6.504   6.868 -0.1973  0.8677  0.1355
 2840SOL    HW111474   1.316   6.413   6.839  3.6337  0.5015  0.1258
 2840SOL    HW211475   1.292   6.555   6.793  0.7263 -0.3219 -1.0710
 2841SOL     OW11476   7.027   6.811   2.282  0.1357  0.2648  0.0842
 2841SOL    HW111477   7.077   6.737   2.246 -0.1666 -0.0406  0.2829
 2841SOL    HW211478   6.991   6.855   2.205  0.6843  0.4692 -0.0577
 2842SOL     OW11479   5.010   5.591   5.249  0.1846 -0.0565  0.2865
 2842SOL    HW111480   4.922   5.585   5.286 -0.7993  1.6908 -1.6102
 2842SOL    HW211481   5.028   5.685   5.246  1.0831 -0.2559 -1.6777
 2843SOL     OW11482   6.062   1.528   2.845 -0.0380  0.5986  0.0769
 2843SOL    HW111483   6.129   1.570   2.791 -0.7266  0.1569 -1.1633
 2843SOL    HW211484   6.112   1.473   2.906  0.7856  1.7457  0.4754
 2844SOL     OW11485   5.311   3.918   1.274 -0.1188  0.4012  0.1739
 2844SOL    HW111486   5.253   3.993   1.283  1.1780  1.7306 -1.7211
 2844SOL    HW211487   5.318   3.904   1.180  1.1551 -0.9086  0.4211
 2845SOL     OW11488   2.317   0.931   4.116  0.2470 -0.1234 -0.0041
 2845SOL    HW111489   2.266   0.946   4.196 -2.0220 -0.0950 -1.3803
 2845SOL    HW211490   2.408   0.929   4.146 -0.4586  0.8250  2.4318
 2846SOL     OW11491   0.276   7.690   7.033  0.6969  0.1807 -0.1039
 2846SOL    HW111492   0.202   7.690   7.094  1.6871  2.1981  1.1878
 2846SOL    HW211493   0.236   7.708   6.948 -0.4218  0.0593  0.3744
 2847SOL     OW11494   6.498   3.449   5.913 -0.3833  0.5072  0.1602
 2847SOL    HW111495   6.482   3.486   5.999 -0.8577 -0.8870  0.7064
 2847SOL    HW211496   6.570   3.501   5.877 -2.1328  3.0855  0.1070
 2848SOL     OW11497   6.965   3.713   7.671  0.2312  0.8933  0.4664
 2848SOL    HW111498   6.996   3.633   7.713 -1.8126  0.9483  2.2886
 2848SOL    HW211499   7.023   3.781   7.704  0.6406  0.4670  0.6494
 2849SOL     OW11500   6.801   3.209   4.502 -0.0797 -0.1251 -0.8784
 2849SOL    HW111501   6.820   3.284   4.445  1.3688 -0.9714 -1.5787
 2849SOL    HW211502   6.766   3.142   4.443  2.0367 -1.2430 -0.9816
 2850SOL     OW11503   1.524   7.553   3.859 -0.1199 -0.6136  0.7319
 2850SOL    HW111504   1.569   7.482   3.905  0.4708  0.0689  1.2284
 2850SOL    HW211505   1.476   7.599   3.928  1.2090  0.7491  0.7767
 2851SOL     OW11506   6.696   5.303   6.548 -0.0800 -0.0234  0.2381
 2851SOL    HW111507   6.676   5.395   6.565 -1.8626 -0.2026 -0.6871
 2851SOL    HW211508   6.788   5.293   6.575 -0.3353  1.5982  1.9297
 2852SOL     OW11509   0.718   3.809   6.667 -0.1110  0.2396 -0.2114
 2852SOL    HW111510   0.700   3.855   6.585  1.2112 -0.8140 -1.1428
 2852SOL    HW211511   0.809   3.830   6.687 -0.0683 -0.4531  0.3485
 2853SOL     OW11512   5.443   1.410   6.281 -0.3133  0.2627 -0.1769
 2853SOL    HW111513   5.440   1.502   6.257 -1.3726  0.4194  0.4852
 2853SOL    HW211514   5.352   1.381   6.279 -0.4259  0.0860  2.7160
 2854SOL     OW11515   6.785   0.147   1.178 -0.2025 -0.1561 -0.2998
 2854SOL    HW111516   6.746   0.065   1.147  1.4506 -0.3313 -2.0795
 2854SOL    HW211517   6.818   0.190   1.098 -1.1742  2.3684  0.5383
 2855SOL     OW11518   7.932   6.127   0.142  0.8566 -0.4321 -0.0385
 2855SOL    HW111519   7.970   6.102   0.226 -0.6011 -0.9132  0.5086
 2855SOL    HW211520   7.884   6.208   0.161  0.3046 -0.6842 -0.3324
 2856SOL     OW11521   0.334   7.247   5.567  0.0222 -0.1433  0.3594
 2856SOL    HW111522   0.332   7.252   5.471 -0.5957 -0.8327  0.3297
 2856SOL    HW211523   0.425   7.224   5.587 -0.1092 -1.1876 -0.1401
 2857SOL     OW11524   7.957   5.800   5.650 -0.1000  0.4128 -0.3624
 2857SOL    HW111525   8.011   5.868   5.689 -2.0132  0.0867  3.3641
 2857SOL    HW211526   7.922   5.751   5.725 -3.0977 -1.2632 -2.6029
 2858SOL     OW11527   4.640   7.388   0.179 -0.2764 -0.1250 -0.0765
 2858SOL    HW111528   4.722   7.396   0.131  0.2469 -1.2069  0.6079
 2858SOL    HW211529   4.632   7.295   0.200 -0.3943  0.3055  2.0573
 2859SOL     OW11530   0.567   1.542   1.734  0.1440  0.3072 -0.1125
 2859SOL    HW111531   0.564   1.618   1.677 -0.0251  0.5548  0.2253
 2859SOL    HW211532   0.488   1.493   1.713  0.4126  0.0517 -0.5594
 2860SOL     OW11533   7.423   7.115   1.972 -0.0229  0.6531  0.5849
 2860SOL    HW111534   7.391   7.192   1.925 -2.1842  0.0612  1.0110
 2860SOL    HW211535   7.363   7.045   1.948  0.2362 -0.2376  2.3837
 2861SOL     OW11536   4.790   8.012   5.142  0.3901  0.1075 -0.1991
 2861SOL    HW111537   4.708   8.051   5.175 -0.3344 -0.6561 -1.0468
 2861SOL    HW211538   4.838   8.086   5.105  0.1416  0.5822  0.3866
 2862SOL     OW11539   6.005   8.095   0.270 -0.1395  0.1353  0.1968
 2862SOL    HW111540   5.952   8.018   0.249  0.2408  0.6313 -3.1253
 2862SOL    HW211541   5.946   8.151   0.322 -1.4745 -1.0424  0.0274
 2863SOL     OW11542   6.723   7.592   7.632  0.0912  0.1821  0.3159
 2863SOL    HW111543   6.675   7.569   7.712  2.2561 -2.2119  1.0488
 2863SOL    HW211544   6.700   7.523   7.570  0.4638  0.5396 -0.2252
 2864SOL     OW11545   7.323   0.388   2.053 -0.0219  0.2671  0.2497
 2864SOL    HW111546   7.390   0.363   2.116 -1.3107 -1.3599  1.0551
 2864SOL    HW211547   7.250   0.420   2.106 -0.0756  1.6118 -0.5834
 2865SOL     OW11548   0.014   2.480   0.536 -0.2549 -0.2228 -0.7378
 2865SOL    HW111549   0.010   2.572   0.562  0.3176 -0.8475  1.8837
 2865SOL    HW211550  -0.066   2.466   0.485 -1.3179  1.3059  0.4071
 2866SOL     OW11551   0.283   1.586   2.694  0.2745  0.0174  0.4680
 2866SOL    HW111552   0.224   1.560   2.623  0.2813  0.6071  0.2416
 2866SOL    HW211553   0.370   1.564   2.663  0.1495 -1.4191  1.0481
 2867SOL     OW11554   6.349   7.293   3.719 -0.7012 -0.1849 -0.4858
 2867SOL    HW111555   6.391   7.299   3.633 -0.5418 -2.0277 -0.5910
 2867SOL    HW211556   6.263   7.255   3.701 -0.8304 -0.1929  0.1205
 2868SOL     OW11557   1.843   1.801   7.323 -0.1695 -0.5374 -0.0757
 2868SOL    HW111558   1.865   1.823   7.414  0.6738 -0.4068 -0.3070
 2868SOL    HW211559   1.854   1.707   7.317  1.3107 -0.3685 -0.4332
 2869SOL     OW11560   1.901   3.000   8.045  0.9834 -0.6501 -0.3366
 2869SOL    HW111561   1.929   2.953   7.967  2.8935  0.4954 -0.4056
 2869SOL    HW211562   1.941   3.087   8.037 -1.3938  0.6035  0.3857
 2870SOL     OW11563   1.905   7.840   3.878 -0.6942  0.4603  0.3028
 2870SOL    HW111564   1.810   7.827   3.873 -0.4743 -0.9251 -1.7169
 2870SOL    HW211565   1.940   7.754   3.898  0.1461  1.1806  2.2192
 2871SOL     OW11566   2.617   3.358   1.774 -0.4037  0.0661  0.3513
 2871SOL    HW111567   2.644   3.267   1.792  0.0229 -0.3183 -1.8864
 2871SOL    HW211568   2.537   3.370   1.824  0.4476 -0.9491  2.0601
 2872SOL     OW11569   5.088   1.365   6.582 -0.1536  0.3334 -0.7284
 2872SOL    HW111570   5.149   1.439   6.579  0.0008  0.1857 -1.2727
 2872SOL    HW211571   5.021   1.392   6.645 -0.6318  1.3423 -1.6526
 2873SOL     OW11572   3.117   7.802   5.001  0.0777  0.4859 -0.8347
 2873SOL    HW111573   3.062   7.738   4.956  1.1487 -0.1281 -1.3085
 2873SOL    HW211574   3.127   7.766   5.090  1.8363 -0.7978 -1.4948
 2874SOL     OW11575   6.488   1.580   5.199 -0.0737  0.0388 -0.6091
 2874SOL    HW111576   6.568   1.527   5.193 -0.4481 -0.4398 -1.6195
 2874SOL    HW211577   6.517   1.669   5.180  0.2892 -0.0683 -0.5713
 2875SOL     OW11578   4.223   6.261   1.795  0.3133 -0.0047 -0.1946
 2875SOL    HW111579   4.145   6.219   1.832 -0.1695  0.5478 -0.5811
 2875SOL    HW211580   4.237   6.216   1.712  1.0979 -0.8916  0.3835
 2876SOL     OW11581   0.052   1.551   4.249 -0.5686  0.6767  0.4178
 2876SOL    HW111582   0.101   1.601   4.183 -0.9596  1.8802  1.0225
 2876SOL    HW211583  -0.001   1.490   4.197  0.5323  0.2885 -0.3009
 2877SOL     OW11584   5.577   6.695   3.092 -0.2406  0.4971  0.5350
 2877SOL    HW111585   5.549   6.773   3.045 -0.2180 -0.4434 -1.1178
 2877SOL    HW211586   5.603   6.727   3.178  3.5178  2.9719 -1.2725
 2878SOL     OW11587   5.556   3.012   0.391 -0.2102 -0.1342 -0.2298
 2878SOL    HW111588   5.621   3.072   0.355 -1.0797 -0.2452 -2.1460
 2878SOL    HW211589   5.472   3.054   0.370 -0.7851 -0.6854  0.9040
 2879SOL     OW11590   0.622   7.391   1.928 -0.0499  0.2887 -0.1247
 2879SOL    HW111591   0.569   7.470   1.939 -1.5555 -0.7625  0.5363
 2879SOL    HW211592   0.649   7.393   1.836 -1.4738  0.7531 -0.5724
 2880SOL     OW11593   2.052   0.054   8.067 -0.7342 -0.4485 -0.3495
 2880SOL    HW111594   2.070  -0.040   8.077  0.2167 -0.0449  2.9448
 2880SOL    HW211595   1.957   0.059   8.058 -0.7168 -1.7463 -1.7059
 2881SOL     OW11596   8.110   0.928   6.684  0.3407 -0.0141  0.4124
 2881SOL    HW111597   8.189   0.940   6.631  0.8947  1.5959  1.5232
 2881SOL    HW211598   8.091   0.834   6.678  0.4979  0.0323 -2.4002
 2882SOL     OW11599   5.850   0.245   5.193 -0.0904 -0.0398 -0.0226
 2882SOL    HW111600   5.933   0.200   5.203  0.4156  0.8240 -0.2412
 2882SOL    HW211601   5.795   0.183   5.146  0.3576 -0.6944  0.2988
 2883SOL     OW11602   3.575   8.008   2.946 -0.2723  0.1315  0.4345
 2883SOL    HW111603   3.546   7.989   2.856 -0.6401  1.4435  0.2502
 2883SOL    HW211604   3.568   7.924   2.992 -2.2171 -0.0984 -0.1989
 2884SOL     OW11605   5.898   5.035   3.358 -0.0487 -0.7804 -0.0742
 2884SOL    HW111606   5.891   5.076   3.444  1.6075  0.1360 -0.3208
 2884SOL    HW211607   5.809   5.034   3.324 -0.5921 -0.2954  1.2680
 2885SOL     OW11608   3.605   2.447   4.320 -0.1148  0.2724  0.6422
 2885SOL    HW111609   3.693   2.443   4.358  1.4068 -1.5955 -2.6372
 2885SOL    HW211610   3.596   2.538   4.290  1.8683 -0.0442 -1.1933
 2886SOL     OW11611   5.522   1.991   2.739  0.4317  0.2027  0.0680
 2886SOL    HW111612   5.532   1.905   2.697 -2.4629  0.5956 -1.6550
 2886SOL    HW211613   5.592   2.045   2.701 -0.0500 -0.3846 -1.7343
 2887SOL     OW11614   6.088   7.952   4.745 -0.2589 -0.1173  0.6216
 2887SOL    HW111615   6.082   7.900   4.825 -2.0002  0.6141  1.0163
 2887SOL    HW211616   6.155   8.017   4.764  0.2272 -0.7186  1.0096
 2888SOL     OW11617   3.684   4.346   7.516 -0.2277 -0.4189 -0.0531
 2888SOL    HW111618   3.714   4.349   7.607 -1.2339 -0.7767  0.3063
 2888SOL    HW211619   3.710   4.260   7.485 -0.7079 -0.6672  0.2088
 2889SOL     OW11620   2.381   5.308   0.523 -0.0935  0.2486  0.0598
 2889SOL    HW111621   2.383   5.404   0.525 -2.7184  0.4409 -2.1539
 2889SOL    HW211622   2.334   5.284   0.603  0.2618  0.7922  0.4451
 2890SOL     OW11623   2.104   2.563   2.263  0.3012 -0.2074 -0.6415
 2890SOL    HW111624   2.133   2.595   2.348  0.7689  1.0389 -1.2473
 2890SOL    HW211625   2.181   2.522   2.224 -0.5680 -3.4000  0.6307
 2891SOL     OW11626   6.687   2.280   6.161  0.5902 -0.0426  0.0736
 2891SOL    HW111627   6.728   2.200   6.194  0.2771  0.5705  2.1055
 2891SOL    HW211628   6.760   2.341   6.151  0.7169 -0.3022 -0.6281
 2892SOL     OW11629   0.983   0.838   4.682 -0.2782  0.3507  0.0817
 2892SOL    HW111630   0.921   0.879   4.622 -1.0800 -1.0015 -0.0496
 2892SOL    HW211631   1.041   0.787   4.624 -1.5009 -1.5504  0.4346
 2893SOL     OW11632   0.372   7.308   0.518  0.1936  0.1538 -0.3997
 2893SOL    HW111633   0.380   7.252   0.440  0.3029  0.6740 -0.7612
 2893SOL    HW211634   0.458   7.303   0.560 -0.6274 -2.3376  1.2211
 2894SOL     OW11635   8.066   0.485   0.465 -0.0129 -0.8183 -0.4217
 2894SOL    HW111636   8.142   0.467   0.410 -0.2662  1.3727 -1.5999
 2894SOL    HW211637   8.041   0.575   0.442 -1.9279 -0.8888  1.1708
 2895SOL     OW11638   1.217   4.430   6.127  0.6660  0.5012 -0.5842
 2895SOL    HW111639   1.136   4.432   6.076  0.0581 -0.8957  0.2819
 2895SOL    HW211640   1.281   4.392   6.067  0.0677 -0.6927 -0.4917
 2896SOL     OW11641   5.983   4.109   2.218 -0.1070  0.7901  0.4428
 2896SOL    HW111642   5.916   4.067   2.164 -0.8957  2.4862  0.0519
 2896SOL    HW211643   6.063   4.103   2.165 -0.3187  0.2453  0.1779
 2897SOL     OW11644   1.477   6.069   7.151  0.1157 -0.0407 -0.1728
 2897SOL    HW111645   1.478   6.165   7.150 -1.3547  0.0100  0.8587
 2897SOL    HW211646   1.567   6.044   7.130  0.5829  1.5613 -0.1902
 2898SOL     OW11647   0.980   7.347   3.804  0.6844 -0.0034 -0.2600
 2898SOL    HW111648   0.965   7.262   3.763  1.3528 -0.5577  0.6234
 2898SOL    HW211649   1.075   7.351   3.818  0.5410  0.4676  0.6084
 2899SOL     OW11650   1.626   6.177   6.827  0.4191  0.8868  0.0322
 2899SOL    HW111651   1.562   6.160   6.895  1.1020 -0.6817  0.3447
 2899SOL    HW211652   1.583   6.150   6.746  1.1664 -1.8549  0.4234
 2900SOL     OW11653   0.021   1.952   3.028 -0.0903  0.1768  0.2087
 2900SOL    HW111654   0.053   1.904   2.952  0.1845  0.5491  0.0836
 2900SOL    HW211655  -0.018   1.885   3.084 -0.1054 -0.1282 -0.1613
 2901SOL     OW11656   5.111   3.451   3.288 -0.1146 -0.0426 -0.4637
 2901SOL    HW111657   5.070   3.524   3.335  0.8906 -0.5052  1.2325
 2901SOL    HW211658   5.203   3.476   3.281  0.3638 -1.3572  0.6725
 2902SOL     OW11659   3.227   6.496   7.474 -0.0712  0.1508 -0.4425
 2902SOL    HW111660   3.156   6.450   7.429  0.6202 -0.7528 -0.6387
 2902SOL    HW211661   3.293   6.429   7.489  0.1531  0.6621  1.0130
 2903SOL     OW11662   6.290   2.250   1.332  0.1660  0.1845 -0.2991
 2903SOL    HW111663   6.253   2.285   1.251 -1.2527 -0.1602  0.1805
 2903SOL    HW211664   6.221   2.194   1.368  0.7209  0.4328  1.2198
 2904SOL     OW11665   7.490   0.455   2.556 -0.0836  0.5437  0.6387
 2904SOL    HW111666   7.466   0.362   2.552 -0.1155  0.6015 -2.2881
 2904SOL    HW211667   7.570   0.456   2.609  0.0678 -1.1977  0.5101
 2905SOL     OW11668   4.606   4.564   1.746  0.1320  0.1603 -0.1912
 2905SOL    HW111669   4.667   4.490   1.739 -0.2208 -0.0612 -1.0502
 2905SOL    HW211670   4.593   4.593   1.655  0.1556  1.1897  0.1239
 2906SOL     OW11671   5.648   5.730   0.868  0.0701  0.1741 -0.0997
 2906SOL    HW111672   5.604   5.687   0.942  2.5214  0.0148  1.3796
 2906SOL    HW211673   5.586   5.723   0.796 -1.6640 -1.3671  1.4326
 2907SOL     OW11674   7.750   3.952   2.696  0.4688  0.3175 -0.1850
 2907SOL    HW111675   7.742   3.895   2.619  1.5342  1.6794 -1.3712
 2907SOL    HW211676   7.784   4.035   2.661 -1.2164  1.7958  1.4303
 2908SOL     OW11677   2.142   5.883   2.635 -0.2277  0.2092  0.0423
 2908SOL    HW111678   2.163   5.954   2.574  0.7472 -0.4821 -0.4541
 2908SOL    HW211679   2.172   5.915   2.720  1.8568 -0.2658 -0.4548
 2909SOL     OW11680   4.197   4.836   0.312 -0.0535  0.5187  0.2162
 2909SOL    HW111681   4.119   4.831   0.255  0.4013 -1.1443 -0.3176
 2909SOL    HW211682   4.228   4.746   0.317  0.8113  0.8815  1.9012
 2910SOL     OW11683   0.097   3.043   4.672  0.3808  0.5779 -0.1988
 2910SOL    HW111684   0.012   3.053   4.630  0.0355  0.2781  0.4102
 2910SOL    HW211685   0.147   3.121   4.645 -0.1171  0.8000 -0.4836
 2911SOL     OW11686   4.841   5.561   4.511 -0.0413 -0.1880  0.0270
 2911SOL    HW111687   4.915   5.532   4.458 -0.1058  1.4038 -1.0074
 2911SOL    HW211688   4.868   5.645   4.547 -1.1139  0.1506  0.0926
 2912SOL     OW11689   6.518   0.683   6.649 -0.0456  0.9651  0.4313
 2912SOL    HW111690   6.564   0.689   6.565  0.1715  1.1545  0.5646
 2912SOL    HW211691   6.425   0.684   6.625  0.0137  1.2978  0.2103
 2913SOL     OW11692   3.477   4.623   0.379  0.2306 -0.5615  0.3021
 2913SOL    HW111693   3.384   4.632   0.396 -0.2201 -1.3832 -1.4997
 2913SOL    HW211694   3.514   4.589   0.461 -0.8094  1.0064  1.4514
 2914SOL     OW11695   3.658   4.369   5.369 -0.0634  0.1522  0.2891
 2914SOL    HW111696   3.730   4.422   5.403 -0.5498  1.2324 -0.3006
 2914SOL    HW211697   3.701   4.294   5.328  0.7705  1.0140 -0.4614
 2915SOL     OW11698   4.537   2.427   1.509  0.0049  0.1552  0.3988
 2915SOL    HW111699   4.480   2.439   1.585  0.3131  0.2745  0.6130
 2915SOL    HW211700   4.605   2.493   1.520  1.6080 -1.5598  1.4787
 2916SOL     OW11701   3.034   5.918   2.346  0.3851  0.2664 -0.1301
 2916SOL    HW111702   3.033   5.987   2.280 -2.3640 -0.0738 -0.5678
 2916SOL    HW211703   3.093   5.852   2.311 -1.0849  0.0333 -2.4129
 2917SOL     OW11704   5.735   3.123   6.371  1.1449  0.2731  0.0267
 2917SOL    HW111705   5.738   3.131   6.276 -0.9036  0.8545 -0.0438
 2917SOL    HW211706   5.711   3.031   6.386  1.8500  0.0797  0.0164
 2918SOL     OW11707   2.416   5.159   7.860 -0.5226  0.0071 -0.5294
 2918SOL    HW111708   2.323   5.166   7.883 -0.5160 -1.0853 -0.1582
 2918SOL    HW211709   2.461   5.204   7.932 -0.6507 -1.2283  0.3470
 2919SOL     OW11710   0.482   3.284   6.290  0.6427  0.1280  0.7069
 2919SOL    HW111711   0.556   3.228   6.313 -0.2364 -1.2979  0.1946
 2919SOL    HW211712   0.491   3.298   6.195  0.7304  0.6889  0.7922
 2920SOL     OW11713   8.015   3.184   7.126  0.5185  0.0413 -0.2934
 2920SOL    HW111714   7.948   3.249   7.105 -0.1453 -0.0137  1.4555
 2920SOL    HW211715   8.004   3.167   7.220  0.6319 -2.6317 -0.6714
 2921SOL     OW11716   5.449   8.089   6.628 -0.4577  0.0234  0.6367
 2921SOL    HW111717   5.406   8.026   6.571 -0.0838  0.6568 -0.3639
 2921SOL    HW211718   5.527   8.044   6.660 -1.9100 -1.2272  2.6623
 2922SOL     OW11719   5.025   2.855   7.516 -0.1792 -0.1321  0.0958
 2922SOL    HW111720   5.001   2.790   7.450  1.0562  0.0907 -0.6040
 2922SOL    HW211721   5.091   2.812   7.570  0.4870  0.4522 -0.2384
 2923SOL     OW11722   4.267   2.716   7.099  0.3847  0.5180 -0.0111
 2923SOL    HW111723   4.197   2.667   7.143  0.6523 -0.5203 -0.7071
 2923SOL    HW211724   4.347   2.670   7.122  0.5306 -0.0975 -1.5813
 2924SOL     OW11725   2.117   6.065   3.616 -0.3572  0.1308 -0.4431
 2924SOL    HW111726   2.143   6.015   3.539 -0.3429 -1.4778  0.5633
 2924SOL    HW211727   2.144   6.011   3.690 -2.5732  0.4471  0.6757
 2925SOL     OW11728   4.906   2.415   7.848 -0.2574  1.0586 -0.3212
 2925SOL    HW111729   4.980   2.446   7.901 -2.2128  2.0760  1.9948
 2925SOL    HW211730   4.891   2.485   7.784 -0.3828  1.7606  0.4545
 2926SOL     OW11731   3.730   7.660   4.050  0.0028 -0.1768  0.0225
 2926SOL    HW111732   3.770   7.744   4.069 -1.9413  0.3350  2.2324
 2926SOL    HW211733   3.727   7.656   3.954  2.0196  1.2723 -0.1645
 2927SOL     OW11734   3.458   3.745   3.354 -0.3109 -0.1268 -0.1122
 2927SOL    HW111735   3.503   3.681   3.409 -0.2672  0.0018  0.0032
 2927SOL    HW211736   3.463   3.827   3.404 -1.1387 -0.2310  0.1480
 2928SOL     OW11737   1.390   5.116   6.875  0.0887  0.4839 -0.2380
 2928SOL    HW111738   1.339   5.189   6.839 -0.9270  0.5385  1.2515
 2928SOL    HW211739   1.426   5.073   6.797 -0.3855  1.7617 -1.2189
 2929SOL     OW11740   0.698   1.713   6.125 -0.3959  0.2649  0.1355
 2929SOL    HW111741   0.605   1.694   6.138 -0.0947 -0.9696  0.7058
 2929SOL    HW211742   0.723   1.765   6.201 -0.3827 -0.3263  0.5388
 2930SOL     OW11743   2.364   0.347   7.221 -0.2137 -0.1694  0.1571
 2930SOL    HW111744   2.381   0.334   7.314  1.6996  1.2477  0.0576
 2930SOL    HW211745   2.337   0.438   7.213 -2.2906 -0.7727 -0.5008
 2931SOL     OW11746   2.773   0.494   2.218 -0.3923  0.3686  0.2128
 2931SOL    HW111747   2.726   0.422   2.176 -0.2073  0.3643  0.0143
 2931SOL    HW211748   2.731   0.573   2.185 -0.7535  0.3489  0.6156
 2932SOL     OW11749   7.935   1.195   5.519 -0.0323 -0.5785  0.0756
 2932SOL    HW111750   7.853   1.147   5.530 -0.5146  0.5685  2.0651
 2932SOL    HW211751   8.002   1.127   5.509 -0.9857 -1.5864  0.3694
 2933SOL     OW11752   6.627   2.919   7.617 -0.6134  0.0349  0.3745
 2933SOL    HW111753   6.610   2.935   7.710 -0.4949  1.0619  0.2280
 2933SOL    HW211754   6.714   2.956   7.601 -0.8529  0.3415 -0.2558
 2934SOL     OW11755   6.451   0.679   5.432 -0.0811 -0.4284 -0.5876
 2934SOL    HW111756   6.364   0.708   5.459 -0.1458 -0.9344 -0.2180
 2934SOL    HW211757   6.497   0.664   5.515 -0.1256 -1.5512 -0.7485
 2935SOL     OW11758   3.105   6.633   4.359 -0.2558  0.1332  0.3786
 2935SOL    HW111759   3.066   6.546   4.370 -0.2781  0.1971  0.8358
 2935SOL    HW211760   3.179   6.619   4.300 -1.4948  0.1592 -1.2489
 2936SOL     OW11761   1.059   1.858   2.601  0.0051  0.3649 -0.4608
 2936SOL    HW111762   1.115   1.818   2.535 -0.0729  0.1016 -0.3665
 2936SOL    HW211763   1.018   1.784   2.646  1.0348  0.4892  0.7418
 2937SOL     OW11764   1.515   2.952   8.040  0.6542 -0.6180  0.0843
 2937SOL    HW111765   1.447   2.901   8.083  0.0885 -0.3587 -0.4764
 2937SOL    HW211766   1.503   2.934   7.947  0.7553  0.1518 -0.0858
 2938SOL     OW11767   5.782   0.225   0.171 -0.0862  0.2177 -0.4981
 2938SOL    HW111768   5.780   0.168   0.248 -0.8411 -0.6925 -1.1801
 2938SOL    HW211769   5.710   0.194   0.116  1.1181  0.1232 -2.0877
 2939SOL     OW11770   2.762   7.331   2.437  0.5419 -0.3816 -0.0909
 2939SOL    HW111771   2.689   7.276   2.409 -0.6035  1.6807 -1.4359
 2939SOL    HW211772   2.772   7.313   2.530 -2.9343  0.5359  0.5947
 2940SOL     OW11773   5.579   5.751   6.206 -0.3009 -0.4232 -0.5326
 2940SOL    HW111774   5.524   5.678   6.235 -1.6661  0.6837 -0.2261
 2940SOL    HW211775   5.616   5.786   6.286  0.4993 -0.8665 -0.6970
 2941SOL     OW11776   1.743   5.752   6.524 -1.1180  0.5526 -0.0935
 2941SOL    HW111777   1.660   5.711   6.499 -0.3197 -0.7706 -0.6994
 2941SOL    HW211778   1.798   5.679   6.552 -0.2660  1.4545  0.6293
 2942SOL     OW11779   3.556   0.726   6.765 -0.4407 -0.1063 -0.2584
 2942SOL    HW111780   3.633   0.751   6.714 -0.7897 -0.6686 -1.0848
 2942SOL    HW211781   3.548   0.795   6.831 -0.1659  0.8392 -1.1731
 2943SOL     OW11782   3.071   2.998   4.725 -0.0224 -0.5858  0.1161
 2943SOL    HW111783   3.064   3.061   4.654 -0.0270  3.1227  3.0651
 2943SOL    HW211784   3.159   3.012   4.761 -1.0856  0.0877  2.7164
 2944SOL     OW11785   5.640   3.304   2.450  0.0736  0.1302  0.2025
 2944SOL    HW111786   5.699   3.376   2.429  0.7193 -0.2222  0.7622
 2944SOL    HW211787   5.689   3.249   2.512 -1.0449  0.1540  1.1662
 2945SOL     OW11788   3.221   1.360   0.216  0.5945 -0.1030 -0.3133
 2945SOL    HW111789   3.202   1.396   0.303  0.8111 -1.3701  0.2737
 2945SOL    HW211790   3.314   1.378   0.203 -0.0547  2.8271 -1.6316
 2946SOL     OW11791   8.128   0.535   3.742 -0.0677 -0.1484 -0.3125
 2946SOL    HW111792   8.163   0.462   3.792  1.1489 -0.2180 -1.2265
 2946SOL    HW211793   8.178   0.611   3.771 -2.1191  0.6032  1.4955
 2947SOL     OW11794   7.477   1.567   7.800 -0.0021  0.6633  0.2831
 2947SOL    HW111795   7.395   1.533   7.763  0.5240  0.1242 -0.4261
 2947SOL    HW211796   7.534   1.578   7.724  1.6831 -2.0302  1.0092
 2948SOL     OW11797   4.765   3.010   3.009  0.1466 -0.2131 -0.4681
 2948SOL    HW111798   4.732   3.062   3.083  0.7871 -1.3453  0.6614
 2948SOL    HW211799   4.815   3.072   2.957 -2.0000  1.0833 -1.1097
 2949SOL     OW11800   0.490   4.427   4.660 -0.1363  0.0801 -0.0536
 2949SOL    HW111801   0.481   4.457   4.570  0.1011 -2.4859 -1.0226
 2949SOL    HW211802   0.580   4.447   4.684  0.0655 -0.0406 -0.7095
 2950SOL     OW11803   7.798   5.874   7.834  0.1706  0.0403  0.1470
 2950SOL    HW111804   7.806   5.913   7.921 -0.7012 -0.4809  0.4670
 2950SOL    HW211805   7.882   5.893   7.791  0.3662  0.8442  0.8720
 2951SOL     OW11806   5.071   7.029   3.243  0.1206  0.4304 -0.0052
 2951SOL    HW111807   5.029   6.952   3.207  2.1456 -1.1769  0.8800
 2951SOL    HW211808   5.123   6.997   3.317 -0.1325  2.8728  1.3669
 2952SOL     OW11809   6.001   4.810   3.424 -0.3266 -0.2281 -0.3288
 2952SOL    HW111810   6.019   4.837   3.514  0.0074 -1.2101 -0.0846
 2952SOL    HW211811   5.944   4.878   3.389 -1.0311 -0.1884  0.8437
 2953SOL     OW11812   3.490   5.467   7.820 -0.3987 -0.2189  0.5225
 2953SOL    HW111813   3.403   5.429   7.809 -0.8578  0.8109  0.4875
 2953SOL    HW211814   3.549   5.392   7.818 -1.2210 -0.8729 -0.1554
 2954SOL     OW11815   0.431   5.944   1.616  0.3737 -0.0220 -0.1118
 2954SOL    HW111816   0.430   5.848   1.609  0.3259 -0.1271  1.0566
 2954SOL    HW211817   0.341   5.966   1.641  0.8645  0.1212  1.6522
 2955SOL     OW11818   1.622   5.059   5.895 -0.0696  0.1845 -0.9651
 2955SOL    HW111819   1.561   5.120   5.937 -0.6192 -1.1975  0.3244
 2955SOL    HW211820   1.649   5.000   5.965 -0.6858 -1.9616 -2.4180
 2956SOL     OW11821   0.550   1.161   1.683  0.4606 -0.0342  0.3249
 2956SOL    HW111822   0.638   1.192   1.660  0.5134 -0.1309  0.3988
 2956SOL    HW211823   0.559   1.067   1.694  0.0256 -0.2943 -1.2271
 2957SOL     OW11824   0.236   0.399   5.688  0.0114 -0.2592 -0.0102
 2957SOL    HW111825   0.306   0.420   5.627  0.5143  2.8372  1.4462
 2957SOL    HW211826   0.280   0.349   5.758  0.3913  0.0807 -0.0009
 2958SOL     OW11827   2.735   0.726   4.965  0.3910  0.3122 -0.9359
 2958SOL    HW111828   2.740   0.701   4.873 -1.6343 -1.8606 -0.5387
 2958SOL    HW211829   2.701   0.815   4.964 -1.3584 -0.3314 -2.2828
 2959SOL     OW11830   5.939   3.124   6.581  0.6841 -0.0819 -1.0179
 2959SOL    HW111831   5.924   3.051   6.641 -2.4691 -0.0343 -1.5979
 2959SOL    HW211832   5.871   3.115   6.515  0.6498  2.9797 -1.5193
 2960SOL     OW11833   7.107   2.167   0.033 -0.6844 -0.0050  0.9473
 2960SOL    HW111834   7.104   2.240  -0.028 -1.0634 -0.8074 -0.0222
 2960SOL    HW211835   7.018   2.159   0.065 -0.7181 -0.2556  0.7917
 2961SOL     OW11836   0.238   6.424   7.167 -0.2361  0.0021 -0.1411
 2961SOL    HW111837   0.171   6.407   7.100 -0.4571 -1.0098  0.3155
 2961SOL    HW211838   0.289   6.343   7.170  0.2763  0.3373  0.3470
 2962SOL     OW11839   4.226   6.380   2.737 -0.2155  0.2678 -0.5011
 2962SOL    HW111840   4.180   6.464   2.734  1.2262  1.1240  0.1633
 2962SOL    HW211841   4.316   6.401   2.714  0.9799 -0.4274  2.9106
 2963SOL     OW11842   1.010   5.823   5.849 -0.1029  0.3005  0.4151
 2963SOL    HW111843   0.993   5.871   5.768  0.7125 -2.8882 -1.8747
 2963SOL    HW211844   1.088   5.864   5.887 -0.2390  1.5856 -0.6608
 2964SOL     OW11845   7.409   7.507   6.198  0.3299  0.1087 -0.4723
 2964SOL    HW111846   7.324   7.547   6.215  0.5050  0.7442 -1.0544
 2964SOL    HW211847   7.467   7.545   6.264  0.1542 -0.3936 -0.0165
 2965SOL     OW11848   2.667   6.814   1.073 -0.1869 -0.3233  0.3277
 2965SOL    HW111849   2.590   6.842   1.123 -0.0097  1.2411 -0.2374
 2965SOL    HW211850   2.643   6.727   1.040 -0.4110 -1.3054  2.8632
 2966SOL     OW11851   7.639   2.637   7.720  0.6913  0.5579 -0.2898
 2966SOL    HW111852   7.695   2.582   7.775 -0.2548 -0.6966 -0.5596
 2966SOL    HW211853   7.581   2.576   7.675 -0.4574  1.7858 -0.5281
 2967SOL     OW11854   0.797   1.992   6.905 -0.1645 -0.2139  0.5282
 2967SOL    HW111855   0.739   2.021   6.975 -0.6311 -1.8338  0.8466
 2967SOL    HW211856   0.738   1.970   6.833  0.2480  0.5169 -0.0422
 2968SOL     OW11857   2.542   2.903   2.095  0.0429 -0.7872  0.2549
 2968SOL    HW111858   2.461   2.953   2.088  0.6168 -0.0727 -3.1389
 2968SOL    HW211859   2.516   2.812   2.087 -0.4110 -0.5017 -2.0030
 2969SOL     OW11860   6.245   6.252   6.294  0.2881 -0.6010  0.0395
 2969SOL    HW111861   6.325   6.217   6.255  0.7131  0.2570  0.1233
 2969SOL    HW211862   6.178   6.186   6.274  0.9727 -1.2430 -0.1811
 2970SOL     OW11863   5.519   5.674   0.061 -0.2819 -0.1739  0.0674
 2970SOL    HW111864   5.546   5.756   0.020 -2.2149  0.2077 -0.5598
 2970SOL    HW211865   5.601   5.629   0.082  1.0031  2.8491  2.4485
 2971SOL     OW11866   2.784   6.065   1.315  0.0698  0.1108 -0.2932
 2971SOL    HW111867   2.773   6.091   1.407  0.0847 -1.9369  0.3189
 2971SOL    HW211868   2.704   6.016   1.295 -0.6922  1.9030 -1.9146
 2972SOL     OW11869   7.054   5.198   8.028 -0.0041  0.7213  0.2747
 2972SOL    HW111870   7.013   5.181   8.113  1.8980  0.8132  1.2794
 2972SOL    HW211871   7.089   5.287   8.036  0.2292  0.7181 -0.5933
 2973SOL     OW11872   6.107   3.185   8.038 -0.2476 -0.7489  0.4976
 2973SOL    HW111873   6.168   3.111   8.037  1.0953  0.2231  2.4760
 2973SOL    HW211874   6.145   3.248   7.978 -0.5999 -1.0588 -0.0612
 2974SOL     OW11875   1.796   3.241   4.661  0.0507 -0.7051  0.1253
 2974SOL    HW111876   1.869   3.292   4.695 -0.3984  0.3910 -0.4903
 2974SOL    HW211877   1.822   3.218   4.571 -2.1672  3.9385 -2.0978
 2975SOL     OW11878   1.909   3.804   6.396 -0.4657  0.0551  0.0455
 2975SOL    HW111879   1.829   3.848   6.370 -0.6094  1.1060  2.0516
 2975SOL    HW211880   1.880   3.719   6.430 -0.5324 -0.2509 -0.7566
 2976SOL     OW11881   1.917   1.421   4.347  0.5861 -0.0776 -0.0205
 2976SOL    HW111882   2.008   1.392   4.346  1.2577  1.7891  1.0374
 2976SOL    HW211883   1.906   1.462   4.433 -1.0707  0.2924 -0.3698
 2977SOL     OW11884   3.410   5.455   5.643 -0.0154 -0.3165 -0.1770
 2977SOL    HW111885   3.386   5.402   5.719 -0.1202  0.1294  0.1078
 2977SOL    HW211886   3.477   5.515   5.676  1.3033 -1.3499 -0.8931
 2978SOL     OW11887   4.635   4.694   4.311 -0.2590 -0.3670 -0.2611
 2978SOL    HW111888   4.662   4.747   4.236  0.3310 -0.0390  0.1744
 2978SOL    HW211889   4.692   4.617   4.308  2.4943  1.3670  1.9621
 2979SOL     OW11890   6.287   5.588   2.364 -0.1817 -0.3617 -0.1286
 2979SOL    HW111891   6.273   5.572   2.271 -2.4275  0.4132  0.0241
 2979SOL    HW211892   6.242   5.671   2.382 -1.7870 -1.5763  2.0420
 2980SOL     OW11893   3.887   0.990   0.819  0.4866  0.1641 -0.3464
 2980SOL    HW111894   3.889   0.901   0.853 -2.9291 -0.1623 -0.6267
 2980SOL    HW211895   3.805   0.995   0.769  0.2994  3.5518  0.0137
 2981SOL     OW11896   0.438   7.028   4.081  0.0726 -0.1344 -0.3465
 2981SOL    HW111897   0.520   7.056   4.121  0.5841 -0.7735 -0.9140
 2981SOL    HW211898   0.385   6.997   4.153  0.8210 -0.8859 -0.1012
 2982SOL     OW11899   2.238   0.523   6.930 -0.5195 -0.5694  0.7365
 2982SOL    HW111900   2.181   0.447   6.919  1.0658 -1.8359  0.8814
 2982SOL    HW211901   2.309   0.509   6.867  0.1892  0.4176  1.2906
 2983SOL     OW11902   6.239   0.151   1.334  0.2366  0.3052  0.4068
 2983SOL    HW111903   6.323   0.152   1.287  1.1750  0.0370  2.0175
 2983SOL    HW211904   6.193   0.076   1.297  0.5390  0.6650 -0.7577
 2984SOL     OW11905   2.329   3.010   7.637 -0.0801 -0.2113 -0.0754
 2984SOL    HW111906   2.404   3.038   7.584  0.1505 -2.0098 -0.7451
 2984SOL    HW211907   2.297   3.091   7.677  0.5618  0.9968 -1.8988
 2985SOL     OW11908   2.687   1.907   1.047  0.2114 -0.4615 -0.4086
 2985SOL    HW111909   2.717   1.823   1.011 -2.9921 -2.0467  0.2068
 2985SOL    HW211910   2.628   1.882   1.118  0.7204  2.4330  1.1389
 2986SOL     OW11911   6.848   3.335   0.850  0.0127  0.3427  0.1172
 2986SOL    HW111912   6.768   3.345   0.798 -0.9810  0.9735  1.6569
 2986SOL    HW211913   6.874   3.425   0.871  1.0963  0.1387 -0.2840
 2987SOL     OW11914   5.749   4.498   6.899  0.4392  0.2222  0.4154
 2987SOL    HW111915   5.753   4.504   6.995  3.1286  0.7279  0.3564
 2987SOL    HW211916   5.733   4.587   6.870 -0.0752  0.1213  0.3920
 2988SOL     OW11917   2.872   7.471   3.573 -0.3318 -0.2500 -0.1426
 2988SOL    HW111918   2.917   7.492   3.654 -1.8064  2.5319  0.0697
 2988SOL    HW211919   2.909   7.531   3.508 -3.0424  1.6642 -0.1118
 2989SOL     OW11920   6.100   1.768   5.954 -0.3727 -1.3511  0.4784
 2989SOL    HW111921   6.022   1.791   5.904  0.5865 -1.0034 -0.9438
 2989SOL    HW211922   6.090   1.676   5.974 -2.4377 -0.7205  2.7892
 2990SOL     OW11923   5.566   7.674   5.300 -0.8391  0.5352 -0.2121
 2990SOL    HW111924   5.550   7.596   5.353 -0.3733  0.0492 -0.7734
 2990SOL    HW211925   5.507   7.740   5.336 -0.8858  0.0723  0.5886
 2991SOL     OW11926   3.065   5.691   5.319 -0.0751  0.0072 -0.1749
 2991SOL    HW111927   3.066   5.598   5.339  3.4493 -0.7744 -3.0285
 2991SOL    HW211928   3.148   5.724   5.353 -0.9664  2.0125  0.1930
 2992SOL     OW11929   1.589   0.878   7.146 -0.0110  0.0910  0.5580
 2992SOL    HW111930   1.548   0.961   7.173 -2.3929 -0.1010 -2.0099
 2992SOL    HW211931   1.638   0.901   7.067  2.4625 -0.3142  1.8957
 2993SOL     OW11932   1.728   1.418   5.277 -0.5378 -0.5757 -0.0152
 2993SOL    HW111933   1.666   1.379   5.216 -1.8951  0.5689  0.5577
 2993SOL    HW211934   1.701   1.385   5.363 -1.0404  0.7153  0.3565
 2994SOL     OW11935   3.005   3.311   5.527  0.3252  0.4261  0.0790
 2994SOL    HW111936   3.010   3.404   5.551 -1.8880  0.7508 -0.4870
 2994SOL    HW211937   3.031   3.309   5.435 -0.0063  0.5356 -0.0161
 2995SOL     OW11938   6.529   1.149   1.018  0.3216  0.2045  0.2829
 2995SOL    HW111939   6.520   1.141   1.113  0.0026  0.1506  0.2514
 2995SOL    HW211940   6.578   1.071   0.992  0.1864  0.0860  0.3756
 2996SOL     OW11941   0.515   0.679   1.019 -0.1987 -0.2091  0.5789
 2996SOL    HW111942   0.531   0.725   1.102 -1.5805  0.5459  0.4415
 2996SOL    HW211943   0.525   0.745   0.952  0.4744 -0.7257  0.1581
 2997SOL     OW11944   5.380   6.367   5.886  0.0425 -0.3146  0.0363
 2997SOL    HW111945   5.384   6.288   5.833 -1.2090 -0.0674 -0.4456
 2997SOL    HW211946   5.404   6.438   5.826 -0.3456 -0.1515  0.0745
 2998SOL     OW11947   3.605   5.058   7.534 -0.0805  0.0928 -0.2485
 2998SOL    HW111948   3.697   5.033   7.528  0.0171  0.5429 -0.6748
 2998SOL    HW211949   3.601   5.146   7.496 -1.0826 -0.8935 -2.6428
 2999SOL     OW11950   7.865   7.900   5.771 -0.0355  0.6185 -0.1735
 2999SOL    HW111951   7.960   7.890   5.775  0.1600  1.6403 -1.6711
 2999SOL    HW211952   7.851   7.990   5.743 -1.5170  1.2223  2.2258
 3000SOL     OW11953   5.245   0.639   6.176  0.1943  0.3587  0.1041
 3000SOL    HW111954   5.314   0.704   6.167  0.7554 -0.4510 -1.9769
 3000SOL    HW211955   5.280   0.560   6.134 -1.7052 -0.2823 -0.3856
 3001SOL     OW11956   5.239   3.550   5.788 -0.0707 -0.5145 -0.3376
 3001SOL    HW111957   5.335   3.541   5.787 -0.0176  0.0342 -0.8350
 3001SOL    HW211958   5.225   3.637   5.826 -0.4235 -1.0864  0.8936
 3002SOL     OW11959   1.654   7.904   7.058 -0.0269 -0.2935  0.1123
 3002SOL    HW111960   1.650   7.812   7.081  1.7541 -0.5045 -0.2766
 3002SOL    HW211961   1.566   7.925   7.027 -1.0124 -1.3198  2.0766
 3003SOL     OW11962   3.391   1.403   6.253 -0.0662  0.3728 -0.3217
 3003SOL    HW111963   3.312   1.381   6.303 -0.8676  1.3674 -1.1000
 3003SOL    HW211964   3.371   1.375   6.164  0.6036  0.3188 -0.4585
 3004SOL     OW11965   1.792   2.076   7.644  0.0027 -0.1769 -0.1938
 3004SOL    HW111966   1.874   2.103   7.687  0.1714 -0.8655 -0.0726
 3004SOL    HW211967   1.723   2.109   7.702  0.1974  0.1876 -0.1642
 3005SOL     OW11968   2.600   5.998   0.912  0.0646  0.1367  0.4358
 3005SOL    HW111969   2.615   5.918   0.962  0.5133 -0.9750 -1.3764
 3005SOL    HW211970   2.519   5.981   0.865 -0.9719  1.6263  1.6002
 3006SOL     OW11971   6.789   3.135   3.966 -0.5308 -0.1383  0.1661
 3006SOL    HW111972   6.732   3.059   3.971 -0.3259 -0.2465  1.3083
 3006SOL    HW211973   6.843   3.129   4.045 -0.1548  0.9044  0.0040
 3007SOL     OW11974   2.897   2.346   2.015 -0.1764  0.4258 -0.0915
 3007SOL    HW111975   2.947   2.293   2.077  0.9254  0.2181 -1.1272
 3007SOL    HW211976   2.961   2.404   1.975 -1.1746  1.7868  0.1996
 3008SOL     OW11977   0.969   4.589   3.958 -0.1203 -0.2530 -0.0848
 3008SOL    HW111978   1.001   4.658   4.017  0.3735 -0.3867 -0.1908
 3008SOL    HW211979   0.954   4.633   3.875 -0.0998 -0.2116 -0.0664
 3009SOL     OW11980   7.958   3.666   2.712 -0.4950  0.3460  0.2409
 3009SOL    HW111981   7.883   3.717   2.681 -0.8742  0.7726  1.7886
 3009SOL    HW211982   8.034   3.712   2.676 -0.8585  1.6202  1.0257
 3010SOL     OW11983   5.683   5.028   2.285 -0.0693 -0.3049 -0.2942
 3010SOL    HW111984   5.734   4.972   2.344  1.8590 -1.5225 -2.9110
 3010SOL    HW211985   5.604   4.977   2.266 -1.1334  0.4546  1.7253
 3011SOL     OW11986   5.837   3.970   4.947 -0.4946  0.1752 -0.2486
 3011SOL    HW111987   5.884   4.033   4.893  2.0116 -1.0867  0.3405
 3011SOL    HW211988   5.793   4.025   5.013 -0.0268  1.4341 -0.9419
 3012SOL     OW11989   0.275   4.553   4.843 -0.2695  0.4585  0.0608
 3012SOL    HW111990   0.342   4.493   4.811 -0.9878 -0.6735  0.6250
 3012SOL    HW211991   0.214   4.562   4.770 -1.1021 -0.9284  0.5534
 3013SOL     OW11992   7.547   3.813   0.419  0.6169 -0.7538 -0.5114
 3013SOL    HW111993   7.561   3.885   0.358  1.7735 -1.5931 -1.2803
 3013SOL    HW211994   7.454   3.816   0.439  1.1266  3.3264  2.4990
 3014SOL     OW11995   5.405   1.176   7.178  0.3750  0.0081 -0.2323
 3014SOL    HW111996   5.441   1.239   7.241 -1.0410  0.1191  0.4929
 3014SOL    HW211997   5.352   1.230   7.119  0.8803 -0.2356 -0.9180
 3015SOL     OW11998   0.092   1.420   7.507 -0.4951 -0.3447 -0.0673
 3015SOL    HW111999   0.185   1.431   7.528 -0.2316  1.0655 -1.7035
 3015SOL    HW212000   0.084   1.328   7.483  1.2043  0.0756 -2.7351
 3016SOL     OW12001   7.718   6.603   2.290 -0.4525 -0.3861  0.3409
 3016SOL    HW112002   7.701   6.664   2.363  0.3664  1.5652 -1.0050
 3016SOL    HW212003   7.646   6.619   2.229 -0.5829 -1.2753  0.2499
 3017SOL     OW12004   2.404   7.499   5.615 -0.1444  0.4173  0.4204
 3017SOL    HW112005   2.321   7.546   5.612  0.4265  1.5355  1.3158
 3017SOL    HW212006   2.384   7.417   5.661 -0.5004  1.3108  1.9474
 3018SOL     OW12007   1.620   0.405   3.008 -0.0719  0.5961 -0.0289
 3018SOL    HW112008   1.617   0.309   3.012  0.2013  0.6018  0.3385
 3018SOL    HW212009   1.669   0.424   2.929  0.9315  0.4191  0.5379
 3019SOL     OW12010   4.385   1.386   3.309  0.1751  0.5169  0.2187
 3019SOL    HW112011   4.443   1.391   3.384 -0.0442  0.3770  0.3975
 3019SOL    HW212012   4.444   1.382   3.233  0.4542 -1.5693  0.4935
 3020SOL     OW12013   0.147   3.448   4.902  0.1906 -0.1818  0.3091
 3020SOL    HW112014   0.051   3.442   4.900  0.1840 -0.0507  0.2748
 3020SOL    HW212015   0.175   3.357   4.910  0.1305 -0.4905 -2.3126
 3021SOL     OW12016   5.200   2.204   4.433 -0.0977  0.2438  0.4840
 3021SOL    HW112017   5.262   2.189   4.361 -0.9441 -2.9048  0.2434
 3021SOL    HW212018   5.114   2.191   4.393 -0.7238  0.9551  1.5650
 3022SOL     OW12019   1.409   2.330   0.983  0.2609 -0.3491  0.4112
 3022SOL    HW112020   1.355   2.321   1.062 -0.8463 -0.3443 -0.3101
 3022SOL    HW212021   1.397   2.422   0.956  0.3262 -0.4457  0.0427
 3023SOL     OW12022   5.286   1.264   7.926  0.3074  0.2255  0.0689
 3023SOL    HW112023   5.197   1.289   7.900  0.2756  0.1563  0.1092
 3023SOL    HW212024   5.297   1.177   7.888  0.1879  0.0394  0.4578
 3024SOL     OW12025   6.572   5.775   5.068  0.1158  0.3518 -0.2264
 3024SOL    HW112026   6.658   5.784   5.027  0.2493 -0.6389 -0.1931
 3024SOL    HW212027   6.553   5.861   5.103  0.8832  0.7067 -0.6583
 3025SOL     OW12028   7.966   1.499   1.353  0.0801 -0.1108  0.3468
 3025SOL    HW112029   7.890   1.464   1.307 -1.2067  1.4834  1.1291
 3025SOL    HW212030   8.032   1.511   1.285 -0.8670 -0.1955 -0.6175
 3026SOL     OW12031   1.173   3.219   4.275 -0.5647  0.1142  0.3879
 3026SOL    HW112032   1.112   3.249   4.342 -0.2957 -0.3543  0.8504
 3026SOL    HW212033   1.246   3.181   4.324  0.0825  0.6279 -0.1595
 3027SOL     OW12034   1.195   4.962   3.336  1.0692 -0.0362 -0.6634
 3027SOL    HW112035   1.103   4.983   3.355  1.4368  0.9921  0.0645
 3027SOL    HW212036   1.211   5.001   3.250  0.7019 -0.6267 -1.0061
 3028SOL     OW12037   1.465   1.878   7.794 -0.2015  0.0870  0.2469
 3028SOL    HW112038   1.556   1.862   7.767 -0.3620 -1.4424  0.5391
 3028SOL    HW212039   1.443   1.962   7.753  1.3426  0.5048  0.1942
 3029SOL     OW12040   6.459   7.881   7.745  0.1734 -0.0025  0.5938
 3029SOL    HW112041   6.489   7.895   7.655 -0.8221 -2.6993 -0.2667
 3029SOL    HW212042   6.373   7.841   7.735  0.4905 -1.3410  2.7182
 3030SOL     OW12043   1.463   1.029   3.849 -0.2791 -0.0125  0.3286
 3030SOL    HW112044   1.395   0.976   3.806 -0.4717 -2.1274  2.9626
 3030SOL    HW212045   1.421   1.114   3.864 -0.4215  0.6069 -2.8338
 3031SOL     OW12046   2.920   2.467   2.671 -0.1513 -0.1558 -0.0428
 3031SOL    HW112047   2.971   2.548   2.665  1.6714 -1.0834  1.7339
 3031SOL    HW212048   2.868   2.465   2.590  2.6918  0.8296 -2.0398
 3032SOL     OW12049   8.043   6.942   7.450  0.1268  0.1925 -0.7337
 3032SOL    HW112050   8.085   6.961   7.534 -0.7365 -0.1572 -0.2027
 3032SOL    HW212051   8.115   6.924   7.390  0.7466  0.0892  0.0298
 3033SOL     OW12052   0.566   7.508   6.074 -0.0455  0.2183 -0.5102
 3033SOL    HW112053   0.570   7.529   5.980 -0.9481  3.0503 -0.0013
 3033SOL    HW212054   0.653   7.530   6.107  0.4538 -1.3081 -0.7184
 3034SOL     OW12055   4.877   5.677   1.007  0.0836  0.3620  0.1911
 3034SOL    HW112056   4.807   5.729   0.968 -0.1652 -0.5169 -0.5723
 3034SOL    HW212057   4.957   5.727   0.990 -0.1139  0.3379 -0.8186
 3035SOL     OW12058   4.472   2.999   0.833  0.3321  0.6487 -0.2573
 3035SOL    HW112059   4.487   2.970   0.923  0.7658 -0.1743 -0.5851
 3035SOL    HW212060   4.550   3.049   0.811  0.5556  0.2379 -0.4134
 3036SOL     OW12061   2.031   5.093   4.200  0.0338 -0.1276 -0.2441
 3036SOL    HW112062   2.122   5.122   4.198  0.1524 -0.5313 -0.8249
 3036SOL    HW212063   1.986   5.160   4.252  1.0736 -1.1575  2.1452
 3037SOL     OW12064   4.715   7.885   7.592  0.3440 -0.5220 -0.1933
 3037SOL    HW112065   4.675   7.836   7.665  0.0243 -0.2573 -0.1886
 3037SOL    HW212066   4.764   7.955   7.635  0.0098 -0.2577 -0.2342
 3038SOL     OW12067   7.600   3.905   6.937 -0.0039  0.1740 -0.0524
 3038SOL    HW112068   7.656   3.915   6.861  1.6917  2.1823  1.3362
 3038SOL    HW212069   7.653   3.937   7.010 -2.4824  0.9105  1.5636
 3039SOL     OW12070   7.854   7.979   6.381  0.0488  0.2363 -0.1372
 3039SOL    HW112071   7.904   8.034   6.322  2.5415 -2.7151 -1.0205
 3039SOL    HW212072   7.811   7.915   6.324 -0.1630 -0.6753  1.0065
 3040SOL     OW12073   4.631   7.461   2.765  0.0674 -0.3959 -0.0514
 3040SOL    HW112074   4.563   7.415   2.716 -0.9869 -0.2089  1.1720
 3040SOL    HW212075   4.671   7.394   2.821 -1.0128  0.0016  1.2404
 3041SOL     OW12076   0.637   3.686   7.859  0.9831  0.0234  0.4162
 3041SOL    HW112077   0.547   3.662   7.883  1.1485  0.6224  1.7277
 3041SOL    HW212078   0.658   3.629   7.785 -0.7016  0.3092 -0.3500
 3042SOL     OW12079   3.651   6.541   0.284 -0.6086  0.1483 -0.3321
 3042SOL    HW112080   3.688   6.622   0.250 -0.1097 -0.5585 -1.5592
 3042SOL    HW212081   3.723   6.478   0.279 -1.0390 -0.4130  0.4179
 3043SOL     OW12082   0.832   0.977   7.524  0.6321  0.0168 -0.1276
 3043SOL    HW112083   0.795   0.916   7.460  0.9161  0.4005 -0.6633
 3043SOL    HW212084   0.926   0.970   7.512  0.6713  0.4360 -0.0717
 3044SOL     OW12085   2.909   7.689   4.807 -0.4182 -0.1787 -0.2451
 3044SOL    HW112086   2.816   7.689   4.830  0.1886 -0.4981  2.5853
 3044SOL    HW212087   2.943   7.609   4.847  1.0319 -0.2793 -1.5867
 3045SOL     OW12088   1.207   1.445   7.347  0.2531  0.0463  0.0921
 3045SOL    HW112089   1.266   1.437   7.272 -1.8187 -0.0309 -1.6633
 3045SOL    HW212090   1.162   1.361   7.350 -2.6903  1.4015 -1.3827
 3046SOL     OW12091   6.655   1.947   2.940  0.1896 -1.0555  0.6942
 3046SOL    HW112092   6.691   1.894   2.870 -0.0455 -0.2615 -0.0397
 3046SOL    HW212093   6.563   1.919   2.947  0.0329 -0.6578  0.2253
 3047SOL     OW12094   5.237   3.043   7.799 -0.1739  0.5591  0.7628
 3047SOL    HW112095   5.208   3.083   7.716  0.4646 -1.6383 -0.6077
 3047SOL    HW212096   5.173   3.073   7.863 -1.2756  1.5647 -0.7219
 3048SOL     OW12097   6.067   6.170   7.098  0.2715  0.0706  0.0964
 3048SOL    HW112098   6.040   6.085   7.064  0.4331  0.3050 -0.6383
 3048SOL    HW212099   6.050   6.231   7.026 -2.0570  1.0737  1.3544
 3049SOL     OW12100   5.295   4.118   1.625  0.3980 -0.2377  0.0632
 3049SOL    HW112101   5.343   4.180   1.570 -0.1503 -0.7515 -1.0263
 3049SOL    HW212102   5.284   4.164   1.708 -0.5645  1.4042 -0.9174
 3050SOL     OW12103   1.132   5.791   7.244 -0.2834  0.4469  0.3971
 3050SOL    HW112104   1.078   5.756   7.173 -2.0641  0.5656  1.6371
 3050SOL    HW212105   1.158   5.714   7.295  0.9132  0.3736 -0.2641
 3051SOL     OW12106   3.361   7.552   3.709 -0.2015 -0.4909  0.1345
 3051SOL    HW112107   3.354   7.468   3.753  1.5783 -0.8661 -0.2241
 3051SOL    HW212108   3.449   7.553   3.671 -0.6858  0.9403 -1.0919
 3052SOL     OW12109   4.337   1.228   1.412 -0.1310  0.0804  0.3646
 3052SOL    HW112110   4.246   1.201   1.400 -0.3186  1.1220 -0.7248
 3052SOL    HW212111   4.385   1.145   1.420 -0.6995 -0.6634 -2.7125
 3053SOL     OW12112   5.842   4.735   0.302  0.1758 -0.0193  0.0986
 3053SOL    HW112113   5.759   4.784   0.303 -0.1944 -0.6182 -0.7924
 3053SOL    HW212114   5.907   4.798   0.271  0.0844  0.4771  0.8776
 3054SOL     OW12115   7.066   2.334   1.657  0.0254  0.0346  0.4391
 3054SOL    HW112116   7.061   2.366   1.566 -1.7230 -0.5007  0.3164
 3054SOL    HW212117   7.123   2.257   1.652 -0.3384 -0.1960 -0.2728
 3055SOL     OW12118   7.029   0.854   5.823 -0.0819 -0.2925  0.6137
 3055SOL    HW112119   6.956   0.909   5.853 -0.4296 -1.0538  1.1906
 3055SOL    HW212120   7.073   0.907   5.757 -1.9803 -0.3464 -0.7756
 3056SOL     OW12121   2.360   5.958   1.867 -0.1764  0.4480 -0.1450
 3056SOL    HW112122   2.337   6.024   1.802  1.4406 -0.3003 -1.5672
 3056SOL    HW212123   2.277   5.915   1.888 -0.8093  0.9930 -1.4294
 3057SOL     OW12124   2.986   5.845   0.576 -0.2346  0.0970  0.1607
 3057SOL    HW112125   2.910   5.799   0.611 -0.2720 -0.3753 -0.5276
 3057SOL    HW212126   3.033   5.876   0.653  0.4440 -2.1256  0.7001
 3058SOL     OW12127   1.179   8.056   2.613 -0.6855  1.0282 -0.7580
 3058SOL    HW112128   1.196   8.049   2.707 -0.8465 -0.9314 -0.8289
 3058SOL    HW212129   1.165   8.149   2.598 -1.5921  1.2919  1.3409
 3059SOL     OW12130   3.684   5.350   6.011  0.0344 -0.5155  0.1148
 3059SOL    HW112131   3.602   5.338   6.058  0.1868 -0.2435  0.4486
 3059SOL    HW212132   3.665   5.319   5.922 -1.0718  1.5529 -0.4158
 3060SOL     OW12133   2.630   1.086   4.396 -0.0795  0.5915 -0.0536
 3060SOL    HW112134   2.613   1.168   4.350 -0.2908  0.5722 -0.0095
 3060SOL    HW212135   2.617   1.108   4.489  0.9007  0.7762  0.0515
 3061SOL     OW12136   3.021   3.076   5.068 -0.3888  0.3765 -0.3063
 3061SOL    HW112137   3.033   3.115   4.982 -0.6984  2.2364  0.4557
 3061SOL    HW212138   3.110   3.056   5.097 -0.1895  0.8970 -0.5475
 3062SOL     OW12139   1.462   7.107   1.869  0.6601 -0.3500  0.5074
 3062SOL    HW112140   1.478   7.128   1.961 -2.5989  0.7357  0.9447
 3062SOL    HW212141   1.402   7.032   1.872 -0.8389  0.7614 -0.6361
 3063SOL     OW12142   5.428   6.104   6.123  0.4303  0.2343  0.4800
 3063SOL    HW112143   5.440   6.086   6.216 -0.9951  1.2076  0.8730
 3063SOL    HW212144   5.374   6.183   6.120 -0.6585 -0.5190 -1.1670
 3064SOL     OW12145   3.130   4.676   3.372 -0.2396 -0.0400 -0.0369
 3064SOL    HW112146   3.051   4.635   3.407  0.1127 -1.2241 -0.5749
 3064SOL    HW212147   3.115   4.770   3.381 -0.8837 -0.2733  1.6690
 3065SOL     OW12148   7.193   6.792   5.809  0.0154 -0.4806  0.3207
 3065SOL    HW112149   7.237   6.826   5.730  1.0252  0.2160  1.1447
 3065SOL    HW212150   7.100   6.792   5.787  0.3971 -2.4855 -1.6851
 3066SOL     OW12151   7.712   0.494   2.712 -0.1437 -0.1388  0.6139
 3066SOL    HW112152   7.755   0.579   2.705  0.9110 -0.7509 -0.9489
 3066SOL    HW212153   7.770   0.442   2.766  0.1655 -0.4112  0.0291
 3067SOL     OW12154   7.205   0.388   7.502 -0.0694 -0.0021  0.4686
 3067SOL    HW112155   7.137   0.455   7.490 -0.6760 -0.8589 -1.2564
 3067SOL    HW212156   7.280   0.421   7.453 -0.1649 -0.2662  0.1337
 3068SOL     OW12157   2.220   2.327   0.657  0.2300 -0.3269  0.0676
 3068SOL    HW112158   2.286   2.338   0.726  0.8753 -0.9647 -0.4359
 3068SOL    HW212159   2.258   2.263   0.597 -0.6088 -0.2756 -0.5385
 3069SOL     OW12160   6.452   0.170   6.815  0.0704 -0.8927  0.0148
 3069SOL    HW112161   6.401   0.215   6.748 -0.0411 -0.1439  0.5818
 3069SOL    HW212162   6.506   0.108   6.766  1.9224  1.4157 -1.0920
 3070SOL     OW12163   7.004   5.876   5.053 -0.7602  0.6048  0.1049
 3070SOL    HW112164   7.051   5.864   4.970  0.3013  1.6774  0.5190
 3070SOL    HW212165   7.051   5.946   5.097 -1.0654 -0.2188  1.8153
 3071SOL     OW12166   5.354   3.502   6.692 -0.2339  0.2720  0.5015
 3071SOL    HW112167   5.353   3.411   6.662 -1.1471 -0.0784  1.5309
 3071SOL    HW212168   5.350   3.553   6.611 -0.2787 -0.6065 -0.0694
 3072SOL     OW12169   4.435   4.546   5.488  0.2314 -0.1465  0.0240
 3072SOL    HW112170   4.387   4.629   5.483  1.0807  0.3155 -0.7486
 3072SOL    HW212171   4.367   4.479   5.486 -0.6633  0.5150  3.0392
 3073SOL     OW12172   3.477   1.385   6.663  0.4114  0.1441  0.1310
 3073SOL    HW112173   3.394   1.339   6.654  0.5319 -0.0435 -0.0111
 3073SOL    HW212174   3.480   1.445   6.589 -0.5055  1.5841  1.1895
 3074SOL     OW12175   2.550   0.081   6.018 -0.1113 -0.2257 -0.5269
 3074SOL    HW112176   2.486   0.152   6.015 -2.1186 -1.9586 -1.0043
 3074SOL    HW212177   2.580   0.080   6.109 -0.6840  0.6738 -0.3139
 3075SOL     OW12178   2.223   5.688   3.599 -0.0577  0.4614 -0.7921
 3075SOL    HW112179   2.150   5.630   3.619  1.9796 -1.3303  2.4090
 3075SOL    HW212180   2.267   5.646   3.525  0.7262 -1.6237  0.7540
 3076SOL     OW12181   3.609   8.047   1.366 -0.2759  0.2446  0.5773
 3076SOL    HW112182   3.578   8.013   1.283 -1.5194 -0.5984  1.3613
 3076SOL    HW212183   3.680   7.987   1.391  0.6155  0.9340 -0.1929
 3077SOL     OW12184   4.042   6.893   4.227  0.4683  0.4395 -0.2188
 3077SOL    HW112185   3.949   6.912   4.220  0.4675  0.6210  0.2197
 3077SOL    HW212186   4.050   6.803   4.196  0.6041  1.3653 -3.0791
 3078SOL     OW12187   5.869   5.922   1.551  0.5480 -0.3068  0.3274
 3078SOL    HW112188   5.955   5.928   1.509  0.6288  0.8327  0.5959
 3078SOL    HW212189   5.835   6.012   1.547 -1.0751 -0.9245 -0.6646
 3079SOL     OW12190   6.385   3.272   5.342 -0.0502  0.7206  0.6254
 3079SOL    HW112191   6.393   3.323   5.261  1.0533  0.6567  0.6848
 3079SOL    HW212192   6.473   3.270   5.378 -0.1062 -0.9967  0.7662
 3080SOL     OW12193   2.083   3.024   1.802 -0.0733  0.1815  0.5046
 3080SOL    HW112194   2.092   3.063   1.888  1.0209 -1.7014  1.3057
 3080SOL    HW212195   2.172   3.001   1.776  0.0896  3.2703 -2.4910
 3081SOL     OW12196   4.294   6.317   0.019  0.0261 -0.2533 -0.0297
 3081SOL    HW112197   4.231   6.387   0.004 -0.1242 -0.4766 -0.4532
 3081SOL    HW212198   4.373   6.362   0.047  0.3345  0.1956 -1.5314
 3082SOL     OW12199   6.805   0.387   7.901  0.6308 -0.2849 -0.2978
 3082SOL    HW112200   6.851   0.396   7.985  1.0624  0.7664 -0.6285
 3082SOL    HW212201   6.840   0.307   7.862  1.0065 -0.3505  0.1693
 3083SOL     OW12202   6.192   2.537   7.263  0.2758 -0.4993  0.0982
 3083SOL    HW112203   6.265   2.565   7.207 -0.9100  0.9698 -0.7935
 3083SOL    HW212204   6.200   2.591   7.341  0.0555 -0.2124 -0.0753
 3084SOL     OW12205   6.443   6.660   4.088  0.3760 -0.4996  0.0647
 3084SOL    HW112206   6.353   6.647   4.119 -0.1128  1.1417 -0.5490
 3084SOL    HW212207   6.478   6.572   4.078 -1.1588 -1.1714  0.3319
 3085SOL     OW12208   2.294   7.955   7.666  0.1801  0.3359  0.2912
 3085SOL    HW112209   2.308   8.040   7.624 -0.1264  0.8907  1.2775
 3085SOL    HW212210   2.333   7.965   7.754 -1.2026 -0.0210  0.9673
 3086SOL     OW12211   7.116   2.305   7.912 -0.2433  0.2427  0.0465
 3086SOL    HW112212   7.167   2.382   7.940  0.4772  0.1733 -1.0330
 3086SOL    HW212213   7.049   2.341   7.853 -2.4793  0.5414  2.5553
 3087SOL     OW12214   1.086   4.657   1.389 -0.0279 -0.5587 -0.1558
 3087SOL    HW112215   1.011   4.694   1.436  1.8804  0.4046  2.4114
 3087SOL    HW212216   1.077   4.562   1.402  0.4634 -0.3258  2.3960
 3088SOL     OW12217   7.542   5.085   3.752  0.0599  0.0079 -0.1102
 3088SOL    HW112218   7.483   5.146   3.707 -1.3665 -1.4677 -0.3378
 3088SOL    HW212219   7.609   5.064   3.687 -0.4139  0.0347 -0.6148
 3089SOL     OW12220   1.120   4.170   0.786  0.3502 -0.4664  0.3142
 3089SOL    HW112221   1.190   4.130   0.735 -0.3029 -1.7812  0.4099
 3089SOL    HW212222   1.162   4.241   0.834  0.8700  1.3813 -2.6214
 3090SOL     OW12223   0.653   5.462   8.078  0.3222  0.6575  0.2001
 3090SOL    HW112224   0.640   5.367   8.077  0.3700  0.5885  2.5122
 3090SOL    HW212225   0.658   5.486   7.985 -2.1953 -1.2260 -0.5098
 3091SOL     OW12226   3.694   1.495   6.043  0.1525 -0.8476  0.6532
 3091SOL    HW112227   3.788   1.514   6.034  0.1366 -0.6273  0.9614
 3091SOL    HW212228   3.661   1.501   5.953  0.2372  0.1178  0.6683
 3092SOL     OW12229   7.691   0.422   3.400 -0.5371 -0.6784 -0.5444
 3092SOL    HW112230   7.688   0.517   3.407  0.1422 -0.6022 -1.2258
 3092SOL    HW212231   7.778   0.403   3.365  0.3392 -1.6961  1.9201
 3093SOL     OW12232   2.156   2.386   1.232  0.9902  0.0150  0.0151
 3093SOL    HW112233   2.166   2.291   1.240  0.0260 -0.0832  0.1021
 3093SOL    HW212234   2.221   2.422   1.293 -1.7719 -0.6680  3.7265
 3094SOL     OW12235   4.768   0.826   1.237  0.0484 -0.3268  0.3968
 3094SOL    HW112236   4.852   0.782   1.249 -0.0257 -0.0408  2.1124
 3094SOL    HW212237   4.706   0.754   1.221  0.4045 -0.6321  0.3588
 3095SOL     OW12238   8.123   7.767   3.261  0.0119  0.4780  0.0657
 3095SOL    HW112239   8.175   7.716   3.199  1.5399 -0.1137  1.7426
 3095SOL    HW212240   8.033   7.740   3.245  0.7408 -3.1061  1.0773
 3096SOL     OW12241   0.963   0.904   7.021 -0.0008 -0.2745 -0.5037
 3096SOL    HW112242   0.875   0.866   7.033 -1.0902  1.2698 -2.8884
 3096SOL    HW212243   0.985   0.885   6.930 -0.2706  3.8790 -1.6242
 3097SOL     OW12244   6.058   0.430   6.413  0.0671  0.0817  0.1935
 3097SOL    HW112245   6.067   0.337   6.432  1.3860  0.6058  2.4749
 3097SOL    HW212246   5.965   0.449   6.425 -0.0965 -0.8022  0.3485
 3098SOL     OW12247   6.629   6.967   7.638  0.2192 -0.4276 -0.1813
 3098SOL    HW112248   6.673   7.050   7.654 -0.8879 -0.1145  1.4800
 3098SOL    HW212249   6.675   6.904   7.694  0.6801 -0.8259 -0.9911
 3099SOL     OW12250   2.099   5.827   0.504  0.3921  1.0168  0.1719
 3099SOL    HW112251   2.134   5.911   0.476  0.9329  0.9216  0.5599
 3099SOL    HW212252   2.043   5.799   0.431  0.9368  1.2745 -0.3575
 3100SOL     OW12253   6.344   0.176   2.786 -0.0521 -0.1319 -0.8380
 3100SOL    HW112254   6.286   0.128   2.845  0.9695 -1.2758 -0.7348
 3100SOL    HW212255   6.287   0.204   2.714 -1.1240  0.4971  0.2079
 3101SOL     OW12256   0.753   2.450   0.684  0.1300 -0.1009 -0.0489
 3101SOL    HW112257   0.657   2.443   0.683  0.1367 -0.1216 -0.9535
 3101SOL    HW212258   0.780   2.388   0.752 -0.4373 -0.9708 -0.5811
 3102SOL     OW12259   2.592   0.175   2.314 -0.2277  0.0053 -0.6604
 3102SOL    HW112260   2.529   0.227   2.364  1.7255  1.3550  0.5294
 3102SOL    HW212261   2.615   0.230   2.239 -0.5639 -0.5344 -1.1608
 3103SOL     OW12262   1.391   1.413   4.045  0.9061 -0.0829  0.6621
 3103SOL    HW112263   1.329   1.345   4.018 -1.0771  1.4198  1.2050
 3103SOL    HW212264   1.476   1.368   4.047 -0.2188 -2.3800  0.4490
 3104SOL     OW12265   6.826   3.808   2.298 -0.6962  0.1187  0.2026
 3104SOL    HW112266   6.876   3.766   2.368 -1.3829  0.4837  0.9257
 3104SOL    HW212267   6.884   3.804   2.222 -0.1220 -0.7066  0.6622
 3105SOL     OW12268   3.757   5.030   2.991  0.4391  0.2402 -0.4876
 3105SOL    HW112269   3.830   4.973   3.014 -1.0480 -1.2876  0.7601
 3105SOL    HW212270   3.690   4.970   2.957 -0.2362  1.5899 -1.6198
 3106SOL     OW12271   0.161   1.379   7.198 -0.5637 -0.6583  0.3511
 3106SOL    HW112272   0.147   1.286   7.179 -0.8034 -0.9403  1.7687
 3106SOL    HW212273   0.075   1.419   7.189 -0.4284 -0.5372 -0.4268
 3107SOL     OW12274   5.407   3.894   5.670  0.2343 -0.2866 -0.0866
 3107SOL    HW112275   5.483   3.836   5.672 -0.7012 -1.5425  1.3255
 3107SOL    HW212276   5.431   3.964   5.609  1.4802 -2.0519 -1.6950
 3108SOL     OW12277   0.731   3.833   5.571  0.0500 -0.0259 -0.1530
 3108SOL    HW112278   0.769   3.920   5.587 -1.3469  0.7039 -0.6526
 3108SOL    HW212279   0.739   3.820   5.477  1.8070 -1.2301  0.1031
 3109SOL     OW12280   0.737   2.624   4.704  0.0846  0.5336 -0.3948
 3109SOL    HW112281   0.717   2.558   4.637 -0.9955  0.3522  0.0890
 3109SOL    HW212282   0.655   2.672   4.715 -0.4201 -0.7676  2.2575
 3110SOL     OW12283   1.260   1.215   7.074 -0.6871 -0.3330  0.3269
 3110SOL    HW112284   1.300   1.186   6.992  0.6969  1.9225  0.1353
 3110SOL    HW212285   1.167   1.222   7.053 -0.6306 -1.5390 -0.4743
 3111SOL     OW12286   4.208   6.429   6.284  0.0407 -0.8819 -0.3756
 3111SOL    HW112287   4.295   6.389   6.281  0.7902  0.5383  1.0476
 3111SOL    HW212288   4.161   6.381   6.351  0.5079 -0.2469  0.4269
 3112SOL     OW12289   3.765   8.064   1.985  0.1053 -0.0132  0.2011
 3112SOL    HW112290   3.683   8.087   1.940  0.3524 -0.2429 -0.3708
 3112SOL    HW212291   3.760   7.969   1.996  0.1678  0.0090  0.4309
 3113SOL     OW12292   2.980   2.318   3.189 -0.0858 -0.2654  0.3096
 3113SOL    HW112293   2.947   2.245   3.137  0.4747 -0.5385  0.3378
 3113SOL    HW212294   3.039   2.279   3.252 -0.7601  0.0654  1.1687
 3114SOL     OW12295   7.490   3.775   1.487 -0.6215  0.5945 -0.1953
 3114SOL    HW112296   7.426   3.832   1.529  2.0068  2.0578  2.1653
 3114SOL    HW212297   7.476   3.689   1.526 -0.2606  1.2320  1.3828
 3115SOL     OW12298   5.876   1.401   7.828 -0.1198 -0.5374  0.4702
 3115SOL    HW112299   5.832   1.473   7.874  0.7248 -0.7708  1.7067
 3115SOL    HW212300   5.828   1.323   7.854  1.4810 -0.9173  2.5933
 3116SOL     OW12301   2.897   7.805   2.527  0.0109  0.3320  1.1527
 3116SOL    HW112302   2.886   7.860   2.450 -1.9797  2.0363  2.5695
 3116SOL    HW212303   2.815   7.756   2.533  1.6902 -2.9571 -0.0401
 3117SOL     OW12304   4.432   3.075   7.568 -0.5198  0.3649  0.4759
 3117SOL    HW112305   4.486   3.015   7.618 -0.6482 -0.0345  0.1358
 3117SOL    HW212306   4.494   3.123   7.513 -0.6760 -1.8777 -1.8426
 3118SOL     OW12307   1.889   0.550   0.718 -0.1499 -0.3534 -0.4915
 3118SOL    HW112308   1.861   0.538   0.627  0.8847  0.4453 -0.9482
 3118SOL    HW212309   1.842   0.483   0.768  0.4236 -1.8258 -1.8437
 3119SOL     OW12310   2.571   7.254   3.989  0.2512  0.4443 -0.0093
 3119SOL    HW112311   2.624   7.276   3.912  0.3081  0.1283 -0.0581
 3119SOL    HW212312   2.608   7.172   4.022 -0.5213 -0.0424 -0.3326
 3120SOL     OW12313   2.723   1.305   3.567 -0.5093 -0.1209 -0.3230
 3120SOL    HW112314   2.710   1.385   3.618  0.8539  0.3010 -0.6186
 3120SOL    HW212315   2.685   1.236   3.621  1.2747  0.2463  1.5017
 3121SOL     OW12316   5.221   7.378   8.001  0.1027 -0.2462 -0.3224
 3121SOL    HW112317   5.299   7.432   7.990 -0.4686  0.4728 -1.0466
 3121SOL    HW212318   5.189   7.364   7.912  0.1564 -1.6881 -0.1329
 3122SOL     OW12319   4.869   7.518   4.215  0.5556 -0.4341  0.6497
 3122SOL    HW112320   4.839   7.513   4.125 -0.2140 -0.3614  0.9013
 3122SOL    HW212321   4.906   7.431   4.233 -2.1718 -1.5480  1.2649
 3123SOL     OW12322   0.462   5.002   7.162  0.0362  0.0753  0.2869
 3123SOL    HW112323   0.388   5.025   7.105 -0.5191  0.1045  1.0039
 3123SOL    HW212324   0.493   5.086   7.196 -0.2248 -0.0127  0.7472
 3124SOL     OW12325   3.006   7.969   4.422  0.2339 -0.1772  0.1498
 3124SOL    HW112326   3.051   8.041   4.467 -0.1327 -0.1471  0.4777
 3124SOL    HW212327   2.990   8.001   4.334  2.0677 -0.6808 -0.4226
 3125SOL     OW12328   7.126   0.616   3.395  0.3986 -0.1297 -0.2589
 3125SOL    HW112329   7.211   0.631   3.353  0.3212  1.7471  0.1672
 3125SOL    HW212330   7.079   0.560   3.334  1.1391  0.6187 -1.5752
 3126SOL     OW12331   2.229   2.735   5.243  0.4452 -0.4392 -0.1968
 3126SOL    HW112332   2.310   2.694   5.273  1.8639  0.8417 -1.9987
 3126SOL    HW212333   2.206   2.688   5.163  0.1244  0.0016 -0.3716
 3127SOL     OW12334   6.939   2.115   4.721 -0.3259  0.7993  0.2546
 3127SOL    HW112335   6.981   2.055   4.783  2.0108 -0.5614 -2.4065
 3127SOL    HW212336   6.943   2.200   4.764  0.9038 -0.1139  2.1108
 3128SOL     OW12337   5.242   7.740   0.408  0.0936 -0.8931  0.6071
 3128SOL    HW112338   5.330   7.764   0.379 -0.1139 -0.5613  0.2453
 3128SOL    HW212339   5.206   7.689   0.335 -0.6566  0.4613 -0.0049
 3129SOL     OW12340   0.928   3.215   0.860 -0.0385  0.0701  0.0268
 3129SOL    HW112341   0.911   3.304   0.889 -0.0422 -0.1050  0.5765
 3129SOL    HW212342   0.936   3.222   0.765  1.8119  0.9561  0.2165
 3130SOL     OW12343   7.862   2.615   0.395 -0.7475  0.6085 -0.1003
 3130SOL    HW112344   7.789   2.672   0.371 -1.4005  0.3809  1.2449
 3130SOL    HW212345   7.929   2.632   0.329 -1.3879  2.0437 -0.4058
 3131SOL     OW12346   5.411   3.812   6.196 -0.1319 -0.2737 -0.0156
 3131SOL    HW112347   5.399   3.725   6.234  1.7469 -1.0765 -1.1421
 3131SOL    HW212348   5.483   3.802   6.135 -2.3419  1.1926 -3.1297
 3132SOL     OW12349   0.887   1.004   5.424  0.4203 -0.2039  0.9087
 3132SOL    HW112350   0.862   1.074   5.363 -0.9254 -1.0953  0.3948
 3132SOL    HW212351   0.941   1.048   5.489  0.4367  1.1241  0.0480
 3133SOL     OW12352   2.997   0.554   1.058 -0.0440 -0.1301 -0.3307
 3133SOL    HW112353   3.053   0.621   1.098  1.8211 -0.5792 -2.0841
 3133SOL    HW212354   2.909   0.593   1.061  0.3949  0.8910  1.8249
 3134SOL     OW12355   6.964   4.411   4.762  0.8108 -0.4079 -0.0691
 3134SOL    HW112356   7.042   4.460   4.789 -0.3677  1.7054 -0.2920
 3134SOL    HW212357   6.918   4.470   4.703 -1.2140 -1.4086  0.4427
 3135SOL     OW12358   4.856   4.036   6.081  0.1900  0.3484 -0.4534
 3135SOL    HW112359   4.944   3.998   6.080 -0.1634 -0.5714  0.5521
 3135SOL    HW212360   4.798   3.961   6.067 -0.4720  0.7873 -0.1250
 3136SOL     OW12361   6.330   1.010   6.581 -0.0838 -0.4220  0.9089
 3136SOL    HW112362   6.249   1.059   6.595  0.9950  3.5874 -3.8526
 3136SOL    HW212363   6.302   0.924   6.551 -2.3696 -0.3615  2.6095
 3137SOL     OW12364   1.225   4.901   2.184  0.3915  0.1379 -0.5456
 3137SOL    HW112365   1.200   4.818   2.144 -2.2913  0.5745  0.0711
 3137SOL    HW212366   1.198   4.893   2.275  3.2524  0.4754  0.4547
 3138SOL     OW12367   7.880   1.293   7.006 -0.0798 -0.3553 -0.5098
 3138SOL    HW112368   7.890   1.244   6.925  2.7344 -1.2918  0.3116
 3138SOL    HW212369   7.917   1.237   7.074 -0.4264  1.2750  1.1178
 3139SOL     OW12370   3.396   5.137   7.158 -0.7150  0.2828 -0.7229
 3139SOL    HW112371   3.456   5.178   7.096 -0.2916  0.8168  0.0159
 3139SOL    HW212372   3.338   5.084   7.104 -1.0346  1.5453 -1.6893
 3140SOL     OW12373   4.625   2.606   3.890 -0.6376 -0.3803  0.0375
 3140SOL    HW112374   4.656   2.682   3.940 -0.2511 -0.8687  0.5502
 3140SOL    HW212375   4.622   2.637   3.799 -2.4534  0.8960  0.4511
 3141SOL     OW12376   0.822   1.117   2.419  0.0019 -0.3500  0.2192
 3141SOL    HW112377   0.757   1.129   2.350 -0.1714  0.5432  0.5284
 3141SOL    HW212378   0.905   1.139   2.377  0.0769 -1.1728 -0.0841
 3142SOL     OW12379   7.854   5.071   7.506 -0.6486 -0.7766  0.2973
 3142SOL    HW112380   7.765   5.093   7.478  0.0967 -1.0596 -2.6550
 3142SOL    HW212381   7.851   4.976   7.522 -0.4734 -1.1777 -1.8099
 3143SOL     OW12382   5.154   3.159   2.627 -0.6372 -0.1843 -0.2632
 3143SOL    HW112383   5.148   3.126   2.538  1.9185 -2.0431  0.1391
 3143SOL    HW212384   5.242   3.197   2.633 -0.0520 -1.6552  1.8712
 3144SOL     OW12385   8.130   0.103   7.352 -0.2805  0.6130  0.4842
 3144SOL    HW112386   8.197   0.045   7.317 -0.6584 -1.6834  3.1676
 3144SOL    HW212387   8.178   0.181   7.380  0.6100  0.6671 -1.0923
 3145SOL     OW12388   3.341   7.105   7.514  0.1435  0.3455 -0.2551
 3145SOL    HW112389   3.364   7.181   7.461 -0.4340  1.7833  1.4830
 3145SOL    HW212390   3.250   7.086   7.492 -0.5135  1.7527  1.1020
 3146SOL     OW12391   7.487   1.618   5.633 -0.2092 -0.0385  0.1453
 3146SOL    HW112392   7.582   1.610   5.644 -0.3571 -2.2426  0.2732
 3146SOL    HW212393   7.462   1.688   5.693  1.2344  0.0194  0.7220
 3147SOL     OW12394   3.248   3.359   2.973 -0.8216  0.6684  0.0396
 3147SOL    HW112395   3.339   3.381   2.996 -0.5008  1.6565 -1.9584
 3147SOL    HW212396   3.250   3.265   2.955 -0.3021  0.5997  0.4260
 3148SOL     OW12397   0.278   5.132   1.585 -0.4483 -0.5592  0.3618
 3148SOL    HW112398   0.192   5.134   1.542  0.2030 -0.3828 -0.9660
 3148SOL    HW212399   0.263   5.080   1.664 -2.3591  1.4979  1.4674
 3149SOL     OW12400   2.860   7.699   1.074  0.6151  0.6868 -0.1362
 3149SOL    HW112401   2.890   7.620   1.028 -0.4120 -0.5071  1.1585
 3149SOL    HW212402   2.884   7.685   1.165 -0.3720  1.4702  0.2645
 3150SOL     OW12403   3.734   0.377   2.371 -0.6600  0.3519 -0.2947
 3150SOL    HW112404   3.682   0.341   2.443  0.1627 -3.8371 -1.5240
 3150SOL    HW212405   3.822   0.388   2.409 -0.5437 -0.5718 -0.2675
 3151SOL     OW12406   1.464   2.849   2.435  0.1607  0.4280 -0.0783
 3151SOL    HW112407   1.412   2.886   2.363  1.6119 -0.8003 -1.8311
 3151SOL    HW212408   1.539   2.808   2.392  0.4726 -1.4131  2.0550
 3152SOL     OW12409   7.085   7.189   1.639  0.4232  0.0553  0.5771
 3152SOL    HW112410   7.160   7.134   1.661  0.6293  0.4555  0.8958
 3152SOL    HW212411   7.017   7.127   1.612  0.3488 -0.4353  1.8200
 3153SOL     OW12412   3.836   0.522   1.162  0.2025  0.2273 -0.1586
 3153SOL    HW112413   3.764   0.473   1.199 -0.6897  2.2799  0.9752
 3153SOL    HW212414   3.832   0.503   1.068 -0.7885 -0.9330  0.0917
 3154SOL     OW12415   0.411   2.765   1.409 -0.0688 -0.2227 -0.5171
 3154SOL    HW112416   0.427   2.844   1.460  0.7467 -0.0492 -1.0137
 3154SOL    HW212417   0.488   2.758   1.352 -1.2780  0.0027 -2.2590
 3155SOL     OW12418   6.814   7.992   0.586 -0.2088 -0.3706 -0.7282
 3155SOL    HW112419   6.768   7.966   0.507  0.0823 -1.9203 -0.4123
 3155SOL    HW212420   6.745   7.999   0.652 -0.4246  0.7278 -1.0520
 3156SOL     OW12421   2.891   3.200   6.084  0.1753 -0.6053  0.1544
 3156SOL    HW112422   2.929   3.119   6.118 -2.7553 -1.5024  1.5946
 3156SOL    HW212423   2.926   3.207   5.995 -0.0972 -3.9355 -0.3525
 3157SOL     OW12424   7.564   0.952   0.659 -0.0836  0.2926  0.3200
 3157SOL    HW112425   7.649   0.932   0.619 -0.7237 -0.1336 -0.8703
 3157SOL    HW212426   7.521   0.867   0.670 -1.2299  0.6466 -1.1255
 3158SOL     OW12427   3.087   2.059   7.646 -0.2162  0.0691 -0.0945
 3158SOL    HW112428   3.025   1.998   7.607 -0.2245  0.1899 -0.2731
 3158SOL    HW212429   3.159   2.004   7.677  0.6114  0.1096 -1.8485
 3159SOL     OW12430   0.369   1.866   6.051 -0.8219 -0.1128  0.1298
 3159SOL    HW112431   0.386   1.772   6.055 -1.7774 -0.2903  0.1884
 3159SOL    HW212432   0.362   1.893   6.143 -0.4337  0.0434  0.1168
 3160SOL     OW12433   1.900   7.601   1.820  0.5586 -0.1142 -0.7831
 3160SOL    HW112434   1.963   7.657   1.866 -0.5714 -0.5953  1.4891
 3160SOL    HW212435   1.828   7.661   1.797 -0.7934 -0.5679  1.9250
 3161SOL     OW12436   5.862   6.900   1.028  0.4005 -0.3905  0.1218
 3161SOL    HW112437   5.939   6.876   1.079  0.2671 -0.8124  0.1299
 3161SOL    HW212438   5.793   6.915   1.093 -0.4288 -3.2257  0.0328
 3162SOL     OW12439   2.589   5.347   3.580  0.4320  0.2588  0.2656
 3162SOL    HW112440   2.640   5.423   3.552  0.6320 -0.6250 -2.0498
 3162SOL    HW212441   2.639   5.309   3.652  1.9303  0.6595 -0.5115
 3163SOL     OW12442   2.158   4.673   6.402 -0.0794  0.3778 -0.6076
 3163SOL    HW112443   2.116   4.700   6.320  0.8325  1.1068 -0.8516
 3163SOL    HW212444   2.236   4.728   6.408  0.7310 -0.7984 -0.0519
 3164SOL     OW12445   6.197   3.732   4.207 -0.8949  0.0309  0.2821
 3164SOL    HW112446   6.149   3.749   4.126 -0.8985  0.3622  0.3538
 3164SOL    HW212447   6.155   3.655   4.244 -0.8795 -0.1332 -0.0430
 3165SOL     OW12448   4.620   2.364   3.051  0.2413  0.0250  0.1233
 3165SOL    HW112449   4.563   2.405   2.986  0.0237  0.2939  0.4772
 3165SOL    HW212450   4.560   2.318   3.109  0.1275  2.1346  1.8159
 3166SOL     OW12451   0.465   4.182   7.636  0.5675 -0.2396 -0.3430
 3166SOL    HW112452   0.408   4.255   7.660 -0.7036 -1.1581 -0.5095
 3166SOL    HW212453   0.438   4.158   7.548  0.5785 -1.2825 -0.0762
 3167SOL     OW12454   3.151   4.123   1.636 -0.0775 -0.5190  0.5027
 3167SOL    HW112455   3.130   4.029   1.637 -0.1431 -0.5691 -1.3067
 3167SOL    HW212456   3.096   4.158   1.565 -2.7606  1.5946  3.3668
 3168SOL     OW12457   6.280   4.509   6.265 -0.0740 -0.1289 -0.2184
 3168SOL    HW112458   6.271   4.536   6.356  2.2235 -0.2256  0.1018
 3168SOL    HW212459   6.249   4.585   6.215 -0.5628  0.2506  0.6285
 3169SOL     OW12460   5.916   6.387   5.854  0.3369  0.3896 -0.0633
 3169SOL    HW112461   5.906   6.297   5.825  1.3607  0.1111  0.3904
 3169SOL    HW212462   5.933   6.437   5.774 -0.0740  0.1623 -0.2952
 3170SOL     OW12463   6.296   5.479   7.653  0.7861  0.3932 -0.5919
 3170SOL    HW112464   6.291   5.390   7.689 -1.2944  0.7567  0.1446
 3170SOL    HW212465   6.381   5.512   7.684  0.5263 -0.4856  1.2007
 3171SOL     OW12466   2.261   4.717   4.224 -0.2126  0.2898  0.3197
 3171SOL    HW112467   2.215   4.797   4.250  0.4272  1.1214 -0.9932
 3171SOL    HW212468   2.282   4.673   4.307  1.1239  2.4623  1.2307
 3172SOL     OW12469   0.861   4.815   4.642 -0.5418  0.3248  0.8043
 3172SOL    HW112470   0.792   4.861   4.594 -1.2431  0.6457  2.0595
 3172SOL    HW212471   0.832   4.817   4.733 -0.1901 -1.9232  1.0276
 3173SOL     OW12472   1.015   5.280   5.308  0.0123  0.3055 -0.5458
 3173SOL    HW112473   0.927   5.316   5.298  0.2865  1.2211  0.1105
 3173SOL    HW212474   1.007   5.216   5.379 -0.0485  0.7145 -0.1748
 3174SOL     OW12475   1.259   6.215   7.872  0.3147  0.1382  0.1176
 3174SOL    HW112476   1.312   6.136   7.860 -1.2272 -0.7148 -1.6046
 3174SOL    HW212477   1.283   6.271   7.798 -1.4510 -0.4851 -1.0063
 3175SOL     OW12478   8.037   8.014   4.870  0.6835  0.5398 -0.2496
 3175SOL    HW112479   7.962   8.003   4.811  0.1307  1.5404  0.2381
 3175SOL    HW212480   8.086   7.932   4.862  0.0190  0.2223 -1.2523
 3176SOL     OW12481   0.452   5.224   2.909 -0.1060 -0.5817  0.0479
 3176SOL    HW112482   0.514   5.286   2.949 -1.9569  0.2726  1.7542
 3176SOL    HW212483   0.473   5.140   2.950 -0.8472 -0.0435  1.6307
 3177SOL     OW12484   0.568   4.898   5.409 -0.4180 -0.2018  0.3556
 3177SOL    HW112485   0.626   4.971   5.433 -1.2058  0.4880  0.2293
 3177SOL    HW212486   0.626   4.824   5.395  0.3966  0.3807  0.6028
 3178SOL     OW12487   0.143   1.202   2.769 -0.6582 -0.1398  0.6561
 3178SOL    HW112488   0.131   1.230   2.678  0.2684  1.4547  0.9834
 3178SOL    HW212489   0.236   1.178   2.774 -0.3474  1.1338  1.4868
 3179SOL     OW12490   0.173   3.209   0.079  0.2645 -0.4969  0.1660
 3179SOL    HW112491   0.225   3.129   0.090  2.1145  0.6168 -0.1895
 3179SOL    HW212492   0.159   3.240   0.169  0.1480 -0.8332  0.2667
 3180SOL     OW12493   2.424   6.930   7.659 -0.4311 -0.0229 -0.5488
 3180SOL    HW112494   2.384   6.894   7.738  0.3196 -1.1495 -0.6555
 3180SOL    HW212495   2.507   6.967   7.689 -0.3869  0.0200 -0.7233
 3181SOL     OW12496   6.314   6.750   7.709 -0.1024 -0.2539  0.1129
 3181SOL    HW112497   6.344   6.720   7.795 -0.6331  0.9410  0.7406
 3181SOL    HW212498   6.241   6.809   7.728  0.8532  1.4047 -1.0183
 3182SOL     OW12499   2.438   2.898   1.517 -0.0638 -0.0349 -0.1810
 3182SOL    HW112500   2.365   2.946   1.477  0.6892  0.6585 -0.7499
 3182SOL    HW212501   2.515   2.924   1.465  0.7971  0.2168  1.1765
 3183SOL     OW12502   7.757   6.365   0.198 -0.8856 -0.7192 -0.7061
 3183SOL    HW112503   7.784   6.388   0.109 -0.7679  0.2710 -0.4254
 3183SOL    HW212504   7.808   6.423   0.254 -2.2141 -0.1174 -0.0767
 3184SOL     OW12505   3.204   7.069   1.043  0.6761  0.0211 -0.0971
 3184SOL    HW112506   3.138   7.007   1.012  1.2530 -0.5088 -0.3056
 3184SOL    HW212507   3.286   7.019   1.041  1.0989  0.6945  0.0568
 3185SOL     OW12508   2.535   7.069   5.660  0.1315 -0.2270  0.2959
 3185SOL    HW112509   2.496   7.149   5.696  1.5515  1.2293 -1.2193
 3185SOL    HW212510   2.601   7.100   5.598  1.4819 -2.5919  0.4293
 3186SOL     OW12511   0.170   2.813   1.243  0.4103  0.1336  0.6282
 3186SOL    HW112512   0.090   2.770   1.274 -0.5680  1.1473 -0.4312
 3186SOL    HW212513   0.238   2.779   1.301 -0.4530 -2.1493  0.4120
 3187SOL     OW12514   1.505   5.195   0.079  0.3930  0.5074 -0.5854
 3187SOL    HW112515   1.567   5.268   0.073  1.4290 -0.2643  0.2361
 3187SOL    HW212516   1.430   5.223   0.027  1.1448  1.7666 -1.0471
 3188SOL     OW12517   5.217   5.329   4.764 -0.3755  0.6762 -0.4754
 3188SOL    HW112518   5.212   5.364   4.853 -1.8236 -0.6998  0.0274
 3188SOL    HW212519   5.194   5.403   4.708 -0.4957  1.2848  0.3544
 3189SOL     OW12520   2.269   3.737   2.045 -0.9145  0.0640  0.2803
 3189SOL    HW112521   2.192   3.680   2.043 -1.3295  0.6321 -0.2792
 3189SOL    HW212522   2.327   3.703   1.977 -0.8897 -0.0663  0.3673
 3190SOL     OW12523   0.692   1.769   7.968  0.2033 -0.0760  0.1680
 3190SOL    HW112524   0.763   1.705   7.963  1.9718  1.8405 -0.6161
 3190SOL    HW212525   0.648   1.763   7.883  0.6153  0.0075 -0.0532
 3191SOL     OW12526   7.727   7.205   7.894  0.3640  1.1001  0.0419
 3191SOL    HW112527   7.763   7.118   7.877 -1.8143  0.2558 -0.6242
 3191SOL    HW212528   7.764   7.260   7.825 -1.6437 -0.3594 -2.3850
 3192SOL     OW12529   1.073   6.154   7.458 -0.1919 -0.0211  0.3080
 3192SOL    HW112530   1.168   6.150   7.468 -0.2324 -0.9904  0.4313
 3192SOL    HW212531   1.051   6.246   7.474  0.6473  0.0791  0.9632
 3193SOL     OW12532   7.392   7.760   3.769  0.5458  0.0825  0.6439
 3193SOL    HW112533   7.308   7.789   3.805 -0.0246 -1.0747  0.2856
 3193SOL    HW212534   7.435   7.841   3.741 -1.3057  0.5695 -1.0061
 3194SOL     OW12535   2.811   7.219   5.154  0.5017  0.1666  0.1712
 3194SOL    HW112536   2.851   7.141   5.193  1.3465  1.1690  1.4009
 3194SOL    HW212537   2.824   7.207   5.060  1.3301 -0.7991  0.3810
 3195SOL     OW12538   1.836   7.278   1.447 -0.1241  0.3441  0.3171
 3195SOL    HW112539   1.816   7.340   1.377  1.7054 -0.2916 -0.8631
 3195SOL    HW212540   1.929   7.258   1.435  0.3601  0.4579  3.1681
 3196SOL     OW12541   1.983   7.634   7.256  0.1268  0.1894 -0.0800
 3196SOL    HW112542   1.972   7.636   7.161  0.6276 -2.3078 -0.2625
 3196SOL    HW212543   2.076   7.616   7.269 -0.1178 -0.4646  0.8491
 3197SOL     OW12544   3.770   6.901   2.330  0.1067  0.2602 -0.9220
 3197SOL    HW112545   3.773   6.806   2.332 -2.7197  0.0947 -0.2473
 3197SOL    HW212546   3.861   6.929   2.339  0.8857 -2.3437 -0.0468
 3198SOL     OW12547   3.008   4.515   3.612  0.2161 -0.4776  0.4126
 3198SOL    HW112548   3.013   4.458   3.535  0.2379  1.3633 -1.0127
 3198SOL    HW212549   2.928   4.488   3.657  0.7656 -2.2954  0.3702
 3199SOL     OW12550   0.609   5.186   8.061 -0.3663 -0.2209 -0.3635
 3199SOL    HW112551   0.530   5.134   8.076 -0.2368  0.4519  3.7043
 3199SOL    HW212552   0.668   5.160   8.131  0.9867  2.9962 -0.1613
 3200SOL     OW12553   2.714   7.587   2.304  0.7362  0.1033 -0.5029
 3200SOL    HW112554   2.738   7.499   2.333  0.9679 -0.3289 -1.9105
 3200SOL    HW212555   2.793   7.621   2.263  0.8330  1.2281  0.5501
 3201SOL     OW12556   5.505   0.759   6.186 -0.1950 -0.0661 -0.3130
 3201SOL    HW112557   5.556   0.826   6.233  0.2830 -1.5745  1.4412
 3201SOL    HW212558   5.553   0.678   6.200 -2.1445 -1.2485 -0.0929
 3202SOL     OW12559   3.183   5.636   7.212  0.1942 -0.4308 -0.2189
 3202SOL    HW112560   3.264   5.587   7.201  0.7531  0.4536 -0.1763
 3202SOL    HW212561   3.115   5.581   7.173  0.7823 -1.2730 -0.0683
 3203SOL     OW12562   5.403   7.841   5.419  0.3784  0.2370 -0.0071
 3203SOL    HW112563   5.397   7.936   5.426  1.3582  0.3405 -0.4152
 3203SOL    HW212564   5.412   7.811   5.510 -1.0372  0.4313  0.2155
 3204SOL     OW12565   6.301   7.904   5.032 -0.5420  0.0349 -0.4615
 3204SOL    HW112566   6.395   7.921   5.024 -0.5087 -0.3504 -0.9091
 3204SOL    HW212567   6.283   7.911   5.126 -0.0325 -0.0778 -0.3557
 3205SOL     OW12568   6.963   0.920   0.094  0.1867  0.0253 -0.2790
 3205SOL    HW112569   6.986   1.013   0.085 -0.9242  0.2497 -1.1858
 3205SOL    HW212570   6.898   0.906   0.025 -4.0443  0.0452  3.2256
 3206SOL     OW12571   1.368   0.617   7.094  0.0465  0.0066  0.0074
 3206SOL    HW112572   1.297   0.679   7.109 -0.1492 -0.2664  0.2516
 3206SOL    HW212573   1.404   0.601   7.182  0.8302  0.6300 -0.1942
 3207SOL     OW12574   7.394   3.444   4.402 -0.1087  0.0322  0.1678
 3207SOL    HW112575   7.332   3.447   4.329  1.0060  1.7071 -0.7961
 3207SOL    HW212576   7.349   3.395   4.471 -1.5094 -0.9026 -1.3540
 3208SOL     OW12577   1.191   2.823   1.020 -0.4460  0.1630 -0.3466
 3208SOL    HW112578   1.096   2.835   1.019 -0.3947  0.5831 -0.0558
 3208SOL    HW212579   1.227   2.911   1.012 -0.0761  0.1790  1.2088
 3209SOL     OW12580   4.718   2.800   1.316  0.5820 -0.2399 -0.0169
 3209SOL    HW112581   4.770   2.745   1.375 -0.4366  1.4887  2.6362
 3209SOL    HW212582   4.779   2.868   1.288  0.6049 -0.0558  0.4745
 3210SOL     OW12583   6.369   0.596   2.036  0.0185  0.3331 -0.0847
 3210SOL    HW112584   6.405   0.573   1.950  1.8486 -0.2924  0.7972
 3210SOL    HW212585   6.322   0.518   2.064 -3.6499  1.6556 -1.9123
 3211SOL     OW12586   2.793   7.167   0.722 -0.0759  0.0778  0.4747
 3211SOL    HW112587   2.796   7.106   0.796 -0.7927  1.5766  1.7742
 3211SOL    HW212588   2.769   7.111   0.647  1.0460 -1.5381  1.2485
 3212SOL     OW12589   2.932   2.996   2.312 -0.4394 -0.1500  0.3964
 3212SOL    HW112590   2.889   2.942   2.245 -1.7476  2.0546 -0.6478
 3212SOL    HW212591   2.865   3.058   2.340  0.8165  0.5548  2.0143
 3213SOL     OW12592   0.434   6.377   5.947  0.9104  0.5572  0.1615
 3213SOL    HW112593   0.362   6.359   6.008 -0.6483  0.1036 -1.7024
 3213SOL    HW212594   0.513   6.365   5.999 -0.3051 -1.0169  1.7881
 3214SOL     OW12595   1.644   4.982   6.713  1.0183 -0.1979 -0.3258
 3214SOL    HW112596   1.561   4.970   6.666 -0.0669 -0.8054  1.6554
 3214SOL    HW212597   1.697   4.907   6.685  0.2244 -0.8026 -0.2477
 3215SOL     OW12598   5.325   0.747   5.665 -0.3012 -0.1012  0.3827
 3215SOL    HW112599   5.285   0.720   5.582  1.0111 -1.6938  0.2294
 3215SOL    HW212600   5.396   0.806   5.639 -1.4161  1.3845  0.5610
 3216SOL     OW12601   5.228   3.359   7.864  0.2695 -0.5058  0.4889
 3216SOL    HW112602   5.204   3.374   7.773  0.9814 -0.6641  0.2669
 3216SOL    HW212603   5.313   3.402   7.874 -0.5299  0.9099  1.5192
 3217SOL     OW12604   1.401   7.143   2.928 -0.0914 -0.8194 -0.0929
 3217SOL    HW112605   1.327   7.138   2.869  0.1461  0.6239 -0.5343
 3217SOL    HW212606   1.456   7.213   2.893  0.1588 -0.0487  1.7032
 3218SOL     OW12607   7.331   6.252   7.413 -0.0009  0.4689 -0.1328
 3218SOL    HW112608   7.276   6.313   7.462 -1.0464 -1.0078  0.6187
 3218SOL    HW212609   7.309   6.166   7.449  5.0436 -0.1230  2.6032
 3219SOL     OW12610   2.795   7.242   1.718 -0.0933 -0.1200  0.8430
 3219SOL    HW112611   2.863   7.286   1.667  0.5870 -0.8709  1.0668
 3219SOL    HW212612   2.795   7.152   1.686  0.0111 -0.4859  1.8136
 3220SOL     OW12613   2.002   6.925   0.452 -0.3607 -0.2053  0.3245
 3220SOL    HW112614   1.969   6.886   0.372  0.9971  1.4430 -1.1232
 3220SOL    HW212615   2.094   6.943   0.434 -0.1337  0.6510  2.0859
 3221SOL     OW12616   4.081   7.044   5.548  0.3150 -0.1216 -0.0105
 3221SOL    HW112617   4.030   7.117   5.515 -0.3612 -0.3999  0.3935
 3221SOL    HW212618   4.042   7.024   5.633 -0.4256 -1.8478 -0.7164
 3222SOL     OW12619   7.204   4.531   0.482 -0.3521  0.3100  0.5000
 3222SOL    HW112620   7.292   4.510   0.452 -0.6776 -2.3424  1.1347
 3222SOL    HW212621   7.147   4.511   0.408 -0.4219  3.1379 -0.3259
 3223SOL     OW12622   7.755   6.159   5.629 -0.2747 -0.2232  0.5696
 3223SOL    HW112623   7.743   6.217   5.554 -1.6722 -0.5994  0.4649
 3223SOL    HW212624   7.805   6.210   5.692 -0.0897  0.5076 -0.1524
 3224SOL     OW12625   3.172   4.871   3.120 -0.1818 -0.3169  0.1007
 3224SOL    HW112626   3.189   4.939   3.185  0.1983  0.3552 -0.6791
 3224SOL    HW212627   3.258   4.841   3.093 -0.3449 -1.0340  0.3411
 3225SOL     OW12628   5.465   1.711   0.470 -0.2783 -0.2634 -0.0617
 3225SOL    HW112629   5.413   1.635   0.496  0.7769 -1.4535 -1.2046
 3225SOL    HW212630   5.534   1.674   0.414  0.8925  1.4225  0.1840
 3226SOL     OW12631   0.884   2.366   7.276 -0.4228  0.1523 -0.1735
 3226SOL    HW112632   0.930   2.311   7.212  0.5607  0.1376  0.5186
 3226SOL    HW212633   0.802   2.321   7.293  0.6806 -1.5096  0.9325
 3227SOL     OW12634   5.931   5.225   4.040 -0.2253  0.5340  0.4414
 3227SOL    HW112635   5.838   5.242   4.051  0.0264  1.9531  0.6057
 3227SOL    HW212636   5.969   5.311   4.020  1.2059  0.1943  1.5101
 3228SOL     OW12637   2.050   5.247   3.938 -0.1286  0.5751 -0.3523
 3228SOL    HW112638   2.046   5.173   3.999 -0.1968  0.0383 -0.9934
 3228SOL    HW212639   2.081   5.320   3.991  2.4824 -0.5091 -0.2300
 3229SOL     OW12640   3.712   6.428   1.835 -0.0734 -0.4402 -0.5049
 3229SOL    HW112641   3.806   6.435   1.851 -0.2034 -1.8870  1.1285
 3229SOL    HW212642   3.694   6.334   1.835 -1.5087 -0.1889 -0.9046
 3230SOL     OW12643   3.825   3.913   7.621  0.3615 -0.5145  0.0929
 3230SOL    HW112644   3.881   3.977   7.577  0.8996 -1.0431 -0.0020
 3230SOL    HW212645   3.884   3.867   7.682 -0.1173 -0.6047  0.4926
 3231SOL     OW12646   2.415   0.896   6.439 -0.0946 -0.2582  0.8966
 3231SOL    HW112647   2.343   0.834   6.433  0.7070 -1.2016  0.8593
 3231SOL    HW212648   2.444   0.891   6.530 -0.1575  0.2201  0.9463
 3232SOL     OW12649   0.760   6.109   1.362  0.4082  0.1244  0.8629
 3232SOL    HW112650   0.733   6.030   1.314 -0.2010 -0.4468  2.1097
 3232SOL    HW212651   0.829   6.147   1.308 -0.2396 -0.5032 -0.4615
 3233SOL     OW12652   1.729   7.381   4.145 -0.8246 -0.2387 -0.2852
 3233SOL    HW112653   1.737   7.474   4.127  2.7407 -0.2432  0.4010
 3233SOL    HW212654   1.782   7.339   4.077 -1.3502 -1.6537  0.1364
 3234SOL     OW12655   0.394   7.141   1.489 -0.2388  0.0118 -0.0932
 3234SOL    HW112656   0.364   7.081   1.421 -0.5984  1.5757 -1.3859
 3234SOL    HW212657   0.318   7.156   1.544 -0.8253  1.0487 -1.1455
 3235SOL     OW12658   3.865   6.470   1.471 -0.0540 -0.4533  0.1911
 3235SOL    HW112659   3.958   6.464   1.493  0.3826 -1.8787 -1.7414
 3235SOL    HW212660   3.863   6.466   1.375 -1.9005  3.2721 -0.1156
 3236SOL     OW12661   3.070   3.110   6.831 -0.4078  0.3324  0.1683
 3236SOL    HW112662   3.132   3.182   6.821  0.3348 -0.4275 -0.7792
 3236SOL    HW212663   3.122   3.037   6.865 -0.3207 -0.8814 -2.3197
 3237SOL     OW12664   3.767   4.447   0.825  0.7037  0.0322 -0.2884
 3237SOL    HW112665   3.770   4.508   0.899  1.5894  1.2673 -1.2905
 3237SOL    HW212666   3.679   4.409   0.828  0.6455  0.2406  1.2444
 3238SOL     OW12667   0.682   3.549   7.620 -0.7749 -0.1572 -0.3444
 3238SOL    HW112668   0.756   3.533   7.562 -1.1958  0.5830 -1.1162
 3238SOL    HW212669   0.610   3.497   7.583 -0.6427 -0.8964  0.4170
 3239SOL     OW12670   1.206   2.927   4.649 -0.1869 -0.2167 -0.3207
 3239SOL    HW112671   1.131   2.869   4.635 -0.7748  0.6866 -0.9576
 3239SOL    HW212672   1.175   2.993   4.710 -0.5015  1.1979 -1.9493
 3240SOL     OW12673   5.241   2.339   6.242 -0.3232 -0.2784 -0.3476
 3240SOL    HW112674   5.256   2.412   6.181 -0.9782 -0.3226 -0.5735
 3240SOL    HW212675   5.221   2.381   6.325 -1.6026 -0.1580 -0.6857
 3241SOL     OW12676   7.173   7.130   7.713  0.2374  0.3938 -0.0347
 3241SOL    HW112677   7.221   7.060   7.756  1.1473 -0.5745 -2.4235
 3241SOL    HW212678   7.214   7.211   7.743  0.5604 -0.1917  1.1545
 3242SOL     OW12679   2.224   2.322   2.429 -0.1265 -0.2611  0.3322
 3242SOL    HW112680   2.235   2.306   2.523 -2.9969  1.0998  1.0208
 3242SOL    HW212681   2.236   2.416   2.419 -1.7614 -0.0890 -0.2911
 3243SOL     OW12682   3.433   2.528   3.884 -0.1362 -0.0030  0.0726
 3243SOL    HW112683   3.402   2.479   3.960  0.9362 -0.4057  0.2683
 3243SOL    HW212684   3.446   2.463   3.816 -0.6197  0.2895 -0.3047
 3244SOL     OW12685   7.852   7.230   0.570 -0.0588  0.1246  0.3604
 3244SOL    HW112686   7.913   7.261   0.637 -0.1076  2.2348 -0.4976
 3244SOL    HW212687   7.778   7.290   0.575 -1.6785 -1.7835  0.6981
 3245SOL     OW12688   1.976   6.172   2.049  0.2190 -0.0852 -0.1671
 3245SOL    HW112689   2.061   6.192   2.010  0.2318  2.1883  0.8634
 3245SOL    HW212690   1.931   6.118   1.983  1.8509 -0.0320 -1.3869
 3246SOL     OW12691   1.698   1.658   7.032  0.1255 -0.8172  0.1217
 3246SOL    HW112692   1.632   1.678   7.098  1.3166 -0.5202  1.2686
 3246SOL    HW212693   1.726   1.569   7.051  0.3890 -0.7778 -0.0641
 3247SOL     OW12694   2.286   6.331   3.825 -0.0070  0.6049  0.1492
 3247SOL    HW112695   2.306   6.238   3.820  0.7887  0.7783 -0.0242
 3247SOL    HW212696   2.249   6.352   3.739  0.0368  0.5013  0.1051
 3248SOL     OW12697   3.744   2.055   5.921  0.1264 -0.6052 -0.2256
 3248SOL    HW112698   3.669   1.999   5.900  0.6675 -1.5254  0.2086
 3248SOL    HW212699   3.792   2.006   5.988  0.2499  0.6994  0.6848
 3249SOL     OW12700   4.483   1.339   2.246 -0.8803  0.8933 -0.0704
 3249SOL    HW112701   4.478   1.342   2.341 -1.4750 -0.5847 -0.0288
 3249SOL    HW212702   4.575   1.357   2.226 -0.3528 -0.5973  0.9080
 3250SOL     OW12703   5.227   0.100   4.912  0.2607 -0.0015 -0.8837
 3250SOL    HW112704   5.317   0.085   4.884  1.0392  0.1442  1.3504
 3250SOL    HW212705   5.220   0.195   4.922 -0.2355  0.0112 -1.3111
 3251SOL     OW12706   3.847   1.615   2.898  0.1193 -0.3601  0.2856
 3251SOL    HW112707   3.797   1.613   2.816  0.9818 -1.9242 -0.2543
 3251SOL    HW212708   3.786   1.650   2.963 -1.1212 -0.6316 -0.6911
 3252SOL     OW12709   4.246   7.487   0.836  0.2297  0.0549  0.0867
 3252SOL    HW112710   4.223   7.406   0.790  0.9300  0.2515 -0.6368
 3252SOL    HW212711   4.169   7.508   0.888 -0.9989  0.3493 -1.7444
 3253SOL     OW12712   1.069   8.110   7.028  0.2283  0.6457  0.0962
 3253SOL    HW112713   1.081   8.088   7.121  1.1843 -1.8322 -0.5396
 3253SOL    HW212714   0.975   8.124   7.019  0.1764  1.4473  1.5118
 3254SOL     OW12715   0.809   0.034   0.861 -0.0538  0.1595  0.2807
 3254SOL    HW112716   0.717   0.024   0.884  0.1714 -1.0265  0.7754
 3254SOL    HW212717   0.825  -0.032   0.794  0.3505  0.5944 -0.0564
 3255SOL     OW12718   7.059   1.003   3.471  0.1592  0.1343  0.3527
 3255SOL    HW112719   7.059   1.096   3.494  2.1256 -0.3649  2.7188
 3255SOL    HW212720   7.151   0.982   3.454 -0.1319 -1.5533  0.6939
 3256SOL     OW12721   1.288   3.630   6.202  0.1665  0.6302 -0.3939
 3256SOL    HW112722   1.362   3.639   6.142 -0.2674  0.0612 -1.0218
 3256SOL    HW212723   1.252   3.719   6.208  1.5285  1.1365  0.7602
 3257SOL     OW12724   0.638   6.808   4.488  0.9273  0.8456  0.0294
 3257SOL    HW112725   0.734   6.812   4.481  0.9496 -0.6151 -0.9216
 3257SOL    HW212726   0.622   6.772   4.575  1.3687 -1.3657 -0.7352
 3258SOL     OW12727   6.418   0.516   5.008  0.3305  0.3635  0.6942
 3258SOL    HW112728   6.484   0.576   4.976  0.6565  0.1401  0.9353
 3258SOL    HW212729   6.348   0.519   4.943  1.3887 -0.8241 -0.5771
 3259SOL     OW12730   1.043   2.796   7.484 -0.0159  0.3437  0.0792
 3259SOL    HW112731   1.133   2.764   7.478  0.3505  1.5618 -1.7140
 3259SOL    HW212732   1.043   2.852   7.561  0.4973 -0.4027  0.6386
 3260SOL     OW12733   0.235   1.217   5.332 -0.2603 -0.1883 -0.2237
 3260SOL    HW112734   0.313   1.238   5.383 -0.4756  2.4450 -0.8602
 3260SOL    HW212735   0.164   1.265   5.375 -1.2212 -1.1028 -0.7170
 3261SOL     OW12736   3.457   2.490   2.049  0.4077 -0.1809 -0.3249
 3261SOL    HW112737   3.544   2.494   2.089  0.2929 -0.9570  0.0205
 3261SOL    HW212738   3.408   2.431   2.105 -1.0936  2.0725  0.8824
 3262SOL     OW12739   8.124   7.519   3.898 -0.3181 -0.0778  0.1380
 3262SOL    HW112740   8.110   7.610   3.924  0.2392  0.5208 -1.5162
 3262SOL    HW212741   8.040   7.476   3.914 -0.2071  0.3957  2.1504
 3263SOL     OW12742   1.637   0.839   5.726 -0.2370  0.0721  0.2007
 3263SOL    HW112743   1.627   0.798   5.640 -1.0455 -0.1086  0.3735
 3263SOL    HW212744   1.549   0.840   5.763  0.2002 -0.4510  1.3040
 3264SOL     OW12745   5.622   7.412   2.024 -0.1842  0.0973 -0.1817
 3264SOL    HW112746   5.570   7.464   2.085  0.7944 -0.1528  0.8850
 3264SOL    HW212747   5.556   7.363   1.973 -1.0205  0.0766  0.8738
 3265SOL     OW12748   7.802   7.263   4.299 -0.2808  0.0955 -0.1246
 3265SOL    HW112749   7.765   7.232   4.382  1.7337 -1.8620  0.1432
 3265SOL    HW212750   7.773   7.198   4.235  1.3459 -0.6193 -0.1817
 3266SOL     OW12751   0.492   7.545   7.085  0.1899 -0.5241 -0.0314
 3266SOL    HW112752   0.464   7.463   7.126 -0.9566 -0.4186 -0.5658
 3266SOL    HW212753   0.410   7.589   7.060  0.8068  0.4082 -0.4786
 3267SOL     OW12754   0.033   1.101   5.889 -0.3165  0.5601  0.3073
 3267SOL    HW112755  -0.013   1.165   5.835 -2.4370 -0.7864  0.4135
 3267SOL    HW212756  -0.021   1.092   5.968  0.4863 -0.5813  0.7540
 3268SOL     OW12757   3.628   5.436   3.196 -0.1122  0.7447 -0.2122
 3268SOL    HW112758   3.666   5.394   3.119 -1.2683  0.2661 -0.5419
 3268SOL    HW212759   3.692   5.420   3.266  0.7797  0.8809 -0.9767
 3269SOL     OW12760   4.366   6.699   0.738 -0.0598 -0.4464 -0.2068
 3269SOL    HW112761   4.379   6.776   0.683 -0.1348 -0.6681 -0.5442
 3269SOL    HW212762   4.278   6.710   0.775  0.1898 -0.0478  0.2793
 3270SOL     OW12763   2.180   7.201   3.235 -0.3401  0.1962  0.7608
 3270SOL    HW112764   2.212   7.282   3.196 -0.8200  0.3812  0.7434
 3270SOL    HW212765   2.228   7.193   3.318  0.0473  0.2539  0.5432
 3271SOL     OW12766   2.838   2.588   3.316  0.0923 -0.4166 -0.1918
 3271SOL    HW112767   2.884   2.517   3.271 -0.0380 -0.2596 -0.5722
 3271SOL    HW212768   2.906   2.629   3.370  0.1425 -0.9042  0.1248
 3272SOL     OW12769   0.624   2.831   1.195 -0.6639  0.1567 -1.1401
 3272SOL    HW112770   0.569   2.880   1.134 -0.0840  1.6771 -0.4860
 3272SOL    HW212771   0.686   2.895   1.229 -1.6060 -0.3116  1.8321
 3273SOL     OW12772   2.792   3.226   4.912 -0.1408  0.3772  0.5161
 3273SOL    HW112773   2.843   3.286   4.858  0.2755 -0.7235 -0.3520
 3273SOL    HW212774   2.836   3.142   4.902 -2.6215 -0.8705 -1.0707
 3274SOL     OW12775   7.554   4.663   7.454 -0.2379 -0.9649 -0.1265
 3274SOL    HW112776   7.520   4.740   7.408  0.1981  0.2636  1.5000
 3274SOL    HW212777   7.542   4.684   7.547  1.8123 -1.9526  0.4132
 3275SOL     OW12778   3.629   5.820   7.443  0.0432  0.0855  0.3289
 3275SOL    HW112779   3.651   5.734   7.407  1.1814  0.4735  0.0687
 3275SOL    HW212780   3.632   5.807   7.538 -1.1505 -0.4854  0.3086
 3276SOL     OW12781   3.907   5.952   4.912 -0.0150 -0.1178 -0.5196
 3276SOL    HW112782   3.926   6.045   4.906  1.0840 -0.2687  0.2741
 3276SOL    HW212783   3.852   5.933   4.836 -1.0086  1.3412 -0.2000
 3277SOL     OW12784   0.362   4.802   5.550  0.5243 -0.2827 -0.2679
 3277SOL    HW112785   0.391   4.763   5.633  2.0383 -2.0192 -1.5220
 3277SOL    HW212786   0.441   4.835   5.509  0.1087 -1.0372 -1.7797
 3278SOL     OW12787   1.588   6.544   6.747  0.0767  0.0803  0.1215
 3278SOL    HW112788   1.495   6.552   6.768 -0.0653 -0.5934 -0.2377
 3278SOL    HW212789   1.630   6.526   6.831 -0.0171  1.1344  0.4052
 3279SOL     OW12790   1.479   3.405   7.798 -0.6401 -0.3166  0.5321
 3279SOL    HW112791   1.399   3.454   7.778 -0.0209  0.8024  0.7216
 3279SOL    HW212792   1.448   3.325   7.839 -1.6504  0.4949  1.4171
 3280SOL     OW12793   2.148   2.985   7.058 -0.3147  0.3588  0.1446
 3280SOL    HW112794   2.132   3.042   6.982 -1.8838  0.8702  0.8081
 3280SOL    HW212795   2.149   2.897   7.022  1.8043  0.7404 -0.8555
 3281SOL     OW12796   2.945   4.322   2.605 -0.0595 -0.0908 -0.1360
 3281SOL    HW112797   2.955   4.269   2.526 -0.2760 -1.3720  0.6811
 3281SOL    HW212798   2.967   4.263   2.677 -1.6001  0.5273  0.8880
 3282SOL     OW12799   3.152   1.777   6.714 -0.0015  0.1866  0.4993
 3282SOL    HW112800   3.121   1.738   6.796  0.6150 -0.9487  0.2070
 3282SOL    HW212801   3.198   1.856   6.741  1.4301 -0.9103  1.3977
 3283SOL     OW12802   2.324   0.182   1.883 -0.5187 -0.1064 -0.0972
 3283SOL    HW112803   2.312   0.273   1.854 -1.6314 -0.8888 -2.3397
 3283SOL    HW212804   2.311   0.185   1.977  1.2922  2.3332  0.1840
 3284SOL     OW12805   3.787   7.017   4.185  0.1270  0.1158 -0.7625
 3284SOL    HW112806   3.697   7.042   4.163 -0.0910  0.4391  0.4171
 3284SOL    HW212807   3.842   7.078   4.137 -0.2491 -0.5640 -2.0991
 3285SOL     OW12808   1.559   6.724   5.881  0.8591  0.5523  0.0371
 3285SOL    HW112809   1.562   6.655   5.947  1.8005 -2.0306 -2.4911
 3285SOL    HW212810   1.468   6.751   5.879  0.3232 -1.0501  0.7215
 3286SOL     OW12811   7.176   7.425   1.770  0.0050 -0.0646 -1.1340
 3286SOL    HW112812   7.095   7.444   1.817 -1.0437  1.9665 -3.5433
 3286SOL    HW212813   7.157   7.347   1.719  0.0176 -0.3349 -0.7279
 3287SOL     OW12814   2.380   1.602   3.088  0.5230  0.2161  0.6230
 3287SOL    HW112815   2.445   1.657   3.044 -0.8713  1.7215  0.3422
 3287SOL    HW212816   2.417   1.514   3.085  0.7149  0.2749 -3.2553
 3288SOL     OW12817   5.030   3.568   0.199 -0.3962 -0.3244 -0.3015
 3288SOL    HW112818   5.066   3.585   0.112 -0.3819 -0.5669 -0.3454
 3288SOL    HW212819   4.940   3.599   0.194 -0.5848 -0.8980 -0.5993
 3289SOL     OW12820   0.273   0.844   2.718  0.0493 -0.2936  0.4600
 3289SOL    HW112821   0.229   0.759   2.715  0.7027 -0.6496  0.6352
 3289SOL    HW212822   0.258   0.882   2.632 -0.6916 -0.3557  0.5568
 3290SOL     OW12823   1.751   0.729   0.395  0.1195 -0.1013  0.3363
 3290SOL    HW112824   1.826   0.773   0.355 -0.1215  1.0886  1.1236
 3290SOL    HW212825   1.782   0.641   0.415  1.1345  0.2076  0.1619
 3291SOL     OW12826   4.845   7.693   2.892  0.5383  0.0759  0.5721
 3291SOL    HW112827   4.887   7.608   2.907 -0.2002 -0.1169  1.7027
 3291SOL    HW212828   4.760   7.672   2.853  0.6070  0.3276  0.2858
 3292SOL     OW12829   6.408   6.777   4.354  0.1352  0.1225  0.3072
 3292SOL    HW112830   6.450   6.736   4.278  1.0879  0.1664  0.7984
 3292SOL    HW212831   6.467   6.759   4.427  0.7552  2.5890  0.5073
 3293SOL     OW12832   0.552   2.282   2.166  0.2952 -0.0396  0.0781
 3293SOL    HW112833   0.609   2.250   2.096 -0.2182  0.0986 -0.4105
 3293SOL    HW212834   0.600   2.263   2.247  0.8839 -0.2192 -0.3093
 3294SOL     OW12835   1.956   4.732   5.930 -0.1243  0.3954 -0.0683
 3294SOL    HW112836   2.043   4.772   5.935  0.4850 -0.5819 -2.0065
 3294SOL    HW212837   1.909   4.785   5.865 -0.4798  0.0588 -0.0903
 3295SOL     OW12838   6.290   7.770   1.318  0.3915  0.0873 -0.5832
 3295SOL    HW112839   6.330   7.844   1.363  0.9048 -0.0346 -0.8342
 3295SOL    HW212840   6.362   7.729   1.270  0.2664 -0.9705  0.0873
 3296SOL     OW12841   4.073   6.162   5.219  0.2200 -0.0443 -0.1608
 3296SOL    HW112842   4.063   6.188   5.311 -2.2887  0.7200 -0.5692
 3296SOL    HW212843   4.096   6.243   5.174 -0.9087  0.0896 -0.5123
 3297SOL     OW12844   3.021   2.828   3.418  0.1178 -0.0209  0.2643
 3297SOL    HW112845   3.050   2.763   3.354 -2.8385  0.8990 -2.3134
 3297SOL    HW212846   3.063   2.909   3.390  0.9878 -0.1031  1.2730
 3298SOL     OW12847   0.437   5.361   3.230 -0.1138  0.0857  0.1167
 3298SOL    HW112848   0.427   5.445   3.275  0.1413  0.7242 -0.9827
 3298SOL    HW212849   0.519   5.326   3.263 -0.0259  0.4500  0.2914
 3299SOL     OW12850   2.540   4.466   6.035  0.3778  0.3479  0.1157
 3299SOL    HW112851   2.550   4.561   6.041 -0.8114  0.4876  0.0188
 3299SOL    HW212852   2.540   4.448   5.941  3.3429 -0.0993  0.0823
 3300SOL     OW12853   4.320   8.100   1.974 -0.5056 -0.1835 -0.2691
 3300SOL    HW112854   4.317   8.143   2.059 -1.5183 -2.1390  0.7681
 3300SOL    HW212855   4.228   8.084   1.952 -0.2019 -3.0652  0.1485
 3301SOL     OW12856   3.141   6.859   7.112  0.1217 -0.3225 -0.2169
 3301SOL    HW112857   3.116   6.939   7.065  0.3590 -1.6817 -2.8079
 3301SOL    HW212858   3.062   6.834   7.159 -0.4388  0.5802 -0.6358
 3302SOL     OW12859   7.032   1.386   4.393 -0.1906 -0.3278  0.1264
 3302SOL    HW112860   7.084   1.464   4.413 -0.9941  0.1066  0.5700
 3302SOL    HW212861   7.097   1.318   4.374  0.5511  0.1590  0.8419
 3303SOL     OW12862   2.246   6.875   4.574 -0.2305 -0.1701 -0.0975
 3303SOL    HW112863   2.232   6.959   4.531 -1.6838 -1.0581 -1.5218
 3303SOL    HW212864   2.159   6.848   4.603 -0.0343 -1.7195 -0.8134
 3304SOL     OW12865   0.435   3.080   2.095  0.3166  0.2660  0.3414
 3304SOL    HW112866   0.472   3.081   2.183 -0.4898 -1.3224  0.7261
 3304SOL    HW212867   0.496   3.027   2.044  1.3239  2.0184 -0.3398
 3305SOL     OW12868   1.054   2.016   3.835  0.2227 -0.1540 -0.1560
 3305SOL    HW112869   1.052   1.974   3.921 -0.9254 -0.3247 -0.2599
 3305SOL    HW212870   1.138   2.062   3.833  0.5534 -0.6988  0.7897
 3306SOL     OW12871   4.949   2.780   4.884  0.1873  0.0808  0.5207
 3306SOL    HW112872   4.973   2.707   4.941  0.6425  0.3126  0.6270
 3306SOL    HW212873   4.913   2.738   4.805 -0.3163 -0.2405  0.9171
 3307SOL     OW12874   7.438   7.537   2.028 -0.5997 -0.4379  0.0814
 3307SOL    HW112875   7.460   7.484   1.952  2.5972  1.6779 -0.6622
 3307SOL    HW212876   7.416   7.623   1.991  1.4254  0.7574  1.4757
 3308SOL     OW12877   7.504   1.826   0.814  0.0941 -0.0531  0.1997
 3308SOL    HW112878   7.445   1.894   0.780  0.3299  0.3640  0.6136
 3308SOL    HW212879   7.583   1.873   0.839  1.2337 -0.8244 -1.8144
 3309SOL     OW12880   4.169   0.247   3.616 -0.0604 -0.2902  0.6758
 3309SOL    HW112881   4.207   0.258   3.528 -0.1736 -0.7984  0.5587
 3309SOL    HW212882   4.110   0.322   3.626 -3.3776 -2.3528 -1.4402
 3310SOL     OW12883   6.641   5.415   0.564  0.1837 -0.1707 -1.0662
 3310SOL    HW112884   6.587   5.345   0.528  0.2747  0.2736 -2.1013
 3310SOL    HW212885   6.730   5.395   0.536  0.7344 -1.2355  1.1475
 3311SOL     OW12886   2.524   2.426   7.146 -0.0616 -0.1600  0.2031
 3311SOL    HW112887   2.541   2.332   7.139  0.4362  0.0182 -1.7038
 3311SOL    HW212888   2.609   2.464   7.169 -0.1828 -0.1452  0.6278
 3312SOL     OW12889   1.582   1.051   2.519  0.4492  0.1103 -0.2830
 3312SOL    HW112890   1.503   1.090   2.556  0.0259 -1.3830  0.5033
 3312SOL    HW212891   1.640   1.125   2.502  0.1919  1.0171  2.2622
 3313SOL     OW12892   5.895   4.660   1.162 -0.0277 -0.0167  0.3005
 3313SOL    HW112893   5.913   4.680   1.254  1.4291  0.0140  0.0344
 3313SOL    HW212894   5.952   4.720   1.113  1.8237 -2.3143 -0.5698
 3314SOL     OW12895   4.998   3.037   3.659  0.9693 -0.2169 -0.1461
 3314SOL    HW112896   4.949   2.964   3.622  0.2830 -0.5533  1.3524
 3314SOL    HW212897   4.946   3.114   3.638  1.0129 -0.3133 -0.6033
 3315SOL     OW12898   5.747   2.926   1.556 -0.2685 -0.5538 -0.2005
 3315SOL    HW112899   5.668   2.942   1.504 -0.7046  1.0773  0.8589
 3315SOL    HW212900   5.717   2.935   1.647  1.0101 -0.5144  0.2296
 3316SOL     OW12901   4.416   0.133   3.144  0.3947  0.1002  0.1592
 3316SOL    HW112902   4.454   0.058   3.099  0.5517  0.7700 -0.8821
 3316SOL    HW212903   4.326   0.108   3.162  0.3695 -0.2427 -0.4201
 3317SOL     OW12904   0.361   2.840   0.826 -0.1922  0.4347  0.4598
 3317SOL    HW112905   0.448   2.821   0.792 -0.7317 -0.8553 -0.2785
 3317SOL    HW212906   0.305   2.844   0.748 -1.3501 -1.9611  1.0784
 3318SOL     OW12907   1.365   4.372   5.729 -0.7731  0.3866 -0.1672
 3318SOL    HW112908   1.417   4.352   5.651 -2.3462 -0.7509 -0.9816
 3318SOL    HW212909   1.416   4.438   5.776  1.3208 -0.5751 -0.9664
 3319SOL     OW12910   0.643   2.600   5.518 -0.0244 -0.2987  0.3095
 3319SOL    HW112911   0.663   2.634   5.430  0.3761  0.8521  0.8242
 3319SOL    HW212912   0.569   2.652   5.548 -0.3732 -0.9156  0.5230
 3320SOL     OW12913   7.982   2.816   6.734 -0.6932  0.8472 -0.4899
 3320SOL    HW112914   7.933   2.863   6.801  0.3908  0.7654  0.3818
 3320SOL    HW212915   7.925   2.818   6.657 -1.4242  2.0160  0.0564
 3321SOL     OW12916   5.740   4.515   4.319 -0.0786  0.3219  0.0691
 3321SOL    HW112917   5.664   4.535   4.373  0.1212 -0.4177  0.6299
 3321SOL    HW212918   5.707   4.454   4.252  0.1090 -0.3552  0.5841
 3322SOL     OW12919   3.212   1.540   6.523  0.0583  0.4361 -0.4060
 3322SOL    HW112920   3.210   1.607   6.591 -0.6297  0.9348 -0.8993
 3322SOL    HW212921   3.220   1.458   6.570  0.7336  0.8491  0.2199
 3323SOL     OW12922   2.718   7.404   7.428  0.2303 -0.7256  0.4497
 3323SOL    HW112923   2.771   7.374   7.502 -0.1440 -1.2352  0.5174
 3323SOL    HW212924   2.659   7.469   7.466 -0.0950 -1.1310  0.6371
 3324SOL     OW12925   4.350   2.874   0.010  0.9850  0.6513 -0.1125
 3324SOL    HW112926   4.348   2.897   0.103 -0.2429  0.7599 -0.1529
 3324SOL    HW212927   4.350   2.779   0.009 -3.2223  0.4860  0.0424
 3325SOL     OW12928   2.591   4.370   1.363  0.3829  0.0937 -0.0460
 3325SOL    HW112929   2.632   4.454   1.342  1.3751 -0.7518 -1.6571
 3325SOL    HW212930   2.511   4.393   1.410  0.5932  1.9359 -0.5321
 3326SOL     OW12931   2.522   0.755   5.948 -0.3737  0.2650  0.1737
 3326SOL    HW112932   2.435   0.730   5.915  0.5105  1.8174 -3.9976
 3326SOL    HW212933   2.516   0.849   5.962 -0.2355 -0.1233  3.4265
 3327SOL     OW12934   4.841   6.443   6.586  0.5392  0.6698  0.1646
 3327SOL    HW112935   4.877   6.487   6.663  0.0515  0.9842  0.2215
 3327SOL    HW212936   4.870   6.495   6.512  2.5907 -0.6709 -0.0586
 3328SOL     OW12937   6.904   6.126   2.569  0.2972  0.3289  0.4279
 3328SOL    HW112938   6.862   6.207   2.541  0.5574  0.2925 -0.0940
 3328SOL    HW212939   6.851   6.095   2.642  0.5479  1.2774  1.0235
 3329SOL     OW12940   0.977   2.259   7.984 -0.2453  0.0050 -0.3644
 3329SOL    HW112941   0.923   2.182   8.002  0.3508 -0.0705  1.2326
 3329SOL    HW212942   1.046   2.226   7.925  0.2008 -0.7946  0.5639
 3330SOL     OW12943   5.666   8.098   3.434 -0.1770  0.0867  0.3014
 3330SOL    HW112944   5.646   8.019   3.483  1.7249 -0.4492  0.3190
 3330SOL    HW212945   5.594   8.158   3.454 -0.3827 -0.7535  2.3076
 3331SOL     OW12946   2.048   4.974   0.668 -0.6335 -0.1946  0.8061
 3331SOL    HW112947   2.013   5.030   0.599 -0.3664  1.3270  1.8526
 3331SOL    HW212948   1.986   4.901   0.674 -0.8644 -0.1768 -0.7419
 3332SOL     OW12949   5.310   4.970   3.433 -0.1290  0.3860 -0.1661
 3332SOL    HW112950   5.338   4.900   3.492 -1.5902 -1.0694 -1.1186
 3332SOL    HW212951   5.335   5.051   3.478  1.4518 -0.7296  1.0482
 3333SOL     OW12952   5.251   6.289   6.588  0.3533  0.2369 -0.3528
 3333SOL    HW112953   5.231   6.380   6.564  0.7825  1.0597  2.1462
 3333SOL    HW212954   5.165   6.249   6.602  0.1819  0.6794 -0.1023
 3334SOL     OW12955   3.501   1.419   6.944 -0.8713  0.2372 -0.0653
 3334SOL    HW112956   3.581   1.380   6.980 -0.9576 -0.3200 -0.4563
 3334SOL    HW212957   3.512   1.413   6.849 -0.5264  1.9415 -0.1528
 3335SOL     OW12958   2.708   3.040   5.397 -0.1107  0.6053 -0.2125
 3335SOL    HW112959   2.778   3.043   5.462 -0.7837 -2.6673  0.8304
 3335SOL    HW212960   2.651   3.114   5.419  0.3589  0.3254  2.1780
 3336SOL     OW12961   6.108   5.496   1.455  0.2245 -0.1397 -0.6824
 3336SOL    HW112962   6.183   5.554   1.474  0.3950  0.2758 -2.4569
 3336SOL    HW212963   6.126   5.417   1.506  3.2272 -1.0656 -2.8699
 3337SOL     OW12964   1.457   5.572   0.757  0.3588 -0.7626 -0.3358
 3337SOL    HW112965   1.373   5.532   0.734 -1.1193  1.5906  0.6123
 3337SOL    HW212966   1.492   5.602   0.673 -0.7149 -0.0778 -0.5688
 3338SOL     OW12967   1.211   2.651   1.820 -0.1258  0.6180 -0.2815
 3338SOL    HW112968   1.225   2.691   1.734  1.4351 -0.0891 -0.3997
 3338SOL    HW212969   1.295   2.660   1.864 -0.0680 -1.4373  0.1268
 3339SOL     OW12970   2.216   6.029   6.654  0.4577 -0.1119  0.3260
 3339SOL    HW112971   2.295   6.079   6.677  0.4604  0.0462 -0.0056
 3339SOL    HW212972   2.249   5.958   6.599  0.4171 -0.2912  0.5363
 3340SOL     OW12973   1.201   0.849   7.126  0.4772  0.4353  0.1740
 3340SOL    HW112974   1.244   0.912   7.069 -1.5653  1.0031 -0.8493
 3340SOL    HW212975   1.114   0.838   7.088 -0.3748 -0.4860  2.2267
 3341SOL     OW12976   7.115   0.678   2.159  0.4390 -0.2176  0.2449
 3341SOL    HW112977   7.121   0.718   2.246 -0.2462 -1.3659  0.8432
 3341SOL    HW212978   7.077   0.592   2.175  0.8343 -0.6728 -1.1377
 3342SOL     OW12979   4.561   3.994   5.003 -0.1443 -0.1467  0.0606
 3342SOL    HW112980   4.651   3.988   4.970 -0.7367 -1.4815 -1.4680
 3342SOL    HW212981   4.528   3.904   4.995 -0.2814 -0.7576  4.7441
 3343SOL     OW12982   3.801   0.650   3.639 -0.2765  0.2470 -0.3379
 3343SOL    HW112983   3.784   0.721   3.701  0.1001  0.1514 -0.1233
 3343SOL    HW212984   3.861   0.592   3.685 -0.8354 -0.3848 -0.3872
 3344SOL     OW12985   5.092   7.829   6.402 -0.3568  0.7119  0.1127
 3344SOL    HW112986   5.051   7.910   6.371  1.8248  1.0060 -2.4075
 3344SOL    HW212987   5.183   7.854   6.420  0.1724 -1.0116 -0.0291
 3345SOL     OW12988   4.666   3.395   0.533 -0.2441  0.3955  0.1239
 3345SOL    HW112989   4.737   3.378   0.471  0.3124  0.5802  0.7044
 3345SOL    HW212990   4.593   3.424   0.478 -0.1778 -0.6957 -0.5696
 3346SOL     OW12991   8.128   7.239   1.042 -0.4526  0.1875 -0.3868
 3346SOL    HW112992   8.140   7.158   0.992 -1.9773  0.4442 -1.2311
 3346SOL    HW212993   8.036   7.261   1.030 -0.6529  0.7965  1.7786
 3347SOL     OW12994   5.419   5.222   0.215 -0.0967  0.2049  0.0315
 3347SOL    HW112995   5.367   5.298   0.189 -1.4390 -0.0258  1.8800
 3347SOL    HW212996   5.450   5.243   0.303  0.2655 -1.0063  0.2088
 3348SOL     OW12997   2.096   1.044   4.845 -0.3479  0.1760  0.0782
 3348SOL    HW112998   2.106   0.996   4.763  0.7371  1.7369 -0.7394
 3348SOL    HW212999   2.092   0.975   4.912  2.1417 -1.0785 -0.9425
 3349SOL     OW13000   6.109   0.732   1.116 -0.2116  0.3981 -0.3517
 3349SOL    HW113001   6.038   0.668   1.111  1.4827 -1.5536 -0.4035
 3349SOL    HW213002   6.145   0.722   1.203  1.3514 -0.1629 -1.0367
 3350SOL     OW13003   3.102   0.224   3.607 -0.3350 -0.3824  0.2610
 3350SOL    HW113004   3.022   0.186   3.571 -0.5519 -0.7982  1.1675
 3350SOL    HW213005   3.094   0.318   3.589 -0.5462 -0.5494 -0.5499
 3351SOL     OW13006   7.251   5.608   1.195 -0.2067 -0.2642  0.1694
 3351SOL    HW113007   7.271   5.699   1.218 -0.0710  0.2766 -1.8993
 3351SOL    HW213008   7.162   5.612   1.160 -0.6171 -1.1433  1.0585
 3352SOL     OW13009   3.399   1.587   7.761 -0.1195 -0.2124 -0.5226
 3352SOL    HW113010   3.363   1.643   7.829  1.1240 -0.2961  0.2292
 3352SOL    HW213011   3.397   1.499   7.798 -0.2208 -0.3836 -0.9229
 3353SOL     OW13012   3.732   4.216   1.091 -0.4830 -0.0326  0.4292
 3353SOL    HW113013   3.693   4.303   1.094 -1.7729 -0.5893  0.6008
 3353SOL    HW213014   3.725   4.190   0.999  1.3692  0.6557  0.0557
 3354SOL     OW13015   6.844   5.697   5.191  0.1458  0.2776  0.7763
 3354SOL    HW113016   6.880   5.610   5.211  0.7813  0.3560  0.0508
 3354SOL    HW213017   6.914   5.740   5.141 -0.1372  1.2316  1.1942
 3355SOL     OW13018   3.887   0.645   2.512  0.1285  0.5694 -0.1621
 3355SOL    HW113019   3.875   0.697   2.591  0.5292  0.4697 -0.0379
 3355SOL    HW213020   3.929   0.564   2.541  0.6244  0.6920 -0.5289
 3356SOL     OW13021   3.065   6.749   4.875  0.2230 -0.5176 -0.0987
 3356SOL    HW113022   3.091   6.742   4.783 -0.9152  0.9871 -0.5701
 3356SOL    HW213023   3.147   6.742   4.923  1.2281  1.3792 -1.3895
 3357SOL     OW13024   2.832   3.067   6.449 -0.1638 -0.0810 -0.1246
 3357SOL    HW113025   2.799   3.087   6.362  0.8162  1.3061 -0.2007
 3357SOL    HW213026   2.753   3.068   6.505 -0.9814 -2.2169 -1.1331
 3358SOL     OW13027   3.533   4.554   5.181 -0.4247 -0.1885 -0.6554
 3358SOL    HW113028   3.562   4.489   5.244 -2.6360  0.2840  0.9956
 3358SOL    HW213029   3.563   4.638   5.217  1.1760 -0.1200 -2.0263
 3359SOL     OW13030   6.993   3.208   3.499 -0.5764  0.4080 -0.3220
 3359SOL    HW113031   6.943   3.283   3.530 -1.8749 -0.2090 -0.8406
 3359SOL    HW213032   7.019   3.232   3.410 -0.3661  0.5205 -0.2326
 3360SOL     OW13033   3.332   0.833   7.573 -0.3392  0.7245  0.6753
 3360SOL    HW113034   3.289   0.846   7.658 -1.1266  1.9304  0.1232
 3360SOL    HW213035   3.304   0.908   7.521 -1.5445 -1.0191 -1.3486
 3361SOL     OW13036   4.335   6.684   3.627  0.1067  0.3056 -0.4217
 3361SOL    HW113037   4.391   6.607   3.616 -0.7982 -0.3214 -0.9019
 3361SOL    HW213038   4.354   6.716   3.715 -1.2561 -1.9720  0.8121
 3362SOL     OW13039   2.140   7.352   7.357 -0.2230 -0.1850 -0.0159
 3362SOL    HW113040   2.181   7.285   7.412 -1.4814  1.6621  3.4480
 3362SOL    HW213041   2.212   7.411   7.335  0.0715 -0.1458  0.9848
 3363SOL     OW13042   2.210   7.037   1.293 -0.3727  0.1286  0.2837
 3363SOL    HW113043   2.184   6.989   1.372 -0.4739 -0.9132 -0.3684
 3363SOL    HW213044   2.151   7.004   1.225  0.0427  0.6586 -0.3359
 3364SOL     OW13045   6.173   7.438   6.656  0.8111 -0.2238  0.7663
 3364SOL    HW113046   6.083   7.435   6.688  0.6295  0.1396  0.3104
 3364SOL    HW213047   6.176   7.518   6.602  0.9046 -1.1432 -0.6477
 3365SOL     OW13048   2.268   0.003   3.119  0.4964 -0.8044  0.1965
 3365SOL    HW113049   2.211  -0.053   3.067  1.5199 -0.7811 -0.9897
 3365SOL    HW213050   2.350   0.006   3.071  0.3878  1.9801  0.0278
 3366SOL     OW13051   2.281   2.039   7.174 -0.2472 -0.2000 -0.2437
 3366SOL    HW113052   2.247   1.959   7.133 -0.4079  1.0925 -2.7830
 3366SOL    HW213053   2.361   2.010   7.217  0.0136 -1.6488 -1.5890
 3367SOL     OW13054   2.869   3.651   6.077  0.1171  0.5181  0.3957
 3367SOL    HW113055   2.942   3.690   6.028  1.1496 -0.8806  0.7543
 3367SOL    HW213056   2.793   3.664   6.021  0.8899  0.8349 -0.6167
 3368SOL     OW13057   2.233   0.977   4.370 -0.5129  0.9149  0.0459
 3368SOL    HW113058   2.185   1.059   4.358 -1.2578  0.8341  2.1590
 3368SOL    HW213059   2.167   0.908   4.361 -0.0586  0.5609 -0.7792
 3369SOL     OW13060   7.081   1.224   4.936 -0.4707  0.1147  0.4863
 3369SOL    HW113061   7.012   1.202   4.998  0.6928  1.7111  2.4734
 3369SOL    HW213062   7.089   1.146   4.880 -1.6053 -1.4068  2.3108
 3370SOL     OW13063   3.757   3.582   1.941  0.0644 -0.0267 -0.1589
 3370SOL    HW113064   3.735   3.643   2.011  1.8012  0.7720 -0.2494
 3370SOL    HW213065   3.726   3.624   1.861  0.6663  0.4417 -0.1510
 3371SOL     OW13066   4.465   5.053   2.468 -0.2978 -0.0130 -0.0423
 3371SOL    HW113067   4.523   5.116   2.426 -0.3249 -0.2472 -0.4440
 3371SOL    HW213068   4.490   4.969   2.430  1.9792 -0.7907  2.8178
 3372SOL     OW13069   3.668   4.035   7.983 -0.0128 -0.5449  0.1093
 3372SOL    HW113070   3.618   4.107   8.021 -0.9816 -1.3312  0.3476
 3372SOL    HW213071   3.667   3.966   8.049  3.3636  0.1849  1.1392
 3373SOL     OW13072   2.172   0.847   5.622  0.3504  0.2952  0.7533
 3373SOL    HW113073   2.106   0.797   5.671  1.5501 -0.8378  1.2631
 3373SOL    HW213074   2.187   0.925   5.676 -0.4649  0.5075  0.6946
 3374SOL     OW13075   6.755   1.584   2.837  0.0116 -0.4544 -0.2041
 3374SOL    HW113076   6.775   1.528   2.912  0.6390 -0.6568 -0.5173
 3374SOL    HW213077   6.702   1.530   2.779  0.6289 -0.7432 -0.5133
 3375SOL     OW13078   5.054   4.651   2.102 -0.3418  0.1169 -0.1237
 3375SOL    HW113079   4.991   4.652   2.174  0.0544  0.6404  0.2235
 3375SOL    HW213080   5.007   4.610   2.029 -1.9917  2.8197 -0.6819
 3376SOL     OW13081   5.821   5.696   6.047 -0.7546 -0.1906  0.0868
 3376SOL    HW113082   5.737   5.704   6.093 -0.9526 -2.7749  0.3519
 3376SOL    HW213083   5.813   5.615   5.997  1.5640 -0.4640  0.0493
 3377SOL     OW13084   4.325   5.330   0.253  0.5082 -0.5674  0.2246
 3377SOL    HW113085   4.251   5.372   0.210  0.1769  0.5856  1.8496
 3377SOL    HW213086   4.297   5.316   0.343  1.7415 -1.4874  0.5020
 3378SOL     OW13087   7.697   4.545   2.548  0.0837 -0.3564  0.6625
 3378SOL    HW113088   7.695   4.461   2.501 -0.8004  0.2958 -0.5257
 3378SOL    HW213089   7.691   4.611   2.479  0.5121  0.6926  1.5955
 3379SOL     OW13090   0.169   2.146   6.452  0.2396  0.0974 -0.4188
 3379SOL    HW113091   0.117   2.127   6.374 -2.1638 -1.8314  1.4688
 3379SOL    HW213092   0.156   2.239   6.468  0.1888  0.3689 -1.8722
 3380SOL     OW13093   1.529   1.441   4.876  0.2854  0.0247  0.3052
 3380SOL    HW113094   1.501   1.494   4.951 -1.2620  0.4773 -0.5603
 3380SOL    HW213095   1.448   1.406   4.840  1.1458 -1.4712 -0.2379
 3381SOL     OW13096   1.744   1.025   3.824 -0.5557 -0.1946 -0.4157
 3381SOL    HW113097   1.651   1.014   3.847 -0.4278 -0.1820  0.1059
 3381SOL    HW213098   1.743   1.093   3.756 -0.8665  0.3710  0.1389
 3382SOL     OW13099   2.049   6.449   6.184  0.8779  0.4300 -0.4200
 3382SOL    HW113100   2.043   6.460   6.089 -0.9705 -0.8598 -0.5147
 3382SOL    HW213101   2.139   6.475   6.206  1.5487  0.1402 -2.5908
 3383SOL     OW13102   3.813   5.297   4.741  0.5028  0.8896 -0.0166
 3383SOL    HW113103   3.818   5.270   4.649 -0.3839  2.2735 -0.4955
 3383SOL    HW213104   3.900   5.279   4.776  1.0969  1.1050 -1.3387
 3384SOL     OW13105   4.399   6.978   5.995 -0.3081  0.0251 -0.1187
 3384SOL    HW113106   4.488   6.946   5.978  0.4880  2.5386 -1.2575
 3384SOL    HW213107   4.357   6.978   5.909 -0.1865  2.0230 -0.2347
 3385SOL     OW13108   1.053   7.746   3.392  0.0350  0.5937  0.4407
 3385SOL    HW113109   1.132   7.723   3.344 -1.7257 -0.4623 -2.2101
 3385SOL    HW213110   1.042   7.840   3.377 -0.2713  0.3498 -0.9387
 3386SOL     OW13111   7.038   1.464   4.781  0.0548  0.0324 -0.3982
 3386SOL    HW113112   7.057   1.393   4.842  0.3790 -0.9364 -1.5978
 3386SOL    HW213113   6.943   1.467   4.777 -0.0730  1.6774  1.9117
 3387SOL     OW13114   1.634   2.278   1.287 -0.1122  0.7018 -0.3097
 3387SOL    HW113115   1.646   2.218   1.214 -1.4724 -1.0523  0.8092
 3387SOL    HW213116   1.707   2.260   1.346 -0.6632 -0.1098  0.1506
 3388SOL     OW13117   2.801   7.761   1.398 -0.2427  0.6888  0.1889
 3388SOL    HW113118   2.713   7.727   1.380  0.0565 -0.0653  0.1151
 3388SOL    HW213119   2.859   7.688   1.376  0.5864  1.9314 -2.1137
 3389SOL     OW13120   2.499   7.204   3.256  0.1846 -0.2997 -0.3213
 3389SOL    HW113121   2.452   7.180   3.336  0.7474 -0.5747 -0.0685
 3389SOL    HW213122   2.552   7.280   3.281  0.8865 -0.8070 -0.2396
 3390SOL     OW13123   3.009   4.067   6.680 -0.5354  0.0581 -0.3104
 3390SOL    HW113124   2.948   4.008   6.723 -1.4239  1.1182 -0.0645
 3390SOL    HW213125   3.072   4.009   6.637 -1.5288 -1.0715 -0.3128
 3391SOL     OW13126   5.252   1.746   1.554 -0.2206 -0.3328  0.2285
 3391SOL    HW113127   5.170   1.723   1.509  0.2518 -0.8004 -0.4152
 3391SOL    HW213128   5.278   1.665   1.598 -0.2252 -0.1166  0.6326
 3392SOL     OW13129   5.056   1.408   7.344 -0.2195  0.0491  0.4257
 3392SOL    HW113130   5.108   1.330   7.321 -1.7470 -0.3640 -2.1050
 3392SOL    HW213131   5.106   1.481   7.309 -0.4050 -0.1607 -0.2994
 3393SOL     OW13132   4.530   2.585   5.542 -0.0496 -0.3966 -0.0285
 3393SOL    HW113133   4.571   2.547   5.620 -2.0638 -0.1920  1.1939
 3393SOL    HW213134   4.582   2.663   5.523  0.3160 -0.3036  1.2825
 3394SOL     OW13135   2.328   4.618   7.439  0.5458 -0.3548 -0.0999
 3394SOL    HW113136   2.238   4.642   7.461 -0.0988 -0.5703 -2.3069
 3394SOL    HW213137   2.340   4.531   7.476 -1.6809 -2.2125 -3.2587
 3395SOL     OW13138   0.442   0.454   2.280  0.2864 -0.7187  0.1023
 3395SOL    HW113139   0.456   0.486   2.192  0.8456 -0.2826  0.3483
 3395SOL    HW213140   0.356   0.488   2.305  0.3645 -0.3921 -0.0720
 3396SOL     OW13141   7.719   5.855   7.485  0.3174 -0.2060  0.4415
 3396SOL    HW113142   7.732   5.944   7.454 -0.6432 -0.2983 -0.2553
 3396SOL    HW213143   7.672   5.865   7.568 -0.4123 -0.0764  0.0208
 3397SOL     OW13144   5.309   6.284   8.028 -0.5222  0.2160 -0.0540
 3397SOL    HW113145   5.344   6.340   8.097 -0.4990  0.2676 -0.1080
 3397SOL    HW213146   5.384   6.262   7.974  0.2747 -2.9318  2.0550
 3398SOL     OW13147   2.731   7.040   4.074  0.2103 -0.0865  0.3870
 3398SOL    HW113148   2.716   6.984   4.150  0.2989  0.6449  0.9591
 3398SOL    HW213149   2.705   6.987   3.999 -0.4793 -0.5973  0.9761
 3399SOL     OW13150   6.440   5.388   0.872  0.3884  0.3506 -0.3337
 3399SOL    HW113151   6.432   5.303   0.917 -0.5415 -0.3151 -1.6829
 3399SOL    HW213152   6.419   5.368   0.781  1.3393  1.8305 -0.9076
 3400SOL     OW13153   2.961   6.183   1.798  0.6609  1.0072 -0.2154
 3400SOL    HW113154   2.941   6.095   1.831 -1.2233  1.1793 -0.7775
 3400SOL    HW213155   3.042   6.207   1.843  1.4770 -1.1815 -0.3827
 3401SOL     OW13156   0.157   7.138   0.440 -0.4504  0.5299 -0.5178
 3401SOL    HW113157   0.069   7.127   0.404 -1.2224 -0.0634  1.4263
 3401SOL    HW213158   0.143   7.175   0.527  1.2170  0.1600 -0.0552
 3402SOL     OW13159   7.844   1.076   1.419  0.0724  0.0728 -0.5419
 3402SOL    HW113160   7.858   1.155   1.471 -0.4849 -0.1430 -0.0636
 3402SOL    HW213161   7.772   1.099   1.360 -0.3251 -0.1872 -0.1635
 3403SOL     OW13162   5.294   6.210   0.675  0.1259  0.2103 -0.7566
 3403SOL    HW113163   5.368   6.165   0.634  1.1953 -0.2391  1.4640
 3403SOL    HW213164   5.247   6.141   0.722  0.0526  0.9167  0.2523
 3404SOL     OW13165   6.776   4.866   4.559 -1.1956 -0.2236 -0.0549
 3404SOL    HW113166   6.850   4.852   4.499 -2.2281 -1.4137 -1.1250
 3404SOL    HW213167   6.811   4.922   4.628  1.7501 -3.5199  1.4181
 3405SOL     OW13168   7.593   0.463   5.145  0.1539 -0.2712  0.3022
 3405SOL    HW113169   7.576   0.525   5.075 -1.2959  0.1341  0.9810
 3405SOL    HW213170   7.536   0.491   5.217  3.1556  0.7231  2.5465
 3406SOL     OW13171   6.476   4.783   7.222 -0.1573  0.4266  0.1958
 3406SOL    HW113172   6.554   4.773   7.168 -0.2731  0.7233 -0.0277
 3406SOL    HW213173   6.404   4.763   7.163 -0.2912  0.8552  0.2093
 3407SOL     OW13174   2.269   3.938   3.058 -0.9439  0.2177  0.2284
 3407SOL    HW113175   2.303   3.954   3.146 -1.3392  0.6047  0.3156
 3407SOL    HW213176   2.251   3.844   3.057  0.0320  0.0167  0.2073
 3408SOL     OW13177   2.139   1.265   4.291 -0.1902 -0.0290  0.4487
 3408SOL    HW113178   2.158   1.316   4.213  0.6862 -2.1865 -0.8490
 3408SOL    HW213179   2.215   1.280   4.348  0.7079 -0.8326 -0.4820
 3409SOL     OW13180   4.880   0.451   6.593 -0.1076  0.7624 -0.5031
 3409SOL    HW113181   4.937   0.523   6.619 -1.7792  1.5613  1.1184
 3409SOL    HW213182   4.923   0.373   6.628  0.7016  1.1638 -0.5615
 3410SOL     OW13183   5.449   2.912   5.498 -0.1314  0.1052  0.0623
 3410SOL    HW113184   5.368   2.868   5.521  0.0468 -0.6962 -0.7818
 3410SOL    HW213185   5.424   3.003   5.479 -0.4657  0.4752  2.0751
 3411SOL     OW13186   1.545   0.019   6.375 -0.5224 -0.1522 -0.5366
 3411SOL    HW113187   1.587  -0.049   6.428  0.4894  0.1451 -0.9280
 3411SOL    HW213188   1.618   0.063   6.330 -0.4667  4.3528  3.2082
 3412SOL     OW13189   1.828   5.398   0.498 -0.5596  0.3088  0.3466
 3412SOL    HW113190   1.823   5.452   0.419  2.9117  0.2485 -0.0790
 3412SOL    HW213191   1.846   5.460   0.569  0.5550  0.0223  0.3342
 3413SOL     OW13192   0.692   5.164   4.096 -0.1732  0.2263  0.2088
 3413SOL    HW113193   0.604   5.146   4.130  0.4529  0.3101  1.9627
 3413SOL    HW213194   0.679   5.234   4.032 -1.7056 -1.4975 -1.4967
 3414SOL     OW13195   3.887   2.855   6.380  0.0981 -0.6161  0.0154
 3414SOL    HW113196   3.797   2.874   6.357  0.7116 -0.5148 -2.5453
 3414SOL    HW213197   3.926   2.941   6.400 -0.5023 -0.7332  1.9005
 3415SOL     OW13198   5.252   6.068   7.517 -0.0898  0.2811 -0.1704
 3415SOL    HW113199   5.266   5.997   7.580 -2.4703 -0.0482  0.1012
 3415SOL    HW213200   5.224   6.142   7.571  3.5102  1.9379 -0.3119
 3416SOL     OW13201   8.073   6.813   1.716 -0.0683  0.4332 -0.2088
 3416SOL    HW113202   8.065   6.791   1.623 -0.8773 -3.9043  0.6353
 3416SOL    HW213203   7.999   6.767   1.757  1.8529 -0.1849  2.8598
 3417SOL     OW13204   3.252   4.652   3.857 -0.7730  0.0285  0.3101
 3417SOL    HW113205   3.276   4.716   3.925  0.2678 -1.1217  1.0678
 3417SOL    HW213206   3.173   4.610   3.890 -0.5029 -0.2404  0.6247
 3418SOL     OW13207   6.726   6.690   1.047  0.0247 -0.6591 -0.0166
 3418SOL    HW113208   6.722   6.756   1.117  1.3417 -0.7214  0.1539
 3418SOL    HW213209   6.636   6.659   1.037 -0.9029  2.0220 -0.9286
 3419SOL     OW13210   7.976   4.797   4.569 -0.5724  0.0768 -0.5111
 3419SOL    HW113211   8.057   4.845   4.560 -1.3674  1.3393 -1.1625
 3419SOL    HW213212   7.916   4.858   4.612 -1.1697 -0.8633  0.0466
 3420SOL     OW13213   2.786   2.465   2.446 -0.1503  0.0621  0.0985
 3420SOL    HW113214   2.733   2.418   2.382 -0.2421 -0.3592  0.4752
 3420SOL    HW213215   2.824   2.538   2.397 -0.9080  0.2488 -0.2259
 3421SOL     OW13216   4.773   7.455   3.586 -0.6054 -0.0055 -0.1784
 3421SOL    HW113217   4.702   7.402   3.624  0.0458 -0.2383  0.7468
 3421SOL    HW213218   4.739   7.544   3.586 -0.4765  0.0867  1.4292
 3422SOL     OW13219   6.168   4.660   5.022  0.0559 -0.3720 -0.2412
 3422SOL    HW113220   6.152   4.746   4.982 -3.4292 -1.3145 -1.2639
 3422SOL    HW213221   6.233   4.619   4.965 -0.1185  0.6567 -1.2197
 3423SOL     OW13222   8.066   2.315   4.587  0.1851  0.0258  0.2600
 3423SOL    HW113223   8.058   2.350   4.498  1.2827 -1.2485 -0.3640
 3423SOL    HW213224   8.150   2.271   4.589 -0.1951 -0.7184  1.6896
 3424SOL     OW13225   2.906   1.226   5.426 -0.2145  0.0435 -0.0132
 3424SOL    HW113226   2.985   1.172   5.428 -0.8469 -0.8877  0.4980
 3424SOL    HW213227   2.867   1.208   5.340 -1.1020 -1.3703  0.6357
 3425SOL     OW13228   2.559   6.601   4.123 -0.5289 -0.3409 -0.0789
 3425SOL    HW113229   2.526   6.564   4.041  0.4155 -0.8347 -0.2619
 3425SOL    HW213230   2.654   6.585   4.119 -0.4567 -0.2773  1.0644
 3426SOL     OW13231   0.919   7.396   5.015  0.2525  0.1680  0.4126
 3426SOL    HW113232   0.969   7.433   5.087 -1.0114  0.4909  1.1698
 3426SOL    HW213233   0.970   7.320   4.986  1.2947  0.6519  0.9551
 3427SOL     OW13234   3.969   1.690   5.373  0.1875  0.2523 -0.6338
 3427SOL    HW113235   4.053   1.651   5.399 -1.8242 -3.1606  1.4752
 3427SOL    HW213236   3.970   1.685   5.277  2.2869  0.1917 -0.6723
 3428SOL     OW13237   4.457   5.909   6.443 -0.5611  0.5613 -0.2643
 3428SOL    HW113238   4.447   5.814   6.441  2.0060  0.1983  0.0934
 3428SOL    HW213239   4.542   5.925   6.401  0.5013  2.3896  2.2909
 3429SOL     OW13240   5.592   5.529   5.223  0.2433 -0.1961 -0.0083
 3429SOL    HW113241   5.563   5.574   5.302 -1.0580 -0.8744 -0.0733
 3429SOL    HW213242   5.687   5.542   5.221  0.0411  1.5285  0.5745
 3430SOL     OW13243   6.470   3.605   4.928  0.0393 -0.2814 -0.1490
 3430SOL    HW113244   6.547   3.581   4.875 -0.5776  0.9047 -1.6683
 3430SOL    HW213245   6.489   3.693   4.960 -0.1309 -0.5104  0.6019
 3431SOL     OW13246   0.401   5.611   6.760 -0.3292 -0.2376 -0.0473
 3431SOL    HW113247   0.391   5.664   6.681 -0.2934 -0.8880 -0.5045
 3431SOL    HW213248   0.314   5.607   6.799 -0.9869 -2.1053 -1.5195
 3432SOL     OW13249   4.369   6.441   4.914 -0.4061  0.0228 -0.2817
 3432SOL    HW113250   4.386   6.513   4.853  0.3047  1.0075  1.0222
 3432SOL    HW213251   4.407   6.471   4.997  0.3427 -2.0764  0.1815
 3433SOL     OW13252   3.496   4.404   2.092  0.7096  0.0380  0.1035
 3433SOL    HW113253   3.462   4.451   2.169  0.5646 -1.8105  1.2293
 3433SOL    HW213254   3.429   4.339   2.073  1.6098 -0.7524 -0.4219
 3434SOL     OW13255   5.699   0.909   4.896 -0.4144 -0.1568 -0.1652
 3434SOL    HW113256   5.777   0.956   4.865  0.5928 -0.7260  1.3749
 3434SOL    HW213257   5.626   0.959   4.860  0.6127  2.3211  0.9340
 3435SOL     OW13258   4.239   0.671   0.341  0.0599  0.1676 -0.6797
 3435SOL    HW113259   4.164   0.729   0.353  0.7295  0.8317  0.4804
 3435SOL    HW213260   4.212   0.588   0.382  0.4817  0.8725  1.0985
 3436SOL     OW13261   3.805   2.559   2.534  0.3158 -0.2044 -0.0726
 3436SOL    HW113262   3.746   2.554   2.608  0.2895  2.5405  0.1724
 3436SOL    HW213263   3.881   2.508   2.560  0.4802  1.0340  2.0511
 3437SOL     OW13264   3.159   7.283   0.841 -0.2338  0.2087  0.4796
 3437SOL    HW113265   3.143   7.204   0.892  2.0288 -0.9476 -0.4320
 3437SOL    HW213266   3.187   7.251   0.755  1.2066  1.9540  0.2271
 3438SOL     OW13267   2.674   2.879   3.236  0.5864 -0.1070  0.0100
 3438SOL    HW113268   2.724   2.953   3.203 -0.2850  0.9668  1.0004
 3438SOL    HW213269   2.675   2.815   3.164 -1.1362  2.0585 -2.1379
 3439SOL     OW13270   4.417   7.819   5.993 -0.2063 -0.2203  0.1953
 3439SOL    HW113271   4.372   7.903   5.997  0.2987  0.0263  0.9249
 3439SOL    HW213272   4.376   7.767   6.062 -2.7872 -1.7686 -2.2932
 3440SOL     OW13273   1.688   7.010   2.830  0.1643  0.3749 -0.1935
 3440SOL    HW113274   1.658   7.042   2.915 -2.5086  0.0439 -0.9102
 3440SOL    HW213275   1.671   7.082   2.770 -3.0339 -1.0961 -1.2828
 3441SOL     OW13276   1.936   1.149   7.856 -0.2509 -0.1297 -0.0282
 3441SOL    HW113277   1.866   1.194   7.904 -0.5002 -0.3410 -0.1849
 3441SOL    HW213278   1.928   1.058   7.885  0.0831 -0.1184  0.0957
 3442SOL     OW13279   0.827   2.091   6.339  0.3926 -0.3222  0.1858
 3442SOL    HW113280   0.865   2.179   6.335  0.1346 -0.1850  0.7242
 3442SOL    HW213281   0.901   2.035   6.363  0.1216  0.0553  2.0415
 3443SOL     OW13282   6.703   6.895   0.009  0.2395 -0.0628  0.0530
 3443SOL    HW113283   6.653   6.880  -0.072 -1.3233  0.1353  0.9410
 3443SOL    HW213284   6.700   6.811   0.055  0.0981  0.1601  0.4508
 3444SOL     OW13285   2.036   0.818   3.541  0.4018 -0.5368  0.0204
 3444SOL    HW113286   1.952   0.801   3.583 -0.2483 -1.0259 -1.4029
 3444SOL    HW213287   2.090   0.857   3.610 -0.9237 -0.3682  1.0099
 3445SOL     OW13288   1.758   2.632   1.681 -0.4344  0.2796  0.3921
 3445SOL    HW113289   1.755   2.538   1.699 -0.5304  0.0677 -0.6786
 3445SOL    HW213290   1.839   2.662   1.721 -0.8750 -0.0627  1.5935
 3446SOL     OW13291   3.518   3.522   1.368  0.2181 -0.3199 -0.3430
 3446SOL    HW113292   3.511   3.544   1.460  0.6010 -1.0797 -0.1180
 3446SOL    HW213293   3.428   3.520   1.336  0.1933  2.7476 -0.7174
 3447SOL     OW13294   5.168   6.243   1.401 -0.7520  0.3400  0.1475
 3447SOL    HW113295   5.139   6.214   1.487 -3.5199  2.5147  0.0886
 3447SOL    HW213296   5.134   6.178   1.340 -0.4528 -0.1759  0.5218
 3448SOL     OW13297   5.003   7.668   1.904  0.6234  0.4459 -0.1198
 3448SOL    HW113298   4.928   7.679   1.846 -0.7519 -1.7762  1.0875
 3448SOL    HW213299   4.966   7.680   1.992  1.1925 -2.3640  0.6090
 3449SOL     OW13300   3.826   5.724   0.199  0.0918  0.0440 -0.6804
 3449SOL    HW113301   3.754   5.673   0.237  0.0267  0.7039  0.1028
 3449SOL    HW213302   3.903   5.694   0.246  0.1740  0.1066 -0.7765
 3450SOL     OW13303   4.731   1.444   2.253  0.2038 -0.2655 -0.8600
 3450SOL    HW113304   4.805   1.457   2.313 -1.0583 -1.6121  1.1206
 3450SOL    HW213305   4.769   1.452   2.166  2.4416  0.2836  0.1009
 3451SOL     OW13306   2.442   3.632   1.880 -0.5312 -0.3693 -0.2191
 3451SOL    HW113307   2.437   3.537   1.883 -0.4699 -0.3742 -0.2711
 3451SOL    HW213308   2.536   3.652   1.886 -0.6559 -0.2193  2.2342
 3452SOL     OW13309   7.536   7.725   7.765  0.5100 -0.2512  0.4800
 3452SOL    HW113310   7.518   7.755   7.676 -0.7775 -0.4272  0.6692
 3452SOL    HW213311   7.623   7.686   7.760  0.6065  0.0837 -0.6128
 3453SOL     OW13312   1.865   6.856   2.251 -0.5681 -0.1528  0.8180
 3453SOL    HW113313   1.912   6.845   2.334 -1.2572  0.5029  1.3015
 3453SOL    HW213314   1.912   6.926   2.206 -0.6562  0.0222  0.9966
 3454SOL     OW13315   3.167   5.136   6.605 -0.2297  0.2229 -0.2592
 3454SOL    HW113316   3.196   5.154   6.516 -0.9675 -1.1101 -0.8018
 3454SOL    HW213317   3.072   5.137   6.601 -0.2859  1.5563  0.8446
 3455SOL     OW13318   2.351   4.496   3.976 -0.3902 -0.1544  0.0162
 3455SOL    HW113319   2.370   4.409   4.011  0.8793  0.2278  0.3190
 3455SOL    HW213320   2.437   4.537   3.965 -1.0125  1.5564  1.1547
 3456SOL     OW13321   1.467   1.808   7.418  0.6470  0.4167  0.4052
 3456SOL    HW113322   1.531   1.809   7.489  0.1570  0.0887  0.8562
 3456SOL    HW213323   1.382   1.813   7.463  0.2967 -0.7668 -0.1151
 3457SOL     OW13324   4.653   0.094   1.181  0.6040 -0.0872  0.4753
 3457SOL    HW113325   4.708   0.170   1.201 -0.7226  1.2058 -0.6169
 3457SOL    HW213326   4.576   0.105   1.237 -0.3385  0.2876 -0.8479
 3458SOL     OW13327   5.846   2.877   3.512  0.2091 -0.4211  0.3330
 3458SOL    HW113328   5.934   2.860   3.478 -0.4138 -1.4521 -0.8347
 3458SOL    HW213329   5.832   2.807   3.576 -0.4164 -1.3184 -0.7643
 3459SOL     OW13330   5.480   4.454   6.827 -0.0151 -0.2243  0.2742
 3459SOL    HW113331   5.575   4.458   6.843  0.1020 -1.8444  0.2204
 3459SOL    HW213332   5.448   4.391   6.892 -0.9712 -0.0976 -0.0576
 3460SOL     OW13333   2.904   6.378   4.683  0.1851  0.4248 -0.8867
 3460SOL    HW113334   2.874   6.470   4.683 -0.9540  0.1489 -3.5972
 3460SOL    HW213335   2.841   6.333   4.627  1.1036 -1.9238 -0.1266
 3461SOL     OW13336   2.633   2.778   5.429 -0.2208  0.1067 -0.1729
 3461SOL    HW113337   2.666   2.864   5.403 -0.7771 -0.5642 -3.6080
 3461SOL    HW213338   2.712   2.726   5.446  0.4843 -0.1272 -3.5124
 3462SOL     OW13339   5.765   0.601   2.045 -0.1916 -0.7796  0.0877
 3462SOL    HW113340   5.763   0.561   2.132  3.5862 -0.3566  0.5394
 3462SOL    HW213341   5.853   0.580   2.012 -0.2193  2.1002 -2.1291
 3463SOL     OW13342   7.471   6.121   5.657  0.2396  0.4343 -0.3616
 3463SOL    HW113343   7.448   6.033   5.628 -0.9053  0.0501  1.5136
 3463SOL    HW213344   7.386   6.165   5.670  0.6993  0.9575  1.0924
 3464SOL     OW13345   7.389   2.049   1.993 -0.3491 -0.1615 -0.0345
 3464SOL    HW113346   7.376   1.972   2.049  0.0830 -0.1602  0.0690
 3464SOL    HW213347   7.348   2.024   1.910 -0.3798 -0.4287  0.0579
 3465SOL     OW13348   5.359   5.858   6.084  0.0766 -0.5227 -0.1986
 3465SOL    HW113349   5.387   5.949   6.089 -0.2471 -0.4661  0.7561
 3465SOL    HW213350   5.431   5.809   6.123 -0.3561 -0.5420  0.5891
 3466SOL     OW13351   4.905   6.668   7.311  0.2489 -0.1779 -0.0944
 3466SOL    HW113352   4.885   6.744   7.257  0.4406  0.1546  0.2972
 3466SOL    HW213353   4.880   6.694   7.399  0.3997 -0.5380  0.0566
 3467SOL     OW13354   4.593   2.882   3.981  0.0872  0.3613  0.3525
 3467SOL    HW113355   4.658   2.938   3.938  0.3620 -0.2668 -0.0586
 3467SOL    HW213356   4.513   2.896   3.931 -0.4475  2.0460  1.5704
 3468SOL     OW13357   1.120   2.145   0.727  0.2286 -0.3831  0.1504
 3468SOL    HW113358   1.103   2.156   0.820 -1.7491  2.0102 -0.4113
 3468SOL    HW213359   1.125   2.234   0.692 -1.6332 -1.1619 -2.4321
 3469SOL     OW13360   5.356   6.347   3.519 -0.1608  0.1140 -0.1277
 3469SOL    HW113361   5.292   6.350   3.448  0.7990 -1.1082 -1.0936
 3469SOL    HW213362   5.419   6.416   3.498  1.6281 -1.9379 -2.0539
 3470SOL     OW13363   3.997   3.611   6.998  0.3186  0.7325 -0.2230
 3470SOL    HW113364   3.905   3.605   7.021  0.5417  0.9672  0.7443
 3470SOL    HW213365   3.997   3.656   6.913 -0.3226  3.2784  1.0484
 3471SOL     OW13366   1.936   3.148   5.428  0.7820  0.2845 -0.4749
 3471SOL    HW113367   2.024   3.180   5.447  0.5978  0.0240  0.9509
 3471SOL    HW213368   1.949   3.069   5.376  1.3776  0.3795 -0.4773
 3472SOL     OW13369   5.867   6.506   0.070 -0.1094 -0.6730 -0.2062
 3472SOL    HW113370   5.830   6.471   0.152  1.0021 -1.7593 -0.1346
 3472SOL    HW213371   5.936   6.444   0.047 -0.4220 -0.4003 -1.9994
 3473SOL     OW13372   3.076   2.390   3.652  0.1677 -0.4028 -0.4346
 3473SOL    HW113373   3.110   2.461   3.707  1.3026 -1.6086  0.4917
 3473SOL    HW213374   2.982   2.408   3.644 -0.0151 -0.1000  1.7944
 3474SOL     OW13375   4.432   2.380   2.850  0.1337 -0.2214  0.0939
 3474SOL    HW113376   4.410   2.468   2.818 -2.4839 -0.7212  0.3057
 3474SOL    HW213377   4.377   2.368   2.927 -1.1168 -2.7804 -1.0865
 3475SOL     OW13378   0.779   6.485   0.940  0.4743  0.0001  0.0150
 3475SOL    HW113379   0.741   6.457   0.857  1.1204 -1.4383  0.1717
 3475SOL    HW213380   0.716   6.456   1.006 -1.3533  3.3922  0.0014
 3476SOL     OW13381   7.954   1.916   4.811  0.1558 -0.0747  0.0741
 3476SOL    HW113382   8.040   1.877   4.798  0.2143  0.0983 -0.0575
 3476SOL    HW213383   7.928   1.887   4.899 -0.5147 -1.7425 -0.6344
 3477SOL     OW13384   3.147   1.604   1.482 -0.1496 -0.0989  0.3929
 3477SOL    HW113385   3.169   1.540   1.413 -0.6601 -0.8878  0.9584
 3477SOL    HW213386   3.230   1.650   1.498 -0.1655  0.6062 -1.2348
 3478SOL     OW13387   2.896   2.960   2.830 -0.0494 -0.4208  0.1723
 3478SOL    HW113388   2.816   2.930   2.788 -0.1604 -0.9262  0.7335
 3478SOL    HW213389   2.929   2.884   2.877 -0.2369  0.2625  1.4709
 3479SOL     OW13390   5.351   3.660   7.556  0.8091 -0.0440  0.4071
 3479SOL    HW113391   5.300   3.579   7.556  1.7421 -0.7066  2.6545
 3479SOL    HW213392   5.361   3.681   7.463 -0.2352 -2.0044 -0.2196
 3480SOL     OW13393   0.288   2.172   8.011 -0.0238  0.1745  0.8412
 3480SOL    HW113394   0.360   2.166   8.073  0.3837  1.5756  0.5562
 3480SOL    HW213395   0.219   2.217   8.058  0.2340  1.1133  0.3574
 3481SOL     OW13396   3.751   6.881   0.472 -0.1789 -0.0212 -0.2840
 3481SOL    HW113397   3.785   6.881   0.382  0.4605 -0.4676 -0.0505
 3481SOL    HW213398   3.701   6.962   0.479 -1.9783 -0.9443 -1.6954
 3482SOL     OW13399   1.159   7.152   1.269  0.8291 -0.4621 -0.1851
 3482SOL    HW113400   1.177   7.207   1.192 -0.2468  1.8160  1.0881
 3482SOL    HW213401   1.065   7.135   1.265  0.5170  0.7181  1.1952
 3483SOL     OW13402   7.706   7.764   1.113  0.2171 -0.3168  0.6465
 3483SOL    HW113403   7.724   7.849   1.074 -0.0095 -1.0449 -1.1195
 3483SOL    HW213404   7.649   7.784   1.188  0.2950  1.0730  0.3660
 3484SOL     OW13405   3.001   7.986   8.038 -0.7600  0.3009 -0.1494
 3484SOL    HW113406   3.026   7.932   8.113  0.0457  0.2309 -0.4630
 3484SOL    HW213407   3.065   7.964   7.970 -1.7921 -0.0356 -1.0461
 3485SOL     OW13408   0.456   4.826   5.147 -0.0442 -0.1027 -0.1506
 3485SOL    HW113409   0.543   4.818   5.108 -0.0345 -1.0152  0.0152
 3485SOL    HW213410   0.473   4.858   5.236  0.2554 -1.5356  0.3371
 3486SOL     OW13411   8.086   6.642   2.079 -0.7046  0.6490  0.2431
 3486SOL    HW113412   8.033   6.711   2.040  0.6160  1.9395  0.6778
 3486SOL    HW213413   8.157   6.628   2.017 -2.1970 -2.0596 -1.0292
 3487SOL     OW13414   6.099   2.850   7.602  0.0178  0.0106  0.1385
 3487SOL    HW113415   6.159   2.785   7.565 -1.0001 -0.8645 -0.0148
 3487SOL    HW213416   6.016   2.804   7.610 -1.1226  1.6778 -1.3092
 3488SOL     OW13417   6.546   1.194   2.599  0.8846 -0.0050 -0.1979
 3488SOL    HW113418   6.527   1.102   2.617  2.2023 -0.5136 -1.2334
 3488SOL    HW213419   6.635   1.208   2.631  0.5954  1.0003  0.2171
 3489SOL     OW13420   5.951   4.506   6.678 -0.1743  0.0954 -0.3145
 3489SOL    HW113421   5.879   4.503   6.740  0.5638 -3.0670  0.5868
 3489SOL    HW213422   5.909   4.490   6.593 -0.9609  2.5399 -0.4432
 3490SOL     OW13423   5.023   0.817   4.802  0.0287  0.2419 -0.2014
 3490SOL    HW113424   5.047   0.861   4.721  0.6564 -1.7948 -1.1685
 3490SOL    HW213425   4.955   0.872   4.840 -0.4687  1.1003 -2.2353
 3491SOL     OW13426   4.440   8.073   1.740 -0.1399 -0.1962  0.2122
 3491SOL    HW113427   4.530   8.060   1.770 -0.1600 -3.3303 -0.6990
 3491SOL    HW213428   4.387   8.070   1.820  0.3167 -1.9255  0.4804
 3492SOL     OW13429   4.059   1.178   6.204 -0.1450  0.6870 -0.1820
 3492SOL    HW113430   4.095   1.218   6.124 -0.7475  0.6064 -0.4992
 3492SOL    HW213431   4.065   1.247   6.270 -1.8731  1.6096 -0.9098
 3493SOL     OW13432   0.479   7.013   6.424 -0.2696 -0.6924  0.2476
 3493SOL    HW113433   0.569   6.985   6.435  0.4191  1.1352 -0.3576
 3493SOL    HW213434   0.458   6.995   6.332  0.2941  0.9501 -0.2406
 3494SOL     OW13435   3.883   3.959   0.515 -0.4373  0.9470  0.1625
 3494SOL    HW113436   3.946   4.002   0.572  0.5244 -0.6650  0.3746
 3494SOL    HW213437   3.838   3.896   0.571 -1.2069  1.0373 -0.3299
 3495SOL     OW13438   2.575   2.604   3.359 -0.1159  0.2842  0.0595
 3495SOL    HW113439   2.559   2.697   3.377  0.1240  0.3210  0.0814
 3495SOL    HW213440   2.670   2.598   3.348 -0.2760  0.3365 -1.5690
 3496SOL     OW13441   5.701   5.479   4.582  0.1852  0.4167 -0.2340
 3496SOL    HW113442   5.732   5.391   4.603 -1.8376 -0.7217 -1.6860
 3496SOL    HW213443   5.626   5.465   4.525 -0.7407  3.0868  0.1902
 3497SOL     OW13444   0.333   2.890   6.102 -0.3939  0.5355 -0.1437
 3497SOL    HW113445   0.344   2.894   6.197 -2.0739  0.0844  0.1027
 3497SOL    HW213446   0.328   2.796   6.083 -1.8697  0.6448 -0.4141
 3498SOL     OW13447   1.373   0.302   5.331  0.1642  0.2904 -0.1550
 3498SOL    HW113448   1.298   0.352   5.362  0.4354 -0.4833  1.9609
 3498SOL    HW213449   1.336   0.226   5.287 -0.2845  0.3054  0.1993
 3499SOL     OW13450   7.410   7.840   7.988 -0.4279 -0.3060 -0.0695
 3499SOL    HW113451   7.461   7.784   7.930  0.4822 -0.4735  0.8501
 3499SOL    HW213452   7.381   7.912   7.933  0.4936 -0.4032 -0.7060
 3500SOL     OW13453   5.767   3.603   1.505 -0.3268 -0.4898 -0.3866
 3500SOL    HW113454   5.769   3.637   1.416  0.5199 -0.3495 -0.3303
 3500SOL    HW213455   5.801   3.675   1.559 -2.8678  0.2340  0.3589
 3501SOL     OW13456   5.004   1.852   2.450 -0.0190 -0.3468  0.5937
 3501SOL    HW113457   5.097   1.871   2.457  0.3437 -1.7864  0.0556
 3501SOL    HW213458   4.961   1.937   2.459  1.4712  0.7092 -1.5081
 3502SOL     OW13459   4.719   5.139   7.345  0.4203  0.3726 -0.3150
 3502SOL    HW113460   4.702   5.184   7.428 -0.9591  2.8661 -1.8121
 3502SOL    HW213461   4.772   5.201   7.295  1.7587 -1.3390 -1.1246
 3503SOL     OW13462   4.351   0.266   4.935 -0.4280  0.6245 -0.0759
 3503SOL    HW113463   4.433   0.237   4.975 -0.5085  0.7813  0.2087
 3503SOL    HW213464   4.290   0.193   4.948 -0.8636  1.1979  1.3492
 3504SOL     OW13465   3.869   1.285   2.036 -0.7416  0.3392 -0.1351
 3504SOL    HW113466   3.827   1.205   2.004 -1.1198  0.2164  0.6362
 3504SOL    HW213467   3.951   1.256   2.075  0.2735  0.6223 -1.9644
 3505SOL     OW13468   4.148   0.866   7.270 -0.3341 -0.0239  0.2633
 3505SOL    HW113469   4.218   0.851   7.206  0.5448  1.1047  0.9152
 3505SOL    HW213470   4.072   0.891   7.217 -0.1577 -0.8930 -0.4342
 3506SOL     OW13471   2.901   4.836   3.215  0.1665 -0.5839  0.0720
 3506SOL    HW113472   2.877   4.889   3.291 -1.4367 -1.3302  0.1227
 3506SOL    HW213473   2.997   4.834   3.216  0.4479  3.8552 -1.0242
 3507SOL     OW13474   1.763   1.423   6.111  0.2125 -0.2743  0.1402
 3507SOL    HW113475   1.694   1.457   6.168 -0.4276  0.0401 -0.7908
 3507SOL    HW213476   1.718   1.399   6.030  1.2973  0.6641 -0.7845
 3508SOL     OW13477   3.100   3.644   2.331  0.0794  0.8144  0.4491
 3508SOL    HW113478   3.149   3.563   2.321  0.6366  1.3979 -2.0082
 3508SOL    HW213479   3.138   3.686   2.408 -1.3034 -1.9181  2.8082
 3509SOL     OW13480   7.752   7.364   4.845  0.1024 -0.7596 -0.7888
 3509SOL    HW113481   7.788   7.453   4.852 -0.3257 -0.6239 -0.2446
 3509SOL    HW213482   7.753   7.330   4.934  2.1081 -2.0577 -1.2424
 3510SOL     OW13483   3.817   0.156   7.897  0.0362 -0.4910 -0.6455
 3510SOL    HW113484   3.742   0.129   7.844  0.3719 -2.0088 -0.3874
 3510SOL    HW213485   3.890   0.159   7.835 -0.1136  0.4502 -0.7891
 3511SOL     OW13486   0.070   3.669   5.813  0.4019  0.2197 -0.1229
 3511SOL    HW113487   0.149   3.614   5.810  0.0754 -0.2691  0.0465
 3511SOL    HW213488   0.035   3.665   5.723  0.0797 -0.3027  0.0213
 3512SOL     OW13489   6.677   6.188   1.130  0.3650  0.0470 -0.4110
 3512SOL    HW113490   6.622   6.266   1.123 -0.3868 -0.3052  1.1714
 3512SOL    HW213491   6.634   6.123   1.074  1.5663  1.0055 -2.5882
 3513SOL     OW13492   1.350   1.532   7.009  0.0680 -0.6423 -0.4640
 3513SOL    HW113493   1.405   1.560   7.082  1.1465  1.6509 -2.0343
 3513SOL    HW213494   1.265   1.513   7.049  1.1823 -1.4814  1.6276
 3514SOL     OW13495   4.948   2.751   7.293  0.2870 -0.2670 -0.0924
 3514SOL    HW113496   4.860   2.772   7.262  0.7074  1.4966 -0.2298
 3514SOL    HW213497   5.004   2.766   7.217  0.8775  0.2352  0.4258
 3515SOL     OW13498   7.033   3.257   5.485  0.0829 -0.3678 -0.4328
 3515SOL    HW113499   6.965   3.193   5.464 -0.2577 -0.5958  1.2664
 3515SOL    HW213500   7.015   3.330   5.426 -0.1559 -1.3856 -1.6773
 3516SOL     OW13501   1.094   7.697   5.654 -0.2590 -0.1291 -0.5929
 3516SOL    HW113502   1.097   7.792   5.669 -0.6699 -0.0385 -1.0331
 3516SOL    HW213503   1.184   7.668   5.663 -0.1190  0.3213 -0.5234
 3517SOL     OW13504   3.054   2.997   6.186  0.4725  0.2287  0.0488
 3517SOL    HW113505   3.039   2.945   6.265 -0.2468 -1.5450 -1.1789
 3517SOL    HW213506   3.111   2.942   6.132  0.2222  1.0024 -1.0258
 3518SOL     OW13507   0.460   2.530   7.004  0.0722 -0.0495  0.2174
 3518SOL    HW113508   0.543   2.518   7.050 -0.0431 -0.1610  0.4005
 3518SOL    HW213509   0.394   2.497   7.065  0.0689 -2.0471 -0.7906
 3519SOL     OW13510   7.580   5.372   7.769 -0.3770 -0.6519 -0.2894
 3519SOL    HW113511   7.608   5.289   7.806 -1.3045 -1.5945 -1.5973
 3519SOL    HW213512   7.485   5.366   7.764 -0.5164  0.7438  0.1387
 3520SOL     OW13513   5.822   0.540   5.696 -0.9408 -0.0559  0.5204
 3520SOL    HW113514   5.769   0.560   5.619  0.3262  0.5502 -0.2242
 3520SOL    HW213515   5.780   0.589   5.767  0.3195  3.0226 -0.6632
 3521SOL     OW13516   5.235   2.087   2.935 -0.3276 -0.0016  0.2282
 3521SOL    HW113517   5.180   2.152   2.980  0.9430  2.8388 -1.9756
 3521SOL    HW213518   5.323   2.103   2.970 -0.0839 -1.0719  0.1368
 3522SOL     OW13519   4.877   4.366   4.808  0.4897  0.3357  0.1916
 3522SOL    HW113520   4.897   4.439   4.749  2.9693 -0.4633 -0.0863
 3522SOL    HW213521   4.864   4.291   4.750  1.8220 -0.2170  0.5660
 3523SOL     OW13522   6.045   2.475   6.869 -0.1710 -0.0708 -0.2591
 3523SOL    HW113523   6.063   2.569   6.878 -0.9665  0.1218 -0.6248
 3523SOL    HW213524   6.024   2.446   6.958 -0.5466  0.2280 -0.2519
 3524SOL     OW13525   0.528   0.777   3.026  0.2397 -0.4698 -0.1157
 3524SOL    HW113526   0.569   0.858   3.055  0.3014 -1.2301  2.1604
 3524SOL    HW213527   0.583   0.746   2.954  0.7824  0.9846 -0.3513
 3525SOL     OW13528   1.515   0.352   7.902  0.0971 -1.0770  0.1251
 3525SOL    HW113529   1.568   0.275   7.883  0.0293 -1.6540  2.1180
 3525SOL    HW213530   1.519   0.362   7.997 -0.6829  0.8206  0.0096
 3526SOL     OW13531   5.264   0.379   6.892 -0.0396  0.5905 -0.0740
 3526SOL    HW113532   5.333   0.416   6.837  0.4559  0.4076  0.4102
 3526SOL    HW213533   5.189   0.437   6.879  0.2599  0.8901 -0.4758
 3527SOL     OW13534   1.009   7.552   4.509 -0.3988  0.1025  0.1092
 3527SOL    HW113535   1.065   7.610   4.457 -0.4053 -1.3149 -1.5902
 3527SOL    HW213536   0.939   7.609   4.542  0.4117  1.3264 -0.2357
 3528SOL     OW13537   3.690   0.085   1.052  0.1090  0.1139 -0.0551
 3528SOL    HW113538   3.626   0.152   1.028  0.2773  1.0375  1.8523
 3528SOL    HW213539   3.672   0.011   0.993 -1.1935  1.2047 -1.0695
 3529SOL     OW13540   1.127   3.810   3.161  0.4827  0.1079 -0.4677
 3529SOL    HW113541   1.093   3.891   3.198 -1.5642  0.0315 -1.9978
 3529SOL    HW213542   1.213   3.833   3.126  0.3489  1.3602 -0.0028
 3530SOL     OW13543   4.274   0.561   7.184  0.1553 -0.4080  0.7829
 3530SOL    HW113544   4.292   0.655   7.190 -1.2382 -0.1798  1.8953
 3530SOL    HW213545   4.217   0.552   7.108 -0.4435 -0.2167  1.2029
 3531SOL     OW13546   1.288   3.222   5.415  0.4773  0.4183 -0.1991
 3531SOL    HW113547   1.291   3.218   5.510  0.6224 -0.8698 -0.2374
 3531SOL    HW213548   1.295   3.315   5.394  2.4853  0.5783  0.9693
 3532SOL     OW13549   1.910   5.529   5.516  0.5425 -0.2389 -0.1968
 3532SOL    HW113550   1.948   5.489   5.594  1.4758  1.6157  0.3577
 3532SOL    HW213551   1.866   5.608   5.547  0.7344  0.4206 -1.4862
 3533SOL     OW13552   0.455   5.061   0.265  0.7764 -0.0724  0.3152
 3533SOL    HW113553   0.544   5.056   0.230  0.4911  0.4516 -0.5094
 3533SOL    HW213554   0.399   5.065   0.188  0.0036 -0.7751  0.8315
 3534SOL     OW13555   1.592   7.935   5.451  0.7615  0.2817  0.2104
 3534SOL    HW113556   1.560   7.880   5.379  1.3876  0.7814 -0.4657
 3534SOL    HW213557   1.529   8.007   5.457 -0.6267 -0.9740  1.7559
 3535SOL     OW13558   5.007   1.133   3.297  0.0042 -0.3372 -0.0378
 3535SOL    HW113559   4.944   1.179   3.241 -0.8272  0.5154  1.5189
 3535SOL    HW213560   5.029   1.053   3.248 -1.1632  0.0647 -1.2833
 3536SOL     OW13561   1.405   0.135   0.562 -0.2086  0.3347 -0.0429
 3536SOL    HW113562   1.469   0.202   0.538 -0.4089  0.5718  0.0781
 3536SOL    HW213563   1.443   0.053   0.530  1.2696  0.1332  2.0482
 3537SOL     OW13564   5.894   4.473   4.566  0.1093 -0.3415 -1.0409
 3537SOL    HW113565   5.870   4.479   4.474 -2.9230 -0.7059 -0.3616
 3537SOL    HW213566   5.846   4.543   4.609 -1.4636 -2.3814  0.7354
 3538SOL     OW13567   0.155   7.239   4.181 -0.3507 -0.1807 -0.3369
 3538SOL    HW113568   0.088   7.244   4.250  0.0418  0.0231  0.0368
 3538SOL    HW213569   0.200   7.156   4.199  0.7489  0.5809  0.6007
 3539SOL     OW13570   6.297   6.944   7.436  0.7238 -0.0819  0.2743
 3539SOL    HW113571   6.226   6.996   7.473  1.0382  1.1821 -0.8647
 3539SOL    HW213572   6.375   6.973   7.483  0.9903  0.9161 -0.7624
 3540SOL     OW13573   4.357   4.862   0.590 -0.0519 -0.4731 -0.3931
 3540SOL    HW113574   4.299   4.788   0.574 -1.3277  0.6750 -1.2815
 3540SOL    HW213575   4.407   4.837   0.667 -1.6901 -1.5322  0.3727
 3541SOL     OW13576   3.668   0.906   3.653 -0.5158  0.1245  0.3616
 3541SOL    HW113577   3.639   0.903   3.562 -0.3459 -0.9176  0.3234
 3541SOL    HW213578   3.758   0.940   3.648  0.1740 -1.6154 -0.0836
 3542SOL     OW13579   2.033   5.757   7.682 -0.2344 -0.7589  0.2481
 3542SOL    HW113580   2.029   5.663   7.663  1.8916 -1.4580  2.7492
 3542SOL    HW213581   2.087   5.764   7.760 -3.2758  2.2857  2.3751
 3543SOL     OW13582   3.779   4.763   1.398 -0.2277  0.2098 -0.2297
 3543SOL    HW113583   3.714   4.832   1.409 -0.0973  0.2117  0.6516
 3543SOL    HW213584   3.842   4.798   1.336 -0.2998  0.7893  0.0180
 3544SOL     OW13585   7.025   1.130   0.755 -0.0769 -0.1705  0.2696
 3544SOL    HW113586   7.095   1.082   0.712 -0.0014 -0.0405  0.2475
 3544SOL    HW213587   6.945   1.087   0.726 -0.0265 -0.0763 -0.0083
 3545SOL     OW13588   0.123   5.188   0.276  0.0028  0.3629 -0.0383
 3545SOL    HW113589   0.161   5.275   0.290 -1.4484  1.0363 -0.0995
 3545SOL    HW213590   0.099   5.158   0.363  0.3111  0.1102 -0.0395
 3546SOL     OW13591   1.949   7.544   5.154  0.0537  0.0196  0.2214
 3546SOL    HW113592   2.020   7.582   5.101  1.2830 -2.7706 -0.3474
 3546SOL    HW213593   1.886   7.513   5.090 -0.9018  1.0022  0.6647
 3547SOL     OW13594   2.174   2.037   2.557 -0.0984  0.1028 -0.6381
 3547SOL    HW113595   2.208   2.066   2.473 -1.2900  1.3108 -0.7447
 3547SOL    HW213596   2.193   2.110   2.617 -1.2358  0.2208 -0.4008
 3548SOL     OW13597   2.457   7.453   6.060 -0.0097  0.1433  0.1127
 3548SOL    HW113598   2.453   7.425   5.969  0.9448 -0.5749  0.2804
 3548SOL    HW213599   2.522   7.523   6.061 -0.5954  0.6924  0.1132
 3549SOL     OW13600   7.586   1.888   1.213 -0.0680 -0.0431  0.2272
 3549SOL    HW113601   7.679   1.914   1.211  0.2392 -1.0836  0.5001
 3549SOL    HW213602   7.588   1.793   1.200 -1.1401  0.0042 -0.3438
 3550SOL     OW13603   4.271   1.550   7.602 -0.4030 -0.2104  0.3626
 3550SOL    HW113604   4.183   1.515   7.587 -0.1612 -0.9663  0.6875
 3550SOL    HW213605   4.327   1.500   7.543  0.1053 -1.1280  1.5781
 3551SOL     OW13606   4.784   7.945   4.833  0.4045 -0.1862 -0.3839
 3551SOL    HW113607   4.810   8.034   4.856 -0.5869  0.1854 -0.6870
 3551SOL    HW213608   4.849   7.890   4.877  0.6390  0.6503  0.3605
 3552SOL     OW13609   0.352   0.317   7.328 -0.1347  0.2238 -0.6146
 3552SOL    HW113610   0.381   0.247   7.386 -2.2946 -0.7610 -0.6162
 3552SOL    HW213611   0.331   0.273   7.246 -1.7955  0.7684 -0.5282
 3553SOL     OW13612   4.168   1.440   5.693 -0.3597  0.3943 -0.2889
 3553SOL    HW113613   4.249   1.390   5.691 -0.3250  0.4787 -1.6424
 3553SOL    HW213614   4.102   1.380   5.656 -1.6964 -0.9259  3.7009
 3554SOL     OW13615   3.599   0.659   5.494  0.0659 -0.0470  0.0166
 3554SOL    HW113616   3.619   0.751   5.476  1.6957 -0.2631  0.5475
 3554SOL    HW213617   3.551   0.661   5.577  0.6199  0.3008  0.3383
 3555SOL     OW13618   1.559   0.645   0.754  0.5452 -0.3702 -0.1153
 3555SOL    HW113619   1.620   0.718   0.746  1.1895 -1.0560 -2.1678
 3555SOL    HW213620   1.483   0.672   0.703  0.6113 -0.9391 -0.5287
 3556SOL     OW13621   2.337   2.186   6.154 -0.5855 -0.0982  0.0932
 3556SOL    HW113622   2.332   2.106   6.205  1.0734  0.1484  0.7008
 3556SOL    HW213623   2.362   2.254   6.217 -0.5165  0.6083 -0.6702
 3557SOL     OW13624   5.424   0.407   4.657 -0.0136  0.2551 -0.2185
 3557SOL    HW113625   5.418   0.342   4.588 -1.2023 -0.7918  0.8253
 3557SOL    HW213626   5.492   0.467   4.627  0.0214 -0.5817 -1.9288
 3558SOL     OW13627   5.237   8.107   5.219  0.5126 -0.1935 -0.2746
 3558SOL    HW113628   5.214   8.150   5.137  1.2893 -0.9278 -0.8901
 3558SOL    HW213629   5.318   8.149   5.247 -0.1160  0.5429  0.5006
 3559SOL     OW13630   7.638   2.853   3.118  0.2474 -0.5465 -0.2446
 3559SOL    HW113631   7.629   2.836   3.024  2.4433  1.1631 -0.8592
 3559SOL    HW213632   7.671   2.942   3.123 -0.3684 -0.3845  2.2167
 3560SOL     OW13633   1.427   5.726   8.124 -0.1145  0.1772 -0.0742
 3560SOL    HW113634   1.488   5.791   8.091 -0.6842  0.2064 -1.1146
 3560SOL    HW213635   1.344   5.773   8.134 -1.0145 -0.7213 -2.5399
 3561SOL     OW13636   4.290   7.847   7.219 -0.1980  0.4611  0.0909
 3561SOL    HW113637   4.291   7.930   7.173  0.1237  1.2659  1.4912
 3561SOL    HW213638   4.250   7.785   7.157 -4.1642  2.4468  0.3702
 3562SOL     OW13639   6.645   3.272   5.348 -0.6976  0.2074 -0.4227
 3562SOL    HW113640   6.693   3.212   5.405  0.1950  1.3590  0.0824
 3562SOL    HW213641   6.709   3.339   5.325 -1.3397  0.3504 -1.9374
 3563SOL     OW13642   1.362   3.503   2.334 -0.0717 -0.0632  0.4505
 3563SOL    HW113643   1.412   3.421   2.333 -1.5070 -0.9893  0.9032
 3563SOL    HW213644   1.284   3.484   2.281 -0.8381  0.7257  1.2535
 3564SOL     OW13645   5.111   7.625   7.031 -0.4445 -0.6624  0.9156
 3564SOL    HW113646   5.063   7.586   7.104 -1.8157  0.7487  0.8168
 3564SOL    HW213647   5.057   7.605   6.954 -0.7507  0.6826  0.7569
 3565SOL     OW13648   3.162   3.981   6.997 -0.2486 -0.0610  0.3044
 3565SOL    HW113649   3.217   4.050   6.961 -2.3808  1.4223 -0.2881
 3565SOL    HW213650   3.216   3.902   6.991  1.4617  1.1287 -1.0316
 3566SOL     OW13651   5.823   7.120   7.215 -1.0730 -0.1827  0.4753
 3566SOL    HW113652   5.882   7.048   7.235  1.2714  0.9137 -1.7693
 3566SOL    HW213653   5.764   7.085   7.147  1.0617  0.2799 -1.7654
 3567SOL     OW13654   4.858   6.038   4.167  0.3085 -0.3320 -0.1673
 3567SOL    HW113655   4.933   5.981   4.183  1.0526  0.3189 -1.2146
 3567SOL    HW213656   4.822   6.008   4.083  1.2067  1.1900 -1.1609
 3568SOL     OW13657   4.060   3.503   0.856 -0.1309  0.3241  0.2192
 3568SOL    HW113658   4.142   3.454   0.867 -1.0091 -1.1454  0.4446
 3568SOL    HW213659   4.005   3.446   0.802 -1.7153  0.3868  1.6944
 3569SOL     OW13660   3.170   2.621   3.262 -0.0729  0.2361 -0.5735
 3569SOL    HW113661   3.208   2.566   3.331  0.1711 -1.4189 -1.9473
 3569SOL    HW213662   3.233   2.692   3.251  0.4044 -0.0562  0.1844
 3570SOL     OW13663   1.581   1.624   6.319 -0.6230 -0.5838  0.1607
 3570SOL    HW113664   1.551   1.704   6.362 -1.0578 -1.5662  1.8031
 3570SOL    HW213665   1.501   1.586   6.281 -0.6923 -0.9484  0.6537
 3571SOL     OW13666   1.705   1.701   1.583  0.1501  0.1137  0.1855
 3571SOL    HW113667   1.653   1.669   1.510  0.6235  1.0138 -0.5692
 3571SOL    HW213668   1.791   1.719   1.546  0.5044  0.2439  1.0392
 3572SOL     OW13669   3.681   5.247   0.689 -0.0143 -0.2413  0.4247
 3572SOL    HW113670   3.602   5.211   0.649  0.3418 -0.1128 -0.4224
 3572SOL    HW213671   3.745   5.248   0.618  0.7836 -0.4516  1.1332
 3573SOL     OW13672   2.217   2.127   4.946  0.7545 -0.7341  0.2769
 3573SOL    HW113673   2.149   2.075   4.901 -0.8681  1.7823 -0.3880
 3573SOL    HW213674   2.270   2.164   4.875 -0.7779  1.8898  0.3747
 3574SOL     OW13675   4.359   2.790   7.880  0.6334  0.2030  0.5163
 3574SOL    HW113676   4.304   2.836   7.816 -1.3083 -2.1397  0.3457
 3574SOL    HW213677   4.353   2.843   7.959 -0.1698  1.0919 -0.1139
 3575SOL     OW13678   5.227   5.956   1.955 -0.2344 -0.4143 -0.0329
 3575SOL    HW113679   5.191   5.998   2.033  0.2638  0.9949 -0.5364
 3575SOL    HW213680   5.312   5.921   1.983  0.0465  0.2902  0.0121
 3576SOL     OW13681   7.525   3.392   6.485 -0.2858 -0.0669  0.2180
 3576SOL    HW113682   7.480   3.455   6.541  0.9135  1.0487 -0.0125
 3576SOL    HW213683   7.525   3.311   6.536  0.2054  0.7493  1.5836
 3577SOL     OW13684   5.107   5.399   6.031  0.4683  0.4688  0.1817
 3577SOL    HW113685   5.134   5.309   6.051 -0.6921 -0.1320 -0.7831
 3577SOL    HW213686   5.136   5.412   5.940  2.6207  1.9140  0.9861
 3578SOL     OW13687   6.625   0.820   5.239  0.1527 -0.4039 -0.4952
 3578SOL    HW113688   6.553   0.767   5.271 -1.6061  0.8037 -2.2400
 3578SOL    HW213689   6.630   0.894   5.299  2.6715 -2.3674  1.9990
 3579SOL     OW13690   4.473   2.968   3.328 -0.2001 -0.0485 -0.3967
 3579SOL    HW113691   4.437   2.910   3.261  1.0820 -1.0764 -0.2436
 3579SOL    HW213692   4.544   2.917   3.368  0.7684  1.5184 -0.0332
 3580SOL     OW13693   7.015   1.989   6.277  0.1650 -0.5063 -0.0982
 3580SOL    HW113694   7.058   1.988   6.191  1.4159  1.0425  0.4543
 3580SOL    HW213695   6.922   1.996   6.258  0.4767  0.5944 -1.3452
 3581SOL     OW13696   7.691   7.581   5.352  0.4104 -0.3040 -0.6033
 3581SOL    HW113697   7.748   7.658   5.360  0.7750 -0.6702  0.3679
 3581SOL    HW213698   7.611   7.605   5.398  0.5029 -0.4816 -0.3476
 3582SOL     OW13699   7.014   4.656   0.087  0.9337  0.0285  0.1122
 3582SOL    HW113700   6.959   4.722   0.045  0.2003 -0.6778 -0.0617
 3582SOL    HW213701   7.031   4.692   0.174 -3.1507 -1.3775  1.7694
 3583SOL     OW13702   4.676   2.149   2.325 -0.1765 -1.1951 -0.3700
 3583SOL    HW113703   4.772   2.146   2.324 -0.1437 -0.9567  0.5984
 3583SOL    HW213704   4.654   2.158   2.418 -1.1331 -1.1112 -0.5978
 3584SOL     OW13705   1.019   7.253   6.350 -0.0298  0.7380 -0.2789
 3584SOL    HW113706   0.968   7.194   6.405  0.7039  1.5765  1.3454
 3584SOL    HW213707   1.066   7.310   6.411  2.8066  0.0900 -1.6415
 3585SOL     OW13708   6.713   6.550   7.898 -0.4519 -0.1754  0.2151
 3585SOL    HW113709   6.746   6.535   7.809 -1.3980 -0.7184 -0.0451
 3585SOL    HW213710   6.727   6.467   7.944 -0.1743  0.0338  0.5214
 3586SOL     OW13711   6.978   7.612   5.992 -0.4945  0.2566 -0.4595
 3586SOL    HW113712   6.973   7.702   6.023 -0.5727 -0.3156  1.3522
 3586SOL    HW213713   7.067   7.584   6.012 -0.7953 -0.3904  0.0239
 3587SOL     OW13714   6.826   3.966   6.752  0.3604 -1.0123 -0.7279
 3587SOL    HW113715   6.754   3.985   6.812  1.4226  1.4258 -0.0744
 3587SOL    HW213716   6.903   4.006   6.793  1.6683 -1.6682 -2.3984
 3588SOL     OW13717   0.622   2.432   3.412 -0.1328  0.4912 -0.0045
 3588SOL    HW113718   0.601   2.360   3.352  2.0219  0.3312 -0.6621
 3588SOL    HW213719   0.620   2.392   3.499  2.3952 -0.8388 -0.4479
 3589SOL     OW13720   3.638   5.360   4.991 -0.0836  0.4291  0.0215
 3589SOL    HW113721   3.578   5.320   5.055 -2.5272  4.0333  0.2947
 3589SOL    HW213722   3.702   5.407   5.044 -1.4453  2.5002 -0.0694
 3590SOL     OW13723   2.709   6.973   2.377 -0.5455 -0.3894 -0.0227
 3590SOL    HW113724   2.635   7.028   2.401 -1.4096 -1.9782  1.0978
 3590SOL    HW213725   2.770   6.981   2.450 -1.3624 -2.0699  0.8789
 3591SOL     OW13726   4.466   0.704   5.478  0.5752 -0.9992  0.6363
 3591SOL    HW113727   4.466   0.774   5.543  1.3780 -0.1548 -0.2309
 3591SOL    HW213728   4.394   0.725   5.420  0.6878 -1.0034  0.4943
 3592SOL     OW13729   5.919   0.351   7.082 -0.3748  0.4453  0.2941
 3592SOL    HW113730   5.948   0.403   7.007  0.6837 -0.6129 -0.0549
 3592SOL    HW213731   5.848   0.403   7.120 -0.2056  1.5291 -0.7820
 3593SOL     OW13732   4.203   0.860   6.724 -0.8419  0.1030  0.0838
 3593SOL    HW113733   4.232   0.772   6.698 -2.7636 -0.6693  0.4371
 3593SOL    HW213734   4.175   0.901   6.643  0.4392  0.5651 -0.1432
 3594SOL     OW13735   6.070   3.670   2.535  0.2267 -0.2327  0.3959
 3594SOL    HW113736   6.131   3.661   2.608  0.6237 -0.6330  0.0192
 3594SOL    HW213737   6.086   3.758   2.502  0.2167 -0.1390  0.6374
 3595SOL     OW13738   7.866   3.496   2.937  0.0018 -0.2387 -0.1368
 3595SOL    HW113739   7.832   3.426   2.882  0.1514  0.5802 -1.3040
 3595SOL    HW213740   7.956   3.511   2.905 -0.3271  1.0682 -0.5177
 3596SOL     OW13741   1.730   4.260   0.190 -0.6687  0.0338 -0.3236
 3596SOL    HW113742   1.676   4.190   0.226 -1.9672  1.8255  1.4131
 3596SOL    HW213743   1.746   4.319   0.264  0.1454  1.6970 -1.7497
 3597SOL     OW13744   5.357   1.121   6.788  0.0784 -0.1893 -0.4535
 3597SOL    HW113745   5.396   1.035   6.806 -1.7816 -1.0457 -0.3033
 3597SOL    HW213746   5.295   1.104   6.717 -1.4822  0.6896  0.6554
 3598SOL     OW13747   6.395   4.476   0.943 -0.3389  0.6221 -0.0485
 3598SOL    HW113748   6.355   4.557   0.973 -1.7392  0.0645 -0.3515
 3598SOL    HW213749   6.378   4.413   1.013  0.8566  0.6041  0.2462
 3599SOL     OW13750   0.157   3.330   0.506  0.7641 -0.5538 -0.7958
 3599SOL    HW113751   0.251   3.344   0.498  0.5813  0.6782 -1.0705
 3599SOL    HW213752   0.138   3.346   0.598  0.7434 -0.2827 -0.8479
 3600SOL     OW13753   2.077   2.001   5.531  0.5293 -0.0651 -0.0305
 3600SOL    HW113754   2.029   1.955   5.462  0.1273  0.3191 -0.0149
 3600SOL    HW213755   2.040   2.089   5.531  1.3649  0.2901 -0.1279
 3601SOL     OW13756   2.654   5.935   3.259 -0.2764 -0.2187  0.9167
 3601SOL    HW113757   2.638   6.029   3.249 -2.5951 -0.6604 -0.2973
 3601SOL    HW213758   2.723   5.915   3.196 -1.0101  0.3999 -0.1184
 3602SOL     OW13759   6.164   0.589   4.596 -0.0889  0.1151 -0.1193
 3602SOL    HW113760   6.188   0.669   4.549  1.5522 -0.8613 -1.0758
 3602SOL    HW213761   6.242   0.534   4.589 -1.4057 -1.8403 -0.0760
 3603SOL     OW13762   0.725   0.091   4.608  0.5090 -0.2203 -0.5951
 3603SOL    HW113763   0.766   0.130   4.686  1.1799 -1.1158 -0.4870
 3603SOL    HW213764   0.787   0.110   4.537 -1.4030  3.1179 -1.5682
 3604SOL     OW13765   8.045   5.778   2.664  0.1481 -0.0975 -0.1246
 3604SOL    HW113766   7.960   5.822   2.668 -0.0632 -0.5422  0.4411
 3604SOL    HW213767   8.029   5.700   2.610 -0.5247 -1.6698  2.1853
 3605SOL     OW13768   0.130   4.888   4.824  0.2259  0.0507 -0.0979
 3605SOL    HW113769   0.101   4.815   4.770  0.9611  0.9511 -1.7867
 3605SOL    HW213770   0.223   4.897   4.803  0.9226 -0.5007  2.4725
 3606SOL     OW13771   1.746   5.304   5.223  0.2620  0.7792 -0.0604
 3606SOL    HW113772   1.724   5.230   5.166  0.6300  1.1553 -0.6905
 3606SOL    HW213773   1.684   5.297   5.296  0.9373 -0.7464  0.4121
 3607SOL     OW13774   3.510   4.731   7.024 -0.2221  0.4941  0.3106
 3607SOL    HW113775   3.580   4.687   7.072  0.5808 -0.0255 -1.2357
 3607SOL    HW213776   3.430   4.708   7.070  0.2300 -2.0845 -0.0300
 3608SOL     OW13777   1.557   6.316   3.003  0.2803  0.1809  0.5765
 3608SOL    HW113778   1.515   6.348   3.083 -0.2076 -1.5343  1.0479
 3608SOL    HW213779   1.651   6.326   3.020  0.1576  1.0625  0.8062
 3609SOL     OW13780   1.415   1.540   4.299 -0.8168  0.2224 -0.2309
 3609SOL    HW113781   1.505   1.574   4.304 -1.2481  1.2517  1.0894
 3609SOL    HW213782   1.414   1.487   4.219  1.1067 -0.2397 -0.0060
 3610SOL     OW13783   7.549   0.364   4.863 -0.2446  0.0113 -0.0978
 3610SOL    HW113784   7.554   0.369   4.768 -1.6025 -0.3141 -0.2101
 3610SOL    HW213785   7.618   0.303   4.888 -1.4918 -1.9137 -1.1113
 3611SOL     OW13786   3.260   5.875   1.395 -0.4807  0.0131 -0.1876
 3611SOL    HW113787   3.169   5.901   1.411 -0.6247  0.5747 -1.7485
 3611SOL    HW213788   3.309   5.957   1.404 -0.6547  0.5101 -3.0170
 3612SOL     OW13789   0.690   4.410   3.002  0.0451  0.3213  0.2735
 3612SOL    HW113790   0.710   4.345   3.069 -1.2187 -0.5057 -0.1117
 3612SOL    HW213791   0.672   4.490   3.051  3.6065  1.0369  0.6746
 3613SOL     OW13792   1.428   6.313   6.566 -0.3782 -0.2836 -0.0488
 3613SOL    HW113793   1.410   6.247   6.499  1.4191 -1.4684  0.5612
 3613SOL    HW213794   1.514   6.348   6.543  0.3889 -0.8819  1.7232
 3614SOL     OW13795   4.326   5.936   6.193 -0.0821 -0.2986 -0.5173
 3614SOL    HW113796   4.375   5.916   6.273  0.6329  2.9793 -0.0043
 3614SOL    HW213797   4.235   5.914   6.215  0.3847 -1.5065  0.3588
 3615SOL     OW13798   2.927   0.330   6.409  0.9132  0.4016  0.3756
 3615SOL    HW113799   2.988   0.389   6.453 -0.7329  0.9490  2.0672
 3615SOL    HW213800   2.857   0.387   6.376  1.1339 -0.2285 -1.2916
 3616SOL     OW13801   2.791   0.381   4.099  0.2864 -0.0225  0.1456
 3616SOL    HW113802   2.710   0.351   4.059 -0.3127  1.3180  0.3041
 3616SOL    HW213803   2.858   0.364   4.033 -0.4240  0.6116 -0.7603
 3617SOL     OW13804   4.104   4.901   7.686  0.3397 -0.3966 -0.0736
 3617SOL    HW113805   4.088   4.821   7.634  2.1242  0.3207 -1.8846
 3617SOL    HW213806   4.135   4.869   7.770 -0.0068 -1.6217 -0.3892
 3618SOL     OW13807   2.705   2.132   6.853 -0.6508 -0.0787 -0.1103
 3618SOL    HW113808   2.697   2.218   6.811 -0.5361 -0.5197 -1.0786
 3618SOL    HW213809   2.644   2.076   6.805  0.6330 -0.9801 -0.7520
 3619SOL     OW13810   0.806   7.758   4.584  0.0454 -0.2838 -0.1528
 3619SOL    HW113811   0.715   7.786   4.576 -0.1962 -1.2220 -0.8923
 3619SOL    HW213812   0.856   7.826   4.540 -0.4617 -0.6191 -1.2750
 3620SOL     OW13813   3.319   2.024   0.535 -0.3571  0.3360 -0.2194
 3620SOL    HW113814   3.346   1.932   0.545 -0.5063  0.4840  2.1596
 3620SOL    HW213815   3.238   2.030   0.587  0.6997  2.2315  1.3049
 3621SOL     OW13816   2.050   1.708   0.996 -0.3276 -0.1955  0.3669
 3621SOL    HW113817   2.072   1.793   0.957  1.1497 -1.5883 -2.0393
 3621SOL    HW213818   1.954   1.706   0.996 -0.4132  1.6630  1.0345
 3622SOL     OW13819   6.925   7.838   5.576  0.1100 -0.4462 -0.0392
 3622SOL    HW113820   6.943   7.801   5.490  0.5062  2.0020 -1.1002
 3622SOL    HW213821   6.893   7.765   5.627  0.7529 -2.1857 -1.9849
 3623SOL     OW13822   6.030   1.842   5.652  0.4906  0.4470  0.1755
 3623SOL    HW113823   6.103   1.864   5.594  0.0974  0.7878 -0.1835
 3623SOL    HW213824   6.028   1.746   5.652  0.4795  0.4471 -0.3842
 3624SOL     OW13825   1.703   6.444   7.305  0.0821 -0.5921  0.2470
 3624SOL    HW113826   1.732   6.431   7.215 -1.1810 -0.5994 -0.1737
 3624SOL    HW213827   1.784   6.456   7.355  0.7565  1.5878 -1.2279
 3625SOL     OW13828   4.441   5.689   7.177 -0.1564  0.5456  0.5081
 3625SOL    HW113829   4.464   5.603   7.141  1.1821  0.4868  1.4449
 3625SOL    HW213830   4.507   5.748   7.141 -0.2385  0.9240  0.9778
 3626SOL     OW13831   5.151   3.548   8.078  0.6226 -0.0687  0.2259
 3626SOL    HW113832   5.131   3.640   8.057 -0.4410 -0.0951  1.0656
 3626SOL    HW213833   5.199   3.516   8.001 -3.8342 -0.4027 -2.7477
 3627SOL     OW13834   0.957   7.988   0.653 -0.6066 -0.1685 -0.2003
 3627SOL    HW113835   0.936   8.021   0.566  0.3749  1.3944  0.1213
 3627SOL    HW213836   1.033   8.039   0.681  0.6618 -2.3505  0.5808
 3628SOL     OW13837   5.641   1.164   7.062 -0.9550  0.1978  0.3582
 3628SOL    HW113838   5.663   1.246   7.018 -5.2566  0.7913 -1.1277
 3628SOL    HW213839   5.550   1.175   7.091 -0.5692 -2.7873  3.3838
 3629SOL     OW13840   0.511   5.569   6.083 -0.0199  0.2074 -0.3672
 3629SOL    HW113841   0.509   5.595   6.175  0.4936  0.8616 -0.5263
 3629SOL    HW213842   0.461   5.637   6.038  0.0038  0.0674 -0.6076
 3630SOL     OW13843   0.877   1.813   2.001 -0.0778 -0.2923  0.3140
 3630SOL    HW113844   0.952   1.783   2.053  0.3282  0.2310  0.0492
 3630SOL    HW213845   0.801   1.796   2.056  0.4090  0.9359  1.4258
 3631SOL     OW13846   6.267   1.369   2.512 -0.2990  0.2460  1.0061
 3631SOL    HW113847   6.305   1.288   2.478 -1.8555 -0.8193  1.6896
 3631SOL    HW213848   6.182   1.375   2.468 -0.1938  1.5409  0.9484
 3632SOL     OW13849   3.719   2.058   6.978  0.4096 -0.0972 -0.1807
 3632SOL    HW113850   3.662   2.043   6.903  0.6955  0.8460 -0.6070
 3632SOL    HW213851   3.708   1.981   7.034 -0.5404 -0.3589 -0.7255
 3633SOL     OW13852   6.401   0.321   4.389 -0.2550  0.2336  0.0506
 3633SOL    HW113853   6.376   0.234   4.420  0.0544  0.4899  1.0632
 3633SOL    HW213854   6.466   0.304   4.321 -0.4417 -0.3355  0.0057
 3634SOL     OW13855   0.864   2.972   1.309 -0.4620  0.6918  0.0419
 3634SOL    HW113856   0.876   2.913   1.383  1.3286  0.8071 -0.1150
 3634SOL    HW213857   0.905   3.055   1.337  0.3187  0.7075 -1.0719
 3635SOL     OW13858   3.564   6.549   4.955 -0.3517 -0.1514 -0.1084
 3635SOL    HW113859   3.582   6.620   5.016 -1.3145 -0.3550  0.4228
 3635SOL    HW213860   3.629   6.482   4.975  0.7084  0.6389 -0.7590
 3636SOL     OW13861   1.602   5.901   3.618  0.1730 -0.0819  0.1849
 3636SOL    HW113862   1.590   5.807   3.633  0.2590  0.0854  1.4158
 3636SOL    HW213863   1.543   5.942   3.681 -0.4326  0.7003 -0.8686
 3637SOL     OW13864   4.915   6.692   1.559 -0.1333 -0.2679  0.5543
 3637SOL    HW113865   4.976   6.625   1.589 -1.6200 -0.9153  2.2789
 3637SOL    HW213866   4.955   6.774   1.587  1.1271 -0.4686 -0.5384
 3638SOL     OW13867   2.520   7.206   1.609  0.3407  0.0001  0.0624
 3638SOL    HW113868   2.433   7.187   1.644  0.7217  0.0040  1.0583
 3638SOL    HW213869   2.578   7.199   1.685  1.5018 -1.9637 -0.9318
 3639SOL     OW13870   6.105   7.485   6.038 -0.1564  0.0264  0.1503
 3639SOL    HW113871   6.161   7.441   6.102  2.7530  2.1373 -0.7743
 3639SOL    HW213872   6.134   7.453   5.953  1.0047  2.4370 -0.4533
 3640SOL     OW13873   6.995   5.722   0.973 -0.4138  0.1997  0.1359
 3640SOL    HW113874   7.071   5.763   1.014  0.2843 -1.3939  0.4912
 3640SOL    HW213875   6.920   5.767   1.012  0.3166  1.2080  0.4138
 3641SOL     OW13876   5.904   4.057   5.808  0.2188 -0.3727  0.0985
 3641SOL    HW113877   5.847   4.054   5.731 -0.4825  1.0802  0.5131
 3641SOL    HW213878   5.980   4.107   5.780  1.7466 -2.9684 -0.6825
 3642SOL     OW13879   4.795   0.049   0.949 -0.0952 -0.7427 -0.1042
 3642SOL    HW113880   4.851   0.068   1.025  1.0063  0.3773 -1.1541
 3642SOL    HW213881   4.709   0.083   0.974  0.6779  1.3266 -0.0099
 3643SOL     OW13882   5.408   7.931   1.290 -0.1122 -0.1174 -0.1535
 3643SOL    HW113883   5.312   7.927   1.286 -0.1018  0.7795 -2.7324
 3643SOL    HW213884   5.437   7.844   1.261 -0.1434  0.2358 -1.2536
 3644SOL     OW13885   5.588   1.189   6.239  0.4864 -0.7602 -0.1619
 3644SOL    HW113886   5.566   1.133   6.313  1.2325  0.0568  0.7015
 3644SOL    HW213887   5.547   1.273   6.259  0.5746 -0.5705 -0.7472
 3645SOL     OW13888   7.282   2.025   5.926 -0.1822 -0.3205 -0.3238
 3645SOL    HW113889   7.325   2.108   5.904  0.5607 -0.6832 -0.2607
 3645SOL    HW213890   7.189   2.048   5.936  0.4488  1.3761  3.7171
 3646SOL     OW13891   1.694   6.880   0.369 -0.0266 -0.3097  0.4739
 3646SOL    HW113892   1.670   6.801   0.418 -0.8218 -0.2033  0.2644
 3646SOL    HW213893   1.785   6.865   0.342 -0.5399 -1.6954 -0.6045
 3647SOL     OW13894   6.317   1.589   3.521 -0.2237 -0.2631  0.5117
 3647SOL    HW113895   6.375   1.527   3.566  0.1357  0.9613  1.8185
 3647SOL    HW213896   6.236   1.588   3.573  0.7204  2.2903  2.2843
 3648SOL     OW13897   7.733   1.365   2.634 -0.4726 -0.3245  0.3988
 3648SOL    HW113898   7.696   1.321   2.558  0.3383  0.7256 -0.6304
 3648SOL    HW213899   7.736   1.457   2.611  0.8974 -0.1227  1.2175
 3649SOL     OW13900   0.665   0.410   3.264  0.4912 -0.6064  0.1371
 3649SOL    HW113901   0.588   0.466   3.249  1.3860  0.4374 -0.7087
 3649SOL    HW213902   0.676   0.362   3.182 -0.0117 -1.7495  0.7119
 3650SOL     OW13903   3.854   4.559   7.390  0.2071 -0.3598 -0.0364
 3650SOL    HW113904   3.812   4.487   7.437 -1.7211 -0.2945 -1.5301
 3650SOL    HW213905   3.820   4.638   7.431 -0.0022 -0.2985 -0.3289
 3651SOL     OW13906   5.897   3.983   7.962  0.0902 -0.3237 -0.3024
 3651SOL    HW113907   5.967   4.044   7.985 -0.3638  0.1781 -0.2282
 3651SOL    HW213908   5.884   3.995   7.868 -0.2738 -0.0051 -0.2156
 3652SOL     OW13909   2.826   3.419   6.216 -0.2301 -0.3032 -0.4096
 3652SOL    HW113910   2.868   3.353   6.162  0.4274 -0.3885  0.2047
 3652SOL    HW213911   2.839   3.501   6.168  0.2882 -0.3895 -0.4146
 3653SOL     OW13912   4.812   4.894   4.865 -0.1289  0.0981  0.0542
 3653SOL    HW113913   4.830   4.879   4.957  0.5880  0.6778  0.0178
 3653SOL    HW213914   4.716   4.890   4.858 -0.3314  1.7776  1.1542
 3654SOL     OW13915   0.222   1.329   1.971 -0.3188 -0.0989  0.6268
 3654SOL    HW113916   0.247   1.344   1.880  0.8522  0.5850  1.0426
 3654SOL    HW213917   0.221   1.233   1.980 -0.9997 -0.1901 -0.2311
 3655SOL     OW13918   1.789   4.381   0.438  1.4392 -0.5660 -0.5162
 3655SOL    HW113919   1.771   4.469   0.470 -0.8360 -0.6710 -1.3226
 3655SOL    HW213920   1.827   4.335   0.513 -0.9306  0.0257  1.1542
 3656SOL     OW13921   3.859   1.127   4.347  0.8496 -0.0140 -0.0935
 3656SOL    HW113922   3.917   1.060   4.311  1.0070  1.3520 -2.6034
 3656SOL    HW213923   3.786   1.131   4.286  0.9558  2.2154 -0.1650
 3657SOL     OW13924   8.062   2.889   3.061  0.6923 -0.2126  0.0645
 3657SOL    HW113925   8.008   2.968   3.061  0.4754 -0.3512  0.8255
 3657SOL    HW213926   8.152   2.920   3.062  0.6227  0.0235 -0.7245
 3658SOL     OW13927   6.310   5.619   5.053 -0.0341 -0.0629  0.5632
 3658SOL    HW113928   6.264   5.662   5.125  0.2221 -0.0814  0.7382
 3658SOL    HW213929   6.366   5.687   5.017  0.6653 -0.3550  1.0916
 3659SOL     OW13930   6.813   6.643   5.366  1.0865 -0.5913  0.2146
 3659SOL    HW113931   6.784   6.670   5.453 -1.1663 -1.5174 -0.1665
 3659SOL    HW213932   6.765   6.562   5.349  2.1550 -0.9173 -1.5406
 3660SOL     OW13933   5.482   5.190   1.391 -0.3658  0.1440 -0.1709
 3660SOL    HW113934   5.575   5.168   1.399 -0.4861 -0.3272 -0.0236
 3660SOL    HW213935   5.467   5.196   1.296 -0.3128 -0.3690 -0.2163
 3661SOL     OW13936   5.681   6.892   7.053  0.5865  0.3457  0.3581
 3661SOL    HW113937   5.751   6.828   7.057  0.2132 -0.1402 -0.6240
 3661SOL    HW213938   5.626   6.872   7.129  0.8466 -0.0496  0.4456
 3662SOL     OW13939   1.339   6.286   4.574  0.9379 -0.1312 -0.0366
 3662SOL    HW113940   1.391   6.221   4.526  0.4689  0.0412 -0.7949
 3662SOL    HW213941   1.276   6.318   4.510 -1.2778 -1.5896  1.2964
 3663SOL     OW13942   4.806   1.599   3.764 -0.4385  0.7859  0.1323
 3663SOL    HW113943   4.724   1.550   3.756  0.1666 -0.1578 -0.5075
 3663SOL    HW213944   4.808   1.656   3.687 -0.9693  1.5735  0.6869
 3664SOL     OW13945   3.525   1.988   6.335  0.1887  0.4541 -0.2266
 3664SOL    HW113946   3.575   1.945   6.403 -1.0389 -1.7414 -0.6064
 3664SOL    HW213947   3.462   1.921   6.306  0.0736  1.5846 -2.8653
 3665SOL     OW13948   6.190   1.613   7.793  0.0844 -0.1511 -0.2722
 3665SOL    HW113949   6.248   1.682   7.763 -1.0666  0.8380 -0.3296
 3665SOL    HW213950   6.180   1.555   7.717 -1.2341  1.2450 -1.2407
 3666SOL     OW13951   3.335   5.378   5.899 -0.4350  0.0867  0.7684
 3666SOL    HW113952   3.365   5.376   5.989  0.4365 -0.7241  0.4770
 3666SOL    HW213953   3.286   5.297   5.888  0.8061 -0.5995  0.0887
 3667SOL     OW13954   5.437   7.603   1.739  0.2503  0.0401 -0.2418
 3667SOL    HW113955   5.531   7.598   1.753  0.3768 -1.3458 -1.4072
 3667SOL    HW213956   5.414   7.520   1.698 -1.4063  0.5511 -0.4219
 3668SOL     OW13957   5.286   1.897   7.084  0.2061 -0.6106 -0.3700
 3668SOL    HW113958   5.235   1.971   7.117 -0.8737 -1.7548  0.6457
 3668SOL    HW213959   5.328   1.930   7.005  0.1426  1.2215  0.3101
 3669SOL     OW13960   3.818   4.011   5.895  0.3323 -0.4311  0.8742
 3669SOL    HW113961   3.736   3.979   5.934 -0.8602  1.3824 -0.0042
 3669SOL    HW213962   3.886   3.983   5.956 -1.1152 -0.5833  2.4847
 3670SOL     OW13963   5.493   1.887   1.587  0.2263  0.2080 -0.0548
 3670SOL    HW113964   5.420   1.829   1.564  0.9623 -0.3132 -1.1721
 3670SOL    HW213965   5.570   1.844   1.550  1.0336  1.0170  0.6438
 3671SOL     OW13966   0.631   1.718   5.830  0.3511  0.0768 -0.1004
 3671SOL    HW113967   0.568   1.789   5.821 -0.5014 -0.8675 -1.9356
 3671SOL    HW213968   0.601   1.668   5.906  0.4544  1.1294  0.6581
 3672SOL     OW13969   2.359   1.922   2.832 -0.0762  0.1177 -0.2614
 3672SOL    HW113970   2.276   1.951   2.871  0.3302  1.7521 -0.5393
 3672SOL    HW213971   2.333   1.874   2.753 -0.7650 -0.0320  0.0430
 3673SOL     OW13972   6.353   3.023   8.055  0.1294 -0.1013 -0.1851
 3673SOL    HW113973   6.397   2.958   8.001 -0.5912  0.1040 -1.0430
 3673SOL    HW213974   6.310   2.971   8.124  2.1017 -0.2579  0.9917
 3674SOL     OW13975   1.255   2.086   6.694 -0.1851  0.1928  0.2584
 3674SOL    HW113976   1.308   2.006   6.690  0.4320  0.5787  0.5791
 3674SOL    HW213977   1.192   2.070   6.765  0.7129  0.4483  1.1281
 3675SOL     OW13978   3.369   3.308   4.300 -0.0007 -0.0848 -0.2132
 3675SOL    HW113979   3.302   3.271   4.242 -0.1639  0.6162 -0.4743
 3675SOL    HW213980   3.446   3.318   4.244 -0.1671  0.6193 -0.3276
 3676SOL     OW13981   5.622   0.274   5.909 -0.0568 -0.7222 -0.4498
 3676SOL    HW113982   5.602   0.217   5.984  1.4880  1.6080  1.8985
 3676SOL    HW213983   5.692   0.228   5.862 -0.1550 -1.6295  0.2548
 3677SOL     OW13984   3.057   1.648   3.592 -0.2730  0.3791 -0.5448
 3677SOL    HW113985   2.987   1.713   3.582 -0.6915 -0.1618 -1.2845
 3677SOL    HW213986   3.099   1.670   3.675 -1.3655  0.6901 -0.0484
 3678SOL     OW13987   7.625   2.450   3.808  0.1863 -0.1231  0.1711
 3678SOL    HW113988   7.534   2.461   3.783  0.0943 -1.4464 -0.1204
 3678SOL    HW213989   7.645   2.358   3.789  1.3510 -0.0560  0.9538
 3679SOL     OW13990   0.222   2.959   3.016  0.5489 -0.1373 -0.8041
 3679SOL    HW113991   0.169   3.008   2.953  1.4478 -0.7564 -2.0860
 3679SOL    HW213992   0.296   3.017   3.036 -0.4900  0.6767  0.8910
 3680SOL     OW13993   1.765   6.141   2.697 -0.1233 -0.3807 -0.3347
 3680SOL    HW113994   1.821   6.160   2.772 -0.8237 -0.8627  0.3251
 3680SOL    HW213995   1.771   6.046   2.685 -1.6474 -0.6116  0.4587
 3681SOL     OW13996   6.975   4.094   5.840 -0.0146 -0.0752  0.6952
 3681SOL    HW113997   7.008   4.167   5.893  2.1767 -1.0143  0.7321
 3681SOL    HW213998   6.987   4.017   5.895 -0.1507 -0.7517 -0.1998
 3682SOL     OW13999   4.832   2.895   1.735  0.0262  0.3551  0.4107
 3682SOL    HW114000   4.817   2.813   1.781  2.3745  0.6521  1.8604
 3682SOL    HW214001   4.925   2.894   1.713 -0.7709  0.6018 -3.7798
 3683SOL     OW14002   2.027   4.216   7.807  0.7906 -0.2602 -0.4258
 3683SOL    HW114003   1.938   4.196   7.834  1.6230 -1.7667  1.4135
 3683SOL    HW214004   2.017   4.283   7.739 -1.7142 -0.4580 -0.3383
 3684SOL     OW14005   1.660   1.948   5.140  0.4446  0.6564 -0.2152
 3684SOL    HW114006   1.711   1.919   5.064  0.7032  1.0415 -0.1929
 3684SOL    HW214007   1.589   1.885   5.147  1.4406 -0.4407  0.3215
 3685SOL     OW14008   4.517   3.167   3.090  0.1044  0.8235 -0.0315
 3685SOL    HW114009   4.423   3.181   3.078  0.2658  2.6299  0.5215
 3685SOL    HW214010   4.526   3.146   3.183  0.3676  2.1080  0.2495
 3686SOL     OW14011   2.906   1.140   4.447 -0.6442  0.0482 -0.4826
 3686SOL    HW114012   2.943   1.055   4.473 -1.9946 -0.3573  0.2303
 3686SOL    HW214013   2.820   1.118   4.411 -0.6970  1.0524 -0.9870
 3687SOL     OW14014   7.235   5.143   5.650 -0.2794 -0.0852 -0.0841
 3687SOL    HW114015   7.195   5.141   5.737 -1.2562  0.6628 -0.4909
 3687SOL    HW214016   7.307   5.080   5.655  0.1084  0.4338  1.4554
 3688SOL     OW14017   4.941   2.039   4.602  0.3755  0.6656 -0.0092
 3688SOL    HW114018   5.019   2.072   4.646  1.3204 -0.8466 -0.4554
 3688SOL    HW214019   4.955   1.944   4.597 -0.0207  0.6480 -2.8473
 3689SOL     OW14020   3.714   5.828   6.149 -0.2568 -0.9081  0.4912
 3689SOL    HW114021   3.626   5.853   6.179 -1.4959 -0.4463 -3.0642
 3689SOL    HW214022   3.710   5.733   6.140 -1.5474 -0.6879 -2.4301
 3690SOL     OW14023   7.275   7.934   5.088  0.1384  0.1099 -0.2751
 3690SOL    HW114024   7.262   7.982   5.170  2.0746  2.0283 -0.9778
 3690SOL    HW214025   7.209   7.969   5.029 -2.1316 -2.2057  0.7119
 3691SOL     OW14026   4.194   7.590   4.460 -0.4280 -0.4543  0.6563
 3691SOL    HW114027   4.175   7.681   4.481 -0.5972 -0.8409  2.2872
 3691SOL    HW214028   4.160   7.579   4.371  0.1744  1.2192  0.1645
 3692SOL     OW14029   5.424   0.445   2.208 -0.5161  0.2296  0.5871
 3692SOL    HW114030   5.513   0.441   2.241 -0.7323 -0.5979  1.0967
 3692SOL    HW214031   5.409   0.537   2.190  0.3375  0.4128  0.7857
 3693SOL     OW14032   2.204   5.720   4.201  0.5355 -0.2691  0.0040
 3693SOL    HW114033   2.110   5.730   4.189  0.7940 -0.6720 -3.1649
 3693SOL    HW214034   2.216   5.716   4.296 -2.3838  1.9261  0.6000
 3694SOL     OW14035   3.197   2.224   5.530 -0.0609 -0.0334 -0.0186
 3694SOL    HW114036   3.271   2.221   5.591  0.4982 -0.3625 -0.6976
 3694SOL    HW214037   3.120   2.217   5.586  0.3453  1.5825  0.8283
 3695SOL     OW14038   5.506   2.318   4.937 -0.0423  0.5258 -0.1322
 3695SOL    HW114039   5.538   2.295   5.025 -1.1611  1.1290  0.4637
 3695SOL    HW214040   5.525   2.241   4.884  1.4622  0.4831  0.4063
 3696SOL     OW14041   0.965   0.231   4.247  0.3513  1.1916 -0.5560
 3696SOL    HW114042   0.954   0.204   4.338  0.2636 -0.0329 -0.9057
 3696SOL    HW214043   1.043   0.287   4.247  0.5873  0.8667  0.2071
 3697SOL     OW14044   2.338   3.908   3.321  0.2142  0.2756  0.1009
 3697SOL    HW114045   2.298   3.939   3.402  0.4051  3.6691 -0.9444
 3697SOL    HW214046   2.432   3.903   3.341  0.2137  0.6919  0.2105
 3698SOL     OW14047   5.544   0.248   3.338 -0.3260 -0.0210  0.0675
 3698SOL    HW114048   5.533   0.199   3.257 -1.6535  0.1318  0.1415
 3698SOL    HW214049   5.489   0.326   3.327 -0.6415 -0.0757  1.1670
 3699SOL     OW14050   4.952   2.883   6.548 -0.1608 -0.0212 -0.3587
 3699SOL    HW114051   4.930   2.862   6.457 -0.6829  1.0291 -0.4940
 3699SOL    HW214052   5.011   2.958   6.542 -0.2304  0.0832  0.1683
 3700SOL     OW14053   5.135   6.421   1.146 -0.6220  0.7508  0.0560
 3700SOL    HW114054   5.158   6.359   1.214 -1.5865  1.0037  0.6405
 3700SOL    HW214055   5.212   6.425   1.090  1.1565  2.3239  2.4269
 3701SOL     OW14056   1.534   7.287   4.325  0.0921  0.0207 -0.0956
 3701SOL    HW114057   1.621   7.277   4.286  0.4664  0.3119  0.6411
 3701SOL    HW214058   1.530   7.379   4.351 -0.9101  0.3033 -1.2049
 3702SOL     OW14059   3.794   7.952   5.846 -0.6938  0.2220  0.1304
 3702SOL    HW114060   3.801   7.861   5.876 -1.7540 -0.1081 -0.5415
 3702SOL    HW214061   3.709   7.956   5.801 -0.5581  1.4866 -0.0636
 3703SOL     OW14062   1.709   6.169   7.364 -0.4807  0.0030  0.1677
 3703SOL    HW114063   1.654   6.108   7.412  1.2421  0.7381  3.3836
 3703SOL    HW214064   1.707   6.249   7.416  1.6318  0.8305 -0.9022
 3704SOL     OW14065   8.043   0.583   6.046  0.6246 -0.4215 -0.2679
 3704SOL    HW114066   7.990   0.513   6.084 -0.3794 -0.4441 -1.6518
 3704SOL    HW214067   8.063   0.553   5.958  1.3862  0.4137 -0.3883
 3705SOL     OW14068   1.435   1.118   7.290 -1.0498 -0.3797  0.1825
 3705SOL    HW114069   1.523   1.155   7.297 -0.0407 -2.5698 -0.1566
 3705SOL    HW214070   1.394   1.169   7.221  0.3535 -0.0386 -0.4470
 3706SOL     OW14071   7.815   4.264   5.930 -0.6310  0.3342  0.0190
 3706SOL    HW114072   7.732   4.223   5.906  0.1677 -0.6494 -1.2062
 3706SOL    HW214073   7.871   4.252   5.854  0.0554  2.6944  0.0509
 3707SOL     OW14074   2.678   2.496   1.994  1.1160 -0.6133  0.0810
 3707SOL    HW114075   2.757   2.441   1.998  0.0480 -2.4116 -1.8445
 3707SOL    HW214076   2.608   2.436   1.970 -0.8497  0.9851  1.5085
 3708SOL     OW14077   4.408   2.643   4.577  0.0211 -0.4620  0.0329
 3708SOL    HW114078   4.398   2.694   4.497 -1.2030 -0.3587  0.2360
 3708SOL    HW214079   4.321   2.642   4.617  0.9903  1.2234  2.4403
 3709SOL     OW14080   3.261   2.626   8.124 -0.1570 -0.3645 -0.4458
 3709SOL    HW114081   3.219   2.706   8.155 -1.4424 -0.7739 -1.0498
 3709SOL    HW214082   3.328   2.607   8.189  0.2618  1.2712 -0.3661
 3710SOL     OW14083   8.084   0.065   1.188  0.3993  0.5217 -1.1512
 3710SOL    HW114084   8.099   0.025   1.274 -0.1751  1.3078 -0.6857
 3710SOL    HW214085   8.171   0.067   1.148  0.3866 -1.7945 -1.4750
 3711SOL     OW14086   6.029   4.439   4.973  0.0607 -0.1755  0.0488
 3711SOL    HW114087   5.935   4.446   4.991  0.6239 -0.7370  4.1692
 3711SOL    HW214088   6.061   4.529   4.983 -0.0940  0.2952 -2.8041
 3712SOL     OW14089   6.861   2.640   7.407  0.2271 -0.3914  0.4629
 3712SOL    HW114090   6.790   2.679   7.356  0.1577  0.9292  1.5020
 3712SOL    HW214091   6.894   2.569   7.352 -0.4625  0.3618 -0.9889
 3713SOL     OW14092   1.423   3.843   3.919  0.1151 -0.7472  0.1251
 3713SOL    HW114093   1.491   3.848   3.852  1.8469  0.1048  1.8128
 3713SOL    HW214094   1.428   3.753   3.951  1.9816 -0.1888  1.6202
 3714SOL     OW14095   2.643   3.556   0.448 -0.3931 -0.6229  0.3612
 3714SOL    HW114096   2.710   3.564   0.380 -2.1188 -1.2058 -1.4975
 3714SOL    HW214097   2.685   3.590   0.527  1.9066 -0.5096 -0.8299
 3715SOL     OW14098   6.333   6.550   7.119 -0.1885 -0.2454  0.6831
 3715SOL    HW114099   6.312   6.641   7.138 -2.7579 -0.7853  0.7021
 3715SOL    HW214100   6.356   6.549   7.026  0.3296  0.4626  0.7928
 3716SOL     OW14101   0.538   7.003   5.925 -0.3021  0.3301 -0.4084
 3716SOL    HW114102   0.532   7.058   6.003 -0.5570  1.6493 -1.3220
 3716SOL    HW214103   0.447   6.976   5.909 -0.0882 -1.0010  0.4468
 3717SOL     OW14104   2.307   4.027   6.463 -0.4189  0.1961  0.0723
 3717SOL    HW114105   2.253   3.998   6.537 -0.9015 -0.9775 -0.7174
 3717SOL    HW214106   2.367   4.091   6.501  0.2046 -1.3133  1.7405
 3718SOL     OW14107   5.416   3.688   0.168  0.7199 -0.3181 -0.1797
 3718SOL    HW114108   5.420   3.724   0.080 -2.2495 -1.5152 -0.9552
 3718SOL    HW214109   5.325   3.702   0.195  0.8386 -2.3964  1.5939
 3719SOL     OW14110   5.705   3.407   3.557 -0.0242 -0.4668 -0.0587
 3719SOL    HW114111   5.733   3.429   3.468 -1.6521 -0.8667 -0.7208
 3719SOL    HW214112   5.691   3.491   3.600 -0.6258 -0.2294 -0.6837
 3720SOL     OW14113   5.553   0.632   1.511  0.2395  0.5735  0.1222
 3720SOL    HW114114   5.591   0.617   1.424  0.6572  1.0957  0.2062
 3720SOL    HW214115   5.525   0.723   1.508  0.2975  0.6047  0.5510
 3721SOL     OW14116   3.129   7.466   3.017 -0.0360 -0.0940  0.0144
 3721SOL    HW114117   3.046   7.513   3.016  1.1977  2.3291 -1.8082
 3721SOL    HW214118   3.155   7.465   3.109 -1.6689 -0.1612  0.4990
 3722SOL     OW14119   2.968   2.191   0.850 -0.6557 -0.1416 -0.5118
 3722SOL    HW114120   2.883   2.210   0.810 -1.4820 -1.1649  0.6657
 3722SOL    HW214121   2.953   2.112   0.902  0.5161  0.6917  1.2048
 3723SOL     OW14122   6.099   7.055   1.371 -0.3552 -0.1501 -0.4259
 3723SOL    HW114123   6.144   7.051   1.287  0.6928 -0.5501  0.1283
 3723SOL    HW214124   6.055   6.970   1.380 -2.7254  0.8487 -1.7275
 3724SOL     OW14125   5.000   4.608   8.097 -0.3515  0.0887 -0.1196
 3724SOL    HW114126   4.980   4.614   8.191  1.1746  1.6023  0.1570
 3724SOL    HW214127   4.961   4.687   8.059  2.4849  1.6943  0.0019
 3725SOL     OW14128   0.022   1.601   1.133  0.4643  0.4470  0.1777
 3725SOL    HW114129   0.052   1.516   1.102  0.0518 -0.2276  1.5605
 3725SOL    HW214130   0.099   1.639   1.176  0.1160 -0.1232  1.3462
 3726SOL     OW14131   3.197   4.575   6.256 -0.0153  0.0592 -0.1202
 3726SOL    HW114132   3.105   4.600   6.256 -0.3391 -0.7999 -2.9748
 3726SOL    HW214133   3.216   4.552   6.347 -2.7146 -0.1089  0.4671
 3727SOL     OW14134   5.405   5.603   3.941  0.1081 -0.6664  0.7701
 3727SOL    HW114135   5.427   5.691   3.911  0.5508 -0.1630  2.4470
 3727SOL    HW214136   5.334   5.575   3.883  0.3602  0.5458 -0.1709
 3728SOL     OW14137   5.980   3.414   3.574  0.0665  0.6122  0.1403
 3728SOL    HW114138   6.021   3.338   3.616  0.4139  1.1629  0.8222
 3728SOL    HW214139   5.892   3.384   3.551 -0.5178  0.5866  2.2087
 3729SOL     OW14140   3.720   0.115   2.997  0.2226 -0.2745 -0.4572
 3729SOL    HW114141   3.770   0.095   3.077 -0.5293 -0.9067 -0.1293
 3729SOL    HW214142   3.688   0.030   2.968  1.8391 -0.2937 -2.3864
 3730SOL     OW14143   1.559   6.995   7.018  0.3471  0.1856 -0.1716
 3730SOL    HW114144   1.595   7.047   6.946  1.0355  1.5387  1.1107
 3730SOL    HW214145   1.518   7.059   7.076 -0.2563 -0.8895  0.6221
 3731SOL     OW14146   3.759   3.829   1.227 -0.1311  0.0897 -0.1690
 3731SOL    HW114147   3.783   3.917   1.256 -0.8889  0.9889 -2.1135
 3731SOL    HW214148   3.827   3.772   1.263  0.7059  1.5330  0.6210
 3732SOL     OW14149   5.024   5.782   7.239 -0.0878  0.2711  0.2494
 3732SOL    HW114150   5.098   5.749   7.290 -0.5957 -1.4229 -0.0551
 3732SOL    HW214151   5.041   5.750   7.150 -0.3581  1.2824 -0.1740
 3733SOL     OW14152   2.097   1.802   5.975  0.2718  0.2103 -0.2352
 3733SOL    HW114153   2.192   1.805   5.983  0.2815  1.4050 -0.5319
 3733SOL    HW214154   2.068   1.749   6.049  1.1607 -0.1009 -0.0996
 3734SOL     OW14155   2.834   4.175   5.056  0.3190  0.0484  0.1463
 3734SOL    HW114156   2.820   4.084   5.080  0.3356 -0.2398 -0.8802
 3734SOL    HW214157   2.764   4.223   5.101 -0.5213 -0.6513 -0.3856
 3735SOL     OW14158   6.579   7.819   7.964 -0.3531  0.0260 -0.4831
 3735SOL    HW114159   6.499   7.834   7.913 -0.7776 -0.6067 -0.0267
 3735SOL    HW214160   6.650   7.849   7.907 -0.8695 -0.0014 -1.1592
 3736SOL     OW14161   4.203   5.526   7.001 -0.2773  1.3119  0.7963
 3736SOL    HW114162   4.293   5.495   6.996 -0.7203  0.0315  0.4613
 3736SOL    HW214163   4.166   5.479   7.076 -1.3230  0.0373 -0.4786
 3737SOL     OW14164   2.609   3.812   2.302  0.0955 -0.3575  0.1170
 3737SOL    HW114165   2.590   3.828   2.395  0.1821  0.7180 -0.0377
 3737SOL    HW214166   2.705   3.811   2.297  0.0932 -1.2436  0.1671
 3738SOL     OW14167   4.584   3.302   5.047  0.1327 -0.3710  0.0247
 3738SOL    HW114168   4.556   3.217   5.014 -1.1328 -0.3110  0.8896
 3738SOL    HW214169   4.504   3.344   5.078  0.9158  0.5932  0.8250
 3739SOL     OW14170   2.372   2.476   3.702 -0.9214 -0.6261  0.2559
 3739SOL    HW114171   2.466   2.493   3.696 -1.1505  0.4059 -1.0919
 3739SOL    HW214172   2.365   2.386   3.732  0.4935 -0.6925  0.4542
 3740SOL     OW14173   2.214   4.593   6.817 -0.0843 -0.3521  0.7251
 3740SOL    HW114174   2.169   4.509   6.815 -1.8936  0.5198  2.2297
 3740SOL    HW214175   2.287   4.582   6.756 -0.0448 -3.1095  1.1295
 3741SOL     OW14176   3.347   2.964   6.457 -0.3095 -0.3761 -0.2715
 3741SOL    HW114177   3.320   2.877   6.428  0.9868 -0.8674 -0.0721
 3741SOL    HW214178   3.332   2.964   6.551 -2.3285  0.4043 -0.5416
 3742SOL     OW14179   4.008   0.123   5.603 -0.2489  0.1931  0.2993
 3742SOL    HW114180   3.993   0.199   5.660  2.9488  0.7185  0.5838
 3742SOL    HW214181   4.013   0.160   5.515  0.3820  0.2002  0.3344
 3743SOL     OW14182   3.689   7.279   6.660 -0.4579 -0.4754  0.3055
 3743SOL    HW114183   3.662   7.273   6.751  0.5218  0.6581  0.6843
 3743SOL    HW214184   3.781   7.254   6.660 -0.3861 -0.2236 -0.3412
 3744SOL     OW14185   7.920   1.506   6.068 -0.0539 -0.5889 -0.0782
 3744SOL    HW114186   7.832   1.520   6.033  0.3149  0.3678 -0.6662
 3744SOL    HW214187   7.964   1.451   6.004 -0.3088 -1.3516  0.3801
 3745SOL     OW14188   3.897   1.187   2.556  0.1943  0.0265  0.2921
 3745SOL    HW114189   3.948   1.262   2.587 -1.4786  0.4323  2.2698
 3745SOL    HW214190   3.953   1.111   2.572  0.7668  0.5920  1.0095
 3746SOL     OW14191   2.424   3.919   2.794  0.4459  0.3131  0.8758
 3746SOL    HW114192   2.359   3.926   2.864 -0.3619  0.7772  0.1061
 3746SOL    HW214193   2.491   3.860   2.829 -1.2180 -1.5520  1.0960
 3747SOL     OW14194   4.219   7.229   1.413  0.2489 -0.2050  0.1736
 3747SOL    HW114195   4.208   7.303   1.354 -0.3729 -0.0589  0.4526
 3747SOL    HW214196   4.176   7.155   1.369  0.7745 -0.3744 -0.0570
 3748SOL     OW14197   0.684   5.801   6.962 -0.1767  0.3602 -0.2165
 3748SOL    HW114198   0.677   5.801   6.866 -2.9700  0.4165 -0.1039
 3748SOL    HW214199   0.773   5.773   6.979  1.3044  2.8145 -2.8415
 3749SOL     OW14200   2.888   0.376   7.364 -0.0665 -0.3656  0.4556
 3749SOL    HW114201   2.966   0.324   7.382  1.7375  2.2335  0.8469
 3749SOL    HW214202   2.917   0.467   7.376 -2.4493  0.8717 -2.0882
 3750SOL     OW14203   6.849   6.910   6.356 -0.0643  0.3075  0.3468
 3750SOL    HW114204   6.942   6.894   6.338 -0.1704 -0.4899  0.5102
 3750SOL    HW214205   6.804   6.886   6.275 -0.1422  0.6534  0.2822
 3751SOL     OW14206   7.978   7.735   2.939 -0.0708 -0.4979  0.4030
 3751SOL    HW114207   7.987   7.648   2.901  0.6567  0.0055 -0.6321
 3751SOL    HW214208   7.884   7.744   2.957 -0.5015 -0.6415 -1.6053
 3752SOL     OW14209   6.914   5.870   4.628  0.7210 -0.2916 -0.3948
 3752SOL    HW114210   6.990   5.921   4.598  0.8044 -0.2080 -0.0451
 3752SOL    HW214211   6.867   5.931   4.685 -0.6799  0.3443 -2.1529
 3753SOL     OW14212   7.172   4.159   3.514  0.8140  0.1174  0.3482
 3753SOL    HW114213   7.254   4.122   3.547 -0.1556 -0.5108  2.1944
 3753SOL    HW214214   7.124   4.184   3.593 -0.7062  0.6517 -0.7047
 3754SOL     OW14215   2.570   1.066   2.133 -0.4736 -0.4696 -0.4237
 3754SOL    HW114216   2.588   0.972   2.129  2.8372  0.0462 -0.3841
 3754SOL    HW214217   2.543   1.082   2.223  0.6729 -1.1758  0.0677
 3755SOL     OW14218   0.735   6.122   4.210 -0.0591 -0.0658 -0.3166
 3755SOL    HW114219   0.645   6.089   4.212 -0.1489  0.2141  0.5573
 3755SOL    HW214220   0.743   6.164   4.124 -1.1909  1.0612  0.0982
 3756SOL     OW14221   2.511   7.713   2.183  0.0247  0.2109  0.4749
 3756SOL    HW114222   2.589   7.693   2.234  0.1656 -1.3058 -0.2530
 3756SOL    HW214223   2.542   7.769   2.112  0.0185  1.4489  1.4288
 3757SOL     OW14224   0.665   5.424   6.944 -0.3431 -0.4822  0.3450
 3757SOL    HW114225   0.602   5.482   6.987  1.2505  0.9507  0.8537
 3757SOL    HW214226   0.701   5.477   6.872 -1.4477 -2.1158 -1.5124
 3758SOL     OW14227   6.781   3.128   7.428 -0.2221 -0.1419  0.1407
 3758SOL    HW114228   6.802   3.161   7.340 -1.5677 -0.2156 -0.2300
 3758SOL    HW214229   6.822   3.042   7.432 -1.2740 -0.7208 -0.9428
 3759SOL     OW14230   3.876   0.024   2.212  0.2836  1.2942 -0.1612
 3759SOL    HW114231   3.828   0.001   2.132 -0.9107  0.0487  0.8730
 3759SOL    HW214232   3.937  -0.049   2.225 -0.9420  0.4655  1.1359
 3760SOL     OW14233   0.788   4.659   3.343  0.0328 -0.3138 -0.4643
 3760SOL    HW114234   0.837   4.577   3.350 -0.6215 -0.7123 -0.4965
 3760SOL    HW214235   0.753   4.674   3.431 -0.9169 -0.7552 -0.7499
 3761SOL     OW14236   8.068   3.221   2.062 -0.5972  0.3355 -0.2580
 3761SOL    HW114237   8.040   3.304   2.023 -1.7703  0.3597  0.5772
 3761SOL    HW214238   8.059   3.235   2.156  2.6732  0.4493  0.1457
 3762SOL     OW14239   7.790   5.687   5.878 -0.3006  0.0389 -0.1330
 3762SOL    HW114240   7.821   5.601   5.905 -1.4733 -0.4467 -0.2647
 3762SOL    HW214241   7.780   5.736   5.960 -0.9766 -0.4278  0.0718
 3763SOL     OW14242   3.252   7.408   5.108  0.1085  0.2630  0.1271
 3763SOL    HW114243   3.255   7.399   5.203  1.4796 -0.3338  0.0491
 3763SOL    HW214244   3.323   7.469   5.088  0.4074 -0.3019 -0.5752
 3764SOL     OW14245   5.712   1.523   5.494 -0.2603 -0.1676  0.0272
 3764SOL    HW114246   5.798   1.486   5.513  0.3236  0.5009 -1.1529
 3764SOL    HW214247   5.663   1.451   5.452  0.0182 -0.3108 -0.0510
 3765SOL     OW14248   0.268   2.936   2.273 -0.5071 -0.2124  0.0896
 3765SOL    HW114249   0.314   2.866   2.226  0.6523 -0.5144  1.6158
 3765SOL    HW214250   0.263   3.007   2.209 -0.7212 -1.2853 -1.1291
 3766SOL     OW14251   5.741   0.722   1.739 -0.3974  0.4198  0.3596
 3766SOL    HW114252   5.799   0.782   1.694  0.0348  0.0869  0.4644
 3766SOL    HW214253   5.707   0.664   1.670  1.0538 -0.7448  0.5655
 3767SOL     OW14254   0.713   3.293   1.289 -0.0572  0.2222  0.4239
 3767SOL    HW114255   0.673   3.233   1.226 -1.7837  0.5871  1.1056
 3767SOL    HW214256   0.756   3.236   1.353  2.9425 -0.1487 -1.7148
 3768SOL     OW14257   2.979   4.628   3.924  0.5942 -0.1167 -0.0718
 3768SOL    HW114258   2.939   4.629   4.011  0.4655 -1.2689 -0.0977
 3768SOL    HW214259   2.974   4.719   3.894 -1.8226 -0.1372  0.0189
 3769SOL     OW14260   0.566   2.641   6.564  0.3300 -0.3728  0.3347
 3769SOL    HW114261   0.565   2.708   6.632  3.2242 -1.2717  1.4179
 3769SOL    HW214262   0.593   2.687   6.485  0.7569  0.0028  0.6955
 3770SOL     OW14263   6.773   7.390   0.514  0.3860  0.1335 -0.0895
 3770SOL    HW114264   6.843   7.334   0.548  0.2848  1.0095  1.6565
 3770SOL    HW214265   6.733   7.338   0.444  2.5392 -0.5234 -0.8886
 3771SOL     OW14266   2.633   0.989   3.548 -0.0440 -0.3432 -0.9714
 3771SOL    HW114267   2.717   0.969   3.508  0.9463  1.8754 -0.1783
 3771SOL    HW214268   2.568   0.945   3.493  1.6567 -3.5391 -0.6145
 3772SOL     OW14269   5.434   3.275   2.689  0.0401  0.2973  0.2019
 3772SOL    HW114270   5.490   3.199   2.703 -0.9334 -0.5904 -0.5317
 3772SOL    HW214271   5.476   3.345   2.739  1.4630 -0.4741  0.1575
 3773SOL     OW14272   3.509   1.637   0.372  0.4753 -0.0509  0.1013
 3773SOL    HW114273   3.508   1.543   0.356  2.3922 -0.1033  0.0100
 3773SOL    HW214274   3.441   1.651   0.438  2.2398 -2.0063  2.5202
 3774SOL     OW14275   0.107   4.048   4.478 -0.1785 -0.2269 -0.0305
 3774SOL    HW114276   0.147   4.032   4.564 -0.1854  0.9743  0.2147
 3774SOL    HW214277   0.022   4.087   4.499 -0.3820 -0.3875 -0.5729
 3775SOL     OW14278   0.083   1.095   7.773  0.3307  0.1178 -0.8742
 3775SOL    HW114279   0.015   1.152   7.737 -0.4554 -0.9655 -1.1518
 3775SOL    HW214280   0.125   1.149   7.841 -0.3741  1.0301 -1.1324
 3776SOL     OW14281   7.057   3.339   0.682 -0.3017  0.1093 -0.4202
 3776SOL    HW114282   6.976   3.331   0.733  0.2926  1.5974  0.8475
 3776SOL    HW214283   7.027   3.356   0.592 -1.3994  0.3034 -0.0381
 3777SOL     OW14284   4.086   1.764   2.764 -0.1028  0.0218 -0.3886
 3777SOL    HW114285   4.048   1.685   2.803  0.3916 -0.5747 -1.0942
 3777SOL    HW214286   4.145   1.732   2.696  0.9647  0.9545  0.0509
 3778SOL     OW14287   3.610   1.529   5.773  0.0469  0.2707  0.1728
 3778SOL    HW114288   3.546   1.547   5.704  0.1476  0.5777  0.1536
 3778SOL    HW214289   3.694   1.525   5.726  0.0081 -0.4414  0.1538
 3779SOL     OW14290   7.369   2.799   7.022  0.3214 -0.5845  0.3068
 3779SOL    HW114291   7.287   2.763   7.056  0.8125 -0.6493  1.4766
 3779SOL    HW214292   7.366   2.782   6.928 -2.3437  2.0223 -0.2489
 3780SOL     OW14293   4.803   1.066   6.183  0.2654 -0.1872  0.5501
 3780SOL    HW114294   4.877   1.018   6.146  0.0826 -0.4933  0.5780
 3780SOL    HW214295   4.843   1.135   6.237  0.5324  0.2701 -0.2253
 3781SOL     OW14296   6.013   6.078   5.423 -0.1364  0.4006 -0.0666
 3781SOL    HW114297   5.984   6.066   5.333 -3.0364 -2.3410  1.0554
 3781SOL    HW214298   5.936   6.113   5.469  0.4554 -0.5379  1.7570
 3782SOL     OW14299   4.319   6.595   2.132  0.0709 -0.5973  0.2447
 3782SOL    HW114300   4.308   6.508   2.169  1.8487 -0.9792 -0.0217
 3782SOL    HW214301   4.330   6.580   2.038  0.1703 -0.0654  0.1657
 3783SOL     OW14302   1.188   7.435   5.187  0.0814 -0.1177 -0.0559
 3783SOL    HW114303   1.227   7.471   5.107  1.0404 -0.8951  0.0409
 3783SOL    HW214304   1.187   7.509   5.248  0.6365  0.1330 -0.3403
 3784SOL     OW14305   5.414   3.272   7.531  0.2860  0.1580 -0.2667
 3784SOL    HW114306   5.496   3.307   7.496 -0.2749  0.2766 -1.5106
 3784SOL    HW214307   5.426   3.177   7.529  0.8501  0.1810  0.7612
 3785SOL     OW14308   7.487   3.877   2.069 -0.0867 -0.4206  0.1241
 3785SOL    HW114309   7.572   3.875   2.113  0.0282 -1.2383 -0.1149
 3785SOL    HW214310   7.433   3.815   2.119 -0.5557  0.1167  0.2934
 3786SOL     OW14311   3.389   2.790   7.527  0.7844  0.1790 -0.7945
 3786SOL    HW114312   3.307   2.833   7.551  0.1759  0.1631 -2.6752
 3786SOL    HW214313   3.457   2.845   7.566 -0.0789  0.6490  0.1048
 3787SOL     OW14314   5.840   2.473   4.458  0.3883 -0.0444 -0.3965
 3787SOL    HW114315   5.800   2.524   4.528 -0.3943  1.6238 -1.9640
 3787SOL    HW214316   5.866   2.391   4.499 -0.3859  0.7187  1.7320
 3788SOL     OW14317   1.696   3.433   7.062 -0.0097 -0.1864 -0.2150
 3788SOL    HW114318   1.638   3.465   6.992  1.2137  0.8634 -0.7894
 3788SOL    HW214319   1.645   3.366   7.107 -1.5058  0.4123 -0.9662
 3789SOL     OW14320   5.749   5.480   4.250  0.9624 -0.0314 -0.3965
 3789SOL    HW114321   5.769   5.387   4.260  1.4474  0.2276  1.3016
 3789SOL    HW214322   5.662   5.490   4.288 -0.2917 -0.2086 -2.9814
 3790SOL     OW14323   7.092   2.479   3.767  0.0214  0.3179  0.3828
 3790SOL    HW114324   7.151   2.443   3.833 -0.1634 -0.8456 -0.0753
 3790SOL    HW214325   7.101   2.574   3.777 -0.4271  0.1953  2.4497
 3791SOL     OW14326   7.180   5.914   6.213  0.3030  0.0407 -0.0200
 3791SOL    HW114327   7.103   5.934   6.160 -0.8446  0.6138  1.7647
 3791SOL    HW214328   7.254   5.925   6.154 -0.7985  2.3212 -1.0885
 3792SOL     OW14329   0.271   4.552   0.680 -0.0039  0.2325 -0.0706
 3792SOL    HW114330   0.275   4.466   0.639 -0.1490  0.0027  0.3841
 3792SOL    HW214331   0.338   4.603   0.635  0.2430 -0.1875 -0.1901
 3793SOL     OW14332   0.498   1.173   0.920 -0.0643  0.7657 -0.2243
 3793SOL    HW114333   0.513   1.088   0.960 -0.5825  0.6910 -0.1889
 3793SOL    HW214334   0.583   1.197   0.882 -0.0561 -0.0196 -0.7186
 3794SOL     OW14335   7.405   7.003   5.840  0.4508  0.0272  0.4771
 3794SOL    HW114336   7.491   6.961   5.845  0.4766  0.1501  1.2362
 3794SOL    HW214337   7.345   6.938   5.876  0.3822  0.3412  0.9406
 3795SOL     OW14338   3.753   0.884   4.707  0.0667  0.4039  0.6400
 3795SOL    HW114339   3.672   0.833   4.712  0.4470 -0.3831 -0.7237
 3795SOL    HW214340   3.727   0.965   4.664 -0.2428  0.7360  1.4310
 3796SOL     OW14341   6.936   4.463   6.425  0.6189 -0.1621 -0.1771
 3796SOL    HW114342   6.894   4.538   6.465  1.9773  0.3733  0.3236
 3796SOL    HW214343   6.926   4.477   6.331 -0.3757 -0.1055 -0.0709
 3797SOL     OW14344   1.444   0.700   1.697 -0.1788 -0.3403  0.0850
 3797SOL    HW114345   1.412   0.790   1.703  0.3349 -0.2167  1.2630
 3797SOL    HW214346   1.472   0.691   1.606 -1.3698  0.2834 -0.3748
 3798SOL     OW14347   7.249   2.510   0.629 -0.7252  0.4697  0.3372
 3798SOL    HW114348   7.335   2.494   0.669  0.3132 -0.0447 -1.9423
 3798SOL    HW214349   7.215   2.422   0.610 -2.0650  0.6442  1.6902
 3799SOL     OW14350   7.862   0.802   1.474  0.3506 -0.4451 -0.2128
 3799SOL    HW114351   7.832   0.750   1.400 -1.2657  0.2433 -0.0916
 3799SOL    HW214352   7.864   0.892   1.440  0.9919 -0.3015  0.1859
 3800SOL     OW14353   4.138   3.827   0.335 -0.0037  0.3814 -0.3420
 3800SOL    HW114354   4.045   3.850   0.330 -0.7613 -2.1148  0.7699
 3800SOL    HW214355   4.147   3.781   0.418  2.3257  0.8064 -0.2924
 3801SOL     OW14356   1.688   3.965   3.347 -0.2991  0.0462 -0.2214
 3801SOL    HW114357   1.659   3.878   3.320  0.2216  0.3445 -1.8494
 3801SOL    HW214358   1.690   3.961   3.443  1.0627 -2.1875 -0.2618
 3802SOL     OW14359   3.857   3.437   1.056  0.1661 -0.3616  0.1654
 3802SOL    HW114360   3.940   3.437   1.103  1.3282 -0.7160 -1.7703
 3802SOL    HW214361   3.873   3.382   0.979 -1.9663 -0.6874 -0.1152
 3803SOL     OW14362   0.374   3.395   3.592 -0.3484  0.6171  0.0528
 3803SOL    HW114363   0.396   3.462   3.527 -0.4358  1.7271  1.1157
 3803SOL    HW214364   0.367   3.444   3.674 -0.8110 -0.6558  0.7937
 3804SOL     OW14365   2.935   7.586   8.026 -0.5294 -0.4645 -0.1984
 3804SOL    HW114366   2.863   7.635   7.986 -0.4933 -0.9449 -0.8594
 3804SOL    HW214367   3.013   7.616   7.980 -0.1724  0.5977  1.0033
 3805SOL     OW14368   7.884   5.257   3.644  0.8058 -0.3096  0.3302
 3805SOL    HW114369   7.953   5.322   3.629  0.3788 -0.0862 -0.7810
 3805SOL    HW214370   7.875   5.253   3.739  1.5682  0.4802  0.4508
 3806SOL     OW14371   1.734   2.222   6.544  0.3470 -0.0723 -0.1374
 3806SOL    HW114372   1.698   2.300   6.587 -0.5809 -1.2855  1.4348
 3806SOL    HW214373   1.777   2.255   6.465  0.4341  2.0697  0.7391
 3807SOL     OW14374   5.755   5.039   6.732  0.0789 -0.7269  0.7214
 3807SOL    HW114375   5.711   5.086   6.803  0.4530 -2.2985  2.0394
 3807SOL    HW214376   5.838   5.086   6.720 -0.9016  0.8630 -0.2231
 3808SOL     OW14377   7.367   6.210   1.082  0.0206 -0.1071 -0.4972
 3808SOL    HW114378   7.361   6.160   1.164  0.8331 -1.4876 -1.2440
 3808SOL    HW214379   7.461   6.228   1.072 -0.1547  0.6797 -0.7772
 3809SOL     OW14380   5.450   1.368   2.243  0.0839 -0.2577 -0.0212
 3809SOL    HW114381   5.421   1.442   2.297  1.5599 -0.9767  1.8829
 3809SOL    HW214382   5.544   1.362   2.259  0.1095 -2.1599 -0.6049
 3810SOL     OW14383   0.667   0.374   3.652  0.1931 -0.0304 -0.9547
 3810SOL    HW114384   0.636   0.285   3.634  0.2936  0.0706 -1.6572
 3810SOL    HW214385   0.600   0.412   3.708  0.7556 -0.9608  0.4014
 3811SOL     OW14386   5.866   2.889   4.139 -0.2295  0.4195 -0.3976
 3811SOL    HW114387   5.898   2.923   4.223 -0.4573  0.6346 -0.3957
 3811SOL    HW214388   5.878   2.794   4.145 -0.7602  0.3799  0.0997
 3812SOL     OW14389   7.980   7.866   1.289 -0.1708  0.1643  0.1448
 3812SOL    HW114390   7.910   7.921   1.324 -1.3361 -0.6121 -0.9139
 3812SOL    HW214391   7.995   7.899   1.200 -1.0011 -1.2921 -0.5652
 3813SOL     OW14392   7.348   4.551   2.535 -0.5214 -0.0159 -0.5672
 3813SOL    HW114393   7.381   4.473   2.490  0.4113  0.3550 -0.5513
 3813SOL    HW214394   7.256   4.557   2.509 -0.3847 -0.6524 -1.2185
 3814SOL     OW14395   5.476   3.233   2.983 -0.0106 -0.1804  0.0728
 3814SOL    HW114396   5.467   3.319   2.942  0.9379 -0.5972 -1.0690
 3814SOL    HW214397   5.531   3.183   2.923  3.1032 -0.2482  2.6554
 3815SOL     OW14398   5.913   7.156   0.445  0.0210  0.3542 -0.6476
 3815SOL    HW114399   6.004   7.186   0.451 -0.0936  0.6182 -0.1489
 3815SOL    HW214400   5.895   7.151   0.351  1.0809 -1.3675 -0.8037
 3816SOL     OW14401   2.969   8.007   5.826 -0.4027 -0.3273  0.1395
 3816SOL    HW114402   2.911   8.044   5.759  0.8582 -0.5834 -1.1376
 3816SOL    HW214403   2.910   7.959   5.884 -1.5254 -0.2110 -0.8592
 3817SOL     OW14404   4.122   0.860   1.440 -0.4664 -0.1203 -0.3789
 3817SOL    HW114405   4.105   0.769   1.416  0.8890 -0.1318 -1.4538
 3817SOL    HW214406   4.218   0.868   1.440 -0.5546  1.3030 -0.3678
 3818SOL     OW14407   2.796   1.148   1.938  0.5182  0.1742  0.0758
 3818SOL    HW114408   2.734   1.118   2.005 -0.0823  0.9143 -0.1364
 3818SOL    HW214409   2.797   1.243   1.947 -1.2484  0.5151 -2.3892
 3819SOL     OW14410   7.782   0.616   0.796  0.0955  0.1164  0.2453
 3819SOL    HW114411   7.748   0.604   0.707  0.3541  0.4662  0.0989
 3819SOL    HW214412   7.709   0.654   0.844  0.2242  0.7358 -0.0344
 3820SOL     OW14413   4.349   4.226   3.506 -0.2710 -0.5133 -0.1291
 3820SOL    HW114414   4.336   4.144   3.555  0.3464  0.0301  0.9850
 3820SOL    HW214415   4.269   4.276   3.521 -0.1363 -0.4018  0.2264
 3821SOL     OW14416   3.399   1.250   4.793 -0.2604 -0.0494  0.3816
 3821SOL    HW114417   3.313   1.243   4.750  0.2026 -1.2210 -0.4093
 3821SOL    HW214418   3.427   1.159   4.803 -0.1638  0.1986  2.8454
 3822SOL     OW14419   2.424   0.285   1.481 -0.3189 -0.4160 -0.0434
 3822SOL    HW114420   2.493   0.347   1.504 -1.4867  1.8186 -2.1989
 3822SOL    HW214421   2.468   0.220   1.426  0.1516  0.9690 -1.3726
 3823SOL     OW14422   4.963   1.366   4.218  0.7810 -0.4683 -0.2181
 3823SOL    HW114423   4.905   1.398   4.149  0.3963  0.6872  0.6152
 3823SOL    HW214424   4.972   1.272   4.200 -0.9997 -0.6037 -0.6371
 3824SOL     OW14425   0.591   5.303   0.368  0.2815 -0.5480 -0.4359
 3824SOL    HW114426   0.536   5.238   0.323  0.6387 -1.7642  0.7894
 3824SOL    HW214427   0.557   5.304   0.458  0.4602  0.7831 -0.3743
 3825SOL     OW14428   4.168   6.260   6.503 -0.0144  0.0006  0.2053
 3825SOL    HW114429   4.114   6.273   6.581  0.8806 -1.5996  1.1475
 3825SOL    HW214430   4.235   6.197   6.530  0.9749  0.2114 -1.5626
 3826SOL     OW14431   7.789   5.525   4.598  0.2783  0.5437 -0.2297
 3826SOL    HW114432   7.845   5.463   4.646  0.3664  0.6921 -0.1406
 3826SOL    HW214433   7.706   5.478   4.586 -0.4574  1.2160  1.8003
 3827SOL     OW14434   0.847   6.089   0.882  0.1303 -0.0824 -0.5267
 3827SOL    HW114435   0.863   6.088   0.788 -1.3858 -2.1889 -0.8478
 3827SOL    HW214436   0.782   6.159   0.895 -0.5744 -0.5727 -1.2695
 3828SOL     OW14437   6.179   1.929   5.449 -0.0309  0.5129  0.1323
 3828SOL    HW114438   6.182   2.021   5.425 -2.1350  1.0225  1.5237
 3828SOL    HW214439   6.140   1.885   5.374  0.6201  0.7914 -0.3797
 3829SOL     OW14440   1.605   1.624   1.320  0.2621 -0.4876  0.1843
 3829SOL    HW114441   1.542   1.682   1.277  1.3748  1.2730  0.8205
 3829SOL    HW214442   1.555   1.545   1.339 -1.6702  0.7006  0.3590
 3830SOL     OW14443   2.978   7.257   2.049 -0.3089 -0.3271  0.1015
 3830SOL    HW114444   2.885   7.280   2.057 -0.2572 -0.0619 -0.0557
 3830SOL    HW214445   3.003   7.226   2.136 -0.1318  1.0892  0.5818
 3831SOL     OW14446   5.924   7.324   4.576 -0.2547  0.0883 -0.2832
 3831SOL    HW114447   6.018   7.305   4.586  0.3424  3.3329  1.6126
 3831SOL    HW214448   5.882   7.269   4.641 -0.1588 -3.3780 -2.8487
 3832SOL     OW14449   3.678   8.004   6.583  0.1444 -0.6048  0.0314
 3832SOL    HW114450   3.613   8.025   6.517 -0.6256  1.3948  1.3502
 3832SOL    HW214451   3.659   7.914   6.609 -0.9208 -0.6533 -0.9032
 3833SOL     OW14452   1.619   1.829   5.410  0.0265  0.1907 -0.7084
 3833SOL    HW114453   1.603   1.910   5.361 -0.5585  0.5648  0.0607
 3833SOL    HW214454   1.708   1.803   5.386  0.4995  1.4686 -0.4175
 3834SOL     OW14455   7.386   7.944   6.632  0.0460  0.4580  0.4171
 3834SOL    HW114456   7.329   8.016   6.657  1.9622  2.7162 -1.3024
 3834SOL    HW214457   7.465   7.956   6.685  0.8164  0.3047 -0.6624
 3835SOL     OW14458   4.763   3.688   4.706  0.9218  0.0983 -0.1197
 3835SOL    HW114459   4.813   3.650   4.634 -0.7037 -1.8703 -0.2651
 3835SOL    HW214460   4.729   3.613   4.755 -1.0674  1.3555  0.5430
 3836SOL     OW14461   7.987   4.279   5.720  0.5402  0.4415 -0.6071
 3836SOL    HW114462   8.074   4.258   5.752  0.8816  2.0281 -0.4226
 3836SOL    HW214463   7.989   4.374   5.705 -1.9716  1.0538  2.0253
 3837SOL     OW14464   2.839   6.102   5.320  0.2291 -0.1537  0.2259
 3837SOL    HW114465   2.779   6.094   5.246 -2.3342 -1.0083  2.2317
 3837SOL    HW214466   2.800   6.171   5.374  0.9778 -0.8394  1.6832
 3838SOL     OW14467   4.300   6.708   8.082 -0.2561  0.3782  0.0312
 3838SOL    HW114468   4.390   6.739   8.072 -0.0330 -0.3615 -0.3730
 3838SOL    HW214469   4.288   6.647   8.009 -1.0557  0.3981  0.1366
 3839SOL     OW14470   2.101   5.214   6.777 -0.1644  0.3732 -0.4695
 3839SOL    HW114471   2.131   5.303   6.798  0.7417  0.0387 -0.2974
 3839SOL    HW214472   2.161   5.157   6.825 -1.2735 -0.3287  0.1264
 3840SOL     OW14473   4.277   0.473   3.044  0.4021  0.1714  0.1676
 3840SOL    HW114474   4.210   0.533   3.078  0.9099  0.0218  1.4944
 3840SOL    HW214475   4.338   0.462   3.117  0.5554 -1.6078 -0.1936
 3841SOL     OW14476   0.192   5.154   0.825 -0.6374 -0.2242  0.7031
 3841SOL    HW114477   0.283   5.126   0.834 -0.0780  1.4767  0.7632
 3841SOL    HW214478   0.158   5.105   0.751  0.4053 -0.6947  0.5270
 3842SOL     OW14479   6.644   0.804   2.990 -0.0146  0.0323 -0.5250
 3842SOL    HW114480   6.644   0.875   3.055 -0.6522  0.1389 -0.6310
 3842SOL    HW214481   6.634   0.724   3.042  1.3324 -0.0414 -0.3558
 3843SOL     OW14482   7.932   3.094   0.580  0.0288 -0.2780 -0.0330
 3843SOL    HW114483   7.845   3.118   0.612  1.0548  1.8038  1.4481
 3843SOL    HW214484   7.974   3.052   0.654  2.1240  3.7925  1.4310
 3844SOL     OW14485   6.192   3.571   3.494  0.1444  0.3701 -0.6573
 3844SOL    HW114486   6.164   3.632   3.426  0.3049 -0.3124 -1.3641
 3844SOL    HW214487   6.113   3.523   3.518  0.5331 -1.2851 -2.3715
 3845SOL     OW14488   4.673   0.572   1.245 -0.2235  0.2364  0.0471
 3845SOL    HW114489   4.632   0.495   1.204  1.3416 -0.8429  0.4457
 3845SOL    HW214490   4.659   0.560   1.339 -1.5092  1.3753  0.0340
 3846SOL     OW14491   7.149   5.755   3.153  0.0878  0.0016 -0.0512
 3846SOL    HW114492   7.070   5.767   3.100 -0.3527  0.4771  0.7014
 3846SOL    HW214493   7.128   5.794   3.238  2.0155  2.5538 -0.6188
 3847SOL     OW14494   7.465   1.745   3.635  0.1298  0.3226 -0.1107
 3847SOL    HW114495   7.457   1.838   3.652 -0.2846  0.0352  1.4045
 3847SOL    HW214496   7.454   1.703   3.720 -0.4255 -1.1587 -0.8582
 3848SOL     OW14497   4.029   3.160   0.258  0.2416  0.2991 -0.6642
 3848SOL    HW114498   4.010   3.188   0.168 -0.4041  1.0913 -0.2835
 3848SOL    HW214499   3.964   3.092   0.276 -0.2452  0.8171 -0.4592
 3849SOL     OW14500   2.937   6.611   1.711  0.4360 -0.7064 -0.4689
 3849SOL    HW114501   3.021   6.631   1.752 -0.2157  0.8932  0.1716
 3849SOL    HW214502   2.956   6.539   1.651  1.4814 -3.0816  2.4331
 3850SOL     OW14503   2.256   0.049   1.552  0.3253 -0.5608 -0.2644
 3850SOL    HW114504   2.309   0.058   1.631  0.7363 -0.5214 -0.5420
 3850SOL    HW214505   2.261   0.134   1.509  0.7269 -0.8075 -0.7180
 3851SOL     OW14506   1.915   5.460   7.674 -0.5632 -0.4951 -0.0211
 3851SOL    HW114507   1.828   5.464   7.633 -0.1606  2.3830 -0.8423
 3851SOL    HW214508   1.900   5.421   7.759 -1.9786 -3.7496 -1.6044
 3852SOL     OW14509   2.916   6.320   6.596 -0.4948 -0.3620 -0.2875
 3852SOL    HW114510   2.861   6.283   6.665  2.0934 -0.1156  2.0934
 3852SOL    HW214511   2.974   6.249   6.570  0.9445  0.4858  0.4603
 3853SOL     OW14512   2.880   3.896   7.681  0.1475 -0.1972  0.3075
 3853SOL    HW114513   2.926   3.870   7.601  0.5466  0.6872  0.2348
 3853SOL    HW214514   2.871   3.991   7.673  0.6379 -0.0268  1.5439
 3854SOL     OW14515   4.840   2.981   4.570  0.7441 -0.0253 -0.7731
 3854SOL    HW114516   4.820   2.910   4.509  0.7465 -0.4502 -0.2899
 3854SOL    HW214517   4.927   2.960   4.604 -0.4491 -1.5179  1.6890
 3855SOL     OW14518   3.924   5.166   7.017  0.0431 -0.4951 -0.2491
 3855SOL    HW114519   4.011   5.184   7.051 -0.0236 -0.1706 -0.2527
 3855SOL    HW214520   3.867   5.167   7.093 -0.2270  0.9878 -0.4553
 3856SOL     OW14521   4.035   7.125   2.816 -0.3108 -0.5163 -0.2771
 3856SOL    HW114522   3.959   7.069   2.832  0.5040 -1.4668  0.4205
 3856SOL    HW214523   4.110   7.068   2.833  0.5620  0.3530 -1.1060
 3857SOL     OW14524   5.470   5.674   1.099  0.1149 -0.5658  0.1892
 3857SOL    HW114525   5.519   5.595   1.120 -1.1554 -1.2770  0.5661
 3857SOL    HW214526   5.510   5.742   1.153 -1.9998 -2.0051  3.9430
 3858SOL     OW14527   5.093   2.091   8.035  0.0206  0.1020 -0.2058
 3858SOL    HW114528   4.998   2.078   8.034  0.3176 -2.4963  0.1056
 3858SOL    HW214529   5.129   2.010   8.069  2.6677 -1.4015 -5.4623
 3859SOL     OW14530   5.458   0.565   4.251  0.7078  0.3198 -0.4440
 3859SOL    HW114531   5.540   0.609   4.275  1.2457 -0.3702 -0.9864
 3859SOL    HW214532   5.425   0.530   4.333  0.3451  1.5834 -0.0200
 3860SOL     OW14533   6.861   5.056   5.786 -0.3513  0.9162  0.2831
 3860SOL    HW114534   6.789   5.082   5.730 -0.1430 -0.2604 -0.5857
 3860SOL    HW214535   6.856   4.960   5.788 -0.0145  0.9026  1.8328
 3861SOL     OW14536   7.466   4.574   2.156 -0.1276  0.0462  0.4923
 3861SOL    HW114537   7.401   4.504   2.149 -0.4247  0.3693 -0.0650
 3861SOL    HW214538   7.459   4.622   2.073 -0.1368  0.9070  0.9720
 3862SOL     OW14539   2.469   4.163   1.145 -0.8431 -0.1616 -0.1838
 3862SOL    HW114540   2.528   4.177   1.219 -0.3556  0.8489 -0.7348
 3862SOL    HW214541   2.527   4.152   1.070 -1.2990 -2.4263 -0.2601
 3863SOL     OW14542   7.567   1.280   2.422 -0.3483 -0.1041  0.0096
 3863SOL    HW114543   7.586   1.202   2.370  2.1777  0.2689  0.2280
 3863SOL    HW214544   7.575   1.352   2.360  1.6114  0.2537  0.5985
 3864SOL     OW14545   3.653   5.447   2.476 -0.1939  0.4197 -0.2830
 3864SOL    HW114546   3.687   5.519   2.529 -2.4487  1.3853 -0.0405
 3864SOL    HW214547   3.728   5.389   2.464  2.1494  3.4618 -1.7041
 3865SOL     OW14548   7.762   6.688   4.763  0.2959 -0.2308  0.5502
 3865SOL    HW114549   7.761   6.674   4.858  0.6541 -1.0279  0.4446
 3865SOL    HW214550   7.674   6.721   4.743  0.1535 -0.2349  1.1278
 3866SOL     OW14551   0.310   2.147   4.663  0.5742 -1.3396  0.1324
 3866SOL    HW114552   0.259   2.161   4.743 -0.8615 -0.7150 -0.8470
 3866SOL    HW214553   0.391   2.105   4.693  0.1644 -0.9349  1.9197
 3867SOL     OW14554   8.024   0.337   6.284  0.0615  0.0249  0.2590
 3867SOL    HW114555   8.007   0.291   6.366 -0.9732 -0.7177 -0.3474
 3867SOL    HW214556   7.938   0.365   6.254  0.5037  0.8818 -0.2406
 3868SOL     OW14557   5.559   0.187   2.596 -0.0718  0.4223  0.2805
 3868SOL    HW114558   5.530   0.118   2.537 -0.6733  1.0935 -0.2349
 3868SOL    HW214559   5.648   0.162   2.622 -0.1708 -0.3784 -0.1350
 3869SOL     OW14560   0.691   4.719   0.374  0.4582 -0.3270  0.1544
 3869SOL    HW114561   0.781   4.748   0.359  0.7152 -0.7851  0.7909
 3869SOL    HW214562   0.670   4.664   0.298 -0.1434  1.6856 -1.2395
 3870SOL     OW14563   5.597   2.197   3.820  0.5183 -0.3312 -0.4172
 3870SOL    HW114564   5.560   2.112   3.795  0.3414 -1.0106  1.9281
 3870SOL    HW214565   5.523   2.258   3.811 -0.7931 -1.3401  2.3786
 3871SOL     OW14566   3.851   6.020   3.708 -0.3267 -0.2442  0.3126
 3871SOL    HW114567   3.783   5.958   3.735  0.8444 -1.5218  0.4606
 3871SOL    HW214568   3.921   5.964   3.674 -0.2938  1.1373 -2.0809
 3872SOL     OW14569   3.600   0.789   0.118  0.1155 -0.5602 -0.6712
 3872SOL    HW114570   3.550   0.870   0.118 -0.1323 -0.6823 -1.9559
 3872SOL    HW214571   3.539   0.723   0.151  0.0171 -0.3934 -0.5161
 3873SOL     OW14572   0.395   6.454   6.546  0.0504 -0.8414 -0.5434
 3873SOL    HW114573   0.410   6.548   6.551  0.7561 -0.9447 -0.4705
 3873SOL    HW214574   0.440   6.426   6.466 -0.1956 -1.1049 -0.5913
 3874SOL     OW14575   0.100   6.563   0.088 -0.3946 -0.0532  0.6748
 3874SOL    HW114576   0.070   6.523   0.007  0.7396  1.1309 -0.3928
 3874SOL    HW214577   0.176   6.511   0.114  2.0026  2.0448 -1.5124
 3875SOL     OW14578   7.967   3.311   4.970  0.1636  0.2029 -0.4627
 3875SOL    HW114579   8.008   3.235   5.010 -1.1238  0.2348  0.9847
 3875SOL    HW214580   7.873   3.300   4.988 -0.0101  2.3167  0.1414
 3876SOL     OW14581   5.364   0.239   2.047 -0.0890  0.2889 -0.4066
 3876SOL    HW114582   5.347   0.296   2.123 -1.4700 -1.1622  0.4377
 3876SOL    HW214583   5.451   0.204   2.064  0.1756  1.0173 -0.1922
 3877SOL     OW14584   6.336   3.437   1.459 -0.4410  0.4551 -0.5299
 3877SOL    HW114585   6.265   3.485   1.503 -0.3630  0.3669 -0.3078
 3877SOL    HW214586   6.366   3.497   1.390 -1.1562  0.2470 -1.0382
 3878SOL     OW14587   5.711   5.380   5.641  0.1407  0.3018 -0.3309
 3878SOL    HW114588   5.736   5.325   5.567 -0.0379  1.6031 -1.4038
 3878SOL    HW214589   5.616   5.390   5.633 -0.1309 -0.9161  1.0798
 3879SOL     OW14590   1.357   6.320   5.288  0.0352  0.4437  0.6710
 3879SOL    HW114591   1.347   6.228   5.263 -0.8242  0.2382  1.7089
 3879SOL    HW214592   1.268   6.354   5.291  0.3974  1.7044 -1.0132
 3880SOL     OW14593   5.829   7.008   6.366 -0.0920 -0.0777 -0.0222
 3880SOL    HW114594   5.811   7.089   6.414 -0.6332  0.0310 -0.3982
 3880SOL    HW214595   5.882   6.956   6.426  0.1991  0.5234  0.2532
 3881SOL     OW14596   0.330   7.940   2.917  0.3009 -0.5033  0.2053
 3881SOL    HW114597   0.371   7.908   2.998  1.1055 -0.5407 -0.2035
 3881SOL    HW214598   0.237   7.921   2.928  0.4309 -0.7064  1.0321
 3882SOL     OW14599   5.744   8.056   7.522 -0.5690  0.0205 -0.0598
 3882SOL    HW114600   5.649   8.057   7.513 -0.5370  0.0677 -0.4222
 3882SOL    HW214601   5.777   8.071   7.433 -0.2250  0.1355  0.0826
 3883SOL     OW14602   4.964   7.536   6.791  0.8753 -0.3590  0.0745
 3883SOL    HW114603   4.960   7.464   6.728 -0.3643 -1.0443  0.8966
 3883SOL    HW214604   4.888   7.591   6.768  0.1429 -0.8536  1.2187
 3884SOL     OW14605   2.565   5.708   6.528 -0.6082  0.6198 -0.3722
 3884SOL    HW114606   2.636   5.650   6.501  0.4906  0.9348  1.7013
 3884SOL    HW214607   2.553   5.766   6.453  1.6864  0.8833 -0.6150
 3885SOL     OW14608   4.906   7.576   0.086  0.3222  0.7144 -0.3853
 3885SOL    HW114609   4.886   7.581  -0.007  0.5744  1.6466 -0.3958
 3885SOL    HW214610   4.965   7.501   0.094  0.9765  1.1439 -1.1042
 3886SOL     OW14611   1.512   2.190   5.190  0.0155  0.3118  0.1580
 3886SOL    HW114612   1.561   2.110   5.176 -0.7770 -0.0351 -0.7470
 3886SOL    HW214613   1.470   2.178   5.275  0.2552 -0.0410  0.2276
 3887SOL     OW14614   6.154   2.130   3.887  0.2000  0.4447 -0.2563
 3887SOL    HW114615   6.226   2.192   3.871 -1.5022  1.9576 -3.0242
 3887SOL    HW214616   6.117   2.158   3.971  1.6801  0.8260  0.3051
 3888SOL     OW14617   2.946   2.341   7.295  0.1425  0.0663 -0.0168
 3888SOL    HW114618   2.921   2.250   7.312  3.6066 -1.0480 -0.2157
 3888SOL    HW214619   3.027   2.335   7.244  0.1409  3.2956 -0.6347
 3889SOL     OW14620   4.258   6.117   6.865  0.1865  0.7080  0.9906
 3889SOL    HW114621   4.340   6.105   6.913  0.1742 -2.7941  0.4066
 3889SOL    HW214622   4.272   6.074   6.781 -1.9972  0.6715  0.5782
 3890SOL     OW14623   5.759   3.123   6.097  0.6998  0.7329 -0.0527
 3890SOL    HW114624   5.817   3.064   6.049  1.1539  1.2932 -0.2068
 3890SOL    HW214625   5.809   3.204   6.106 -0.4356  1.6253 -1.1404
 3891SOL     OW14626   1.595   5.912   5.846  0.5086  0.1754  0.6535
 3891SOL    HW114627   1.615   5.984   5.905 -1.9044 -0.3405  2.2736
 3891SOL    HW214628   1.571   5.839   5.904  0.0933 -1.0200 -0.9420
 3892SOL     OW14629   6.783   1.421   0.933 -0.0437 -1.1422 -0.4219
 3892SOL    HW114630   6.694   1.442   0.905 -0.3072  0.2026  1.2432
 3892SOL    HW214631   6.838   1.451   0.862 -0.8269 -0.2964 -0.6932
 3893SOL     OW14632   7.944   0.491   7.560  0.1816 -0.0894 -0.6877
 3893SOL    HW114633   7.922   0.398   7.569  1.3672 -0.2291  1.7081
 3893SOL    HW214634   7.985   0.513   7.643 -0.6862  2.7902 -0.9263
 3894SOL     OW14635   1.677   2.927   6.822  0.3323  0.0010  0.4636
 3894SOL    HW114636   1.583   2.934   6.805  0.0572  3.0649  2.4419
 3894SOL    HW214637   1.682   2.883   6.907  0.7365 -0.5422  0.1640
 3895SOL     OW14638   7.596   2.990   6.956  0.1537 -0.1810 -0.3396
 3895SOL    HW114639   7.685   2.962   6.978  0.0871 -0.2886 -0.2084
 3895SOL    HW214640   7.545   2.973   7.035  0.4937  2.1314  0.4558
 3896SOL     OW14641   2.478   4.316   0.657  0.2256 -0.7538 -0.6036
 3896SOL    HW114642   2.538   4.279   0.721  0.2668  0.2681 -0.0178
 3896SOL    HW214643   2.421   4.244   0.632 -0.9318 -0.8034  1.9133
 3897SOL     OW14644   0.475   3.895   0.243 -0.4457 -0.4783 -0.0546
 3897SOL    HW114645   0.557   3.851   0.265  0.4975  0.4519 -1.4856
 3897SOL    HW214646   0.441   3.847   0.167 -0.6341 -0.1660 -0.1713
 3898SOL     OW14647   6.736   2.777   4.138 -0.0098  0.9520  0.0743
 3898SOL    HW114648   6.682   2.701   4.161 -1.5092  1.4226 -1.6228
 3898SOL    HW214649   6.684   2.824   4.072  2.4388  1.5469 -1.5394
 3899SOL     OW14650   2.937   4.960   6.163 -0.3830 -0.0401  0.3455
 3899SOL    HW114651   2.845   4.951   6.190 -1.4314  0.2604 -2.7038
 3899SOL    HW214652   2.981   4.884   6.201 -1.7704 -0.0078  2.1682
 3900SOL     OW14653   6.209   7.278   5.460  0.1312  0.7073 -0.1162
 3900SOL    HW114654   6.177   7.361   5.495 -0.3871 -0.0293  1.1952
 3900SOL    HW214655   6.135   7.218   5.467  0.8249 -0.1614 -0.0264
 3901SOL     OW14656   0.018   2.975   2.402 -0.3774 -0.2288  0.2604
 3901SOL    HW114657   0.042   2.968   2.494  0.3282  0.4603  0.1434
 3901SOL    HW214658   0.100   2.956   2.355 -1.0404 -1.9564 -0.2736
 3902SOL     OW14659   6.821   8.027   6.532 -0.1959 -0.2027  0.1661
 3902SOL    HW114660   6.914   8.048   6.542 -0.2895  0.7662 -0.7666
 3902SOL    HW214661   6.813   7.993   6.442 -0.7552 -0.1877  0.2043
 3903SOL     OW14662   7.081   1.012   4.750  0.2657  0.2354 -0.4132
 3903SOL    HW114663   7.060   1.057   4.668 -1.0686 -0.3460 -0.4116
 3903SOL    HW214664   7.104   0.923   4.723  1.6343  0.5252 -0.2962
 3904SOL     OW14665   5.711   1.359   2.300 -0.0916  0.2838  0.6601
 3904SOL    HW114666   5.763   1.406   2.366  0.2400 -0.4619  0.9436
 3904SOL    HW214667   5.745   1.270   2.302 -0.8730 -0.0314  0.2945
 3905SOL     OW14668   4.086   1.128   1.424  0.1733  1.1912  0.6757
 3905SOL    HW114669   4.071   1.033   1.420  0.1601  1.2029  0.4639
 3905SOL    HW214670   4.111   1.144   1.515  1.9422  0.7231  0.2989
 3906SOL     OW14671   2.492   5.655   1.524  0.0714  0.4550  0.0845
 3906SOL    HW114672   2.552   5.580   1.530  1.7076  1.2193 -3.8996
 3906SOL    HW214673   2.407   5.616   1.504  0.8190 -0.4359 -1.5520
 3907SOL     OW14674   7.722   2.471   6.602 -0.6126 -0.1430 -0.2274
 3907SOL    HW114675   7.770   2.420   6.537 -0.7643  0.7274 -1.0487
 3907SOL    HW214676   7.650   2.414   6.628 -0.2644 -0.6938 -0.4518
 3908SOL     OW14677   0.180   1.303   4.499 -0.1441 -0.6456  0.5888
 3908SOL    HW114678   0.106   1.350   4.462 -0.1996 -0.1400  1.3207
 3908SOL    HW214679   0.149   1.212   4.507 -1.2429 -0.1865  2.2427
 3909SOL     OW14680   5.481   7.880   0.362  0.1190 -0.8040 -0.1145
 3909SOL    HW114681   5.441   7.850   0.280 -0.6512  2.4674 -1.0611
 3909SOL    HW214682   5.573   7.857   0.353 -0.0868 -1.2253 -1.5175
 3910SOL     OW14683   1.054   4.389   1.412  0.5971 -0.0930 -0.1102
 3910SOL    HW114684   0.980   4.329   1.400  0.8769 -0.4140 -0.2687
 3910SOL    HW214685   1.123   4.352   1.358  1.2595 -0.4703  0.9504
 3911SOL     OW14686   2.575   2.061   7.927  0.5641 -0.3362 -0.3153
 3911SOL    HW114687   2.594   2.098   8.014  2.2561  1.3097 -1.2960
 3911SOL    HW214688   2.639   1.990   7.917  0.4410 -0.4557 -0.2478
 3912SOL     OW14689   7.103   5.123   5.884 -0.3457  0.2788 -0.0726
 3912SOL    HW114690   7.126   5.060   5.953  0.4666  0.8365  0.1862
 3912SOL    HW214691   7.012   5.103   5.863  0.1247 -1.5181 -0.5786
 3913SOL     OW14692   6.126   2.472   7.880  0.3584 -0.6533 -0.7748
 3913SOL    HW114693   6.172   2.554   7.896  1.1775 -0.9932 -1.3209
 3913SOL    HW214694   6.086   2.450   7.964  0.2334  0.2359 -0.5908
 3914SOL     OW14695   7.589   5.293   6.188 -0.6061  0.1907  0.5318
 3914SOL    HW114696   7.500   5.274   6.158  0.0069  0.3786 -1.6212
 3914SOL    HW214697   7.636   5.319   6.108  1.1498  0.9863  1.7507
 3915SOL     OW14698   1.282   1.829   4.574 -0.1784 -0.3243  0.1493
 3915SOL    HW114699   1.354   1.864   4.522  1.3939 -2.7892  0.5148
 3915SOL    HW214700   1.257   1.901   4.632  0.5595  1.2411 -1.4034
 3916SOL     OW14701   3.291   4.978   1.271 -0.5408 -0.3544 -0.6530
 3916SOL    HW114702   3.284   4.883   1.264 -0.7481 -0.3294 -0.7940
 3916SOL    HW214703   3.383   4.997   1.250 -0.5520 -0.5029 -0.8376
 3917SOL     OW14704   2.780   2.455   0.890  0.0543  0.4148 -0.0270
 3917SOL    HW114705   2.764   2.415   0.976  1.1710  0.3342  0.1531
 3917SOL    HW214706   2.775   2.382   0.828 -1.2223  0.5472 -0.1004
 3918SOL     OW14707   1.772   7.474   1.271  0.4795  0.2489  0.1128
 3918SOL    HW114708   1.813   7.483   1.185  0.3387  1.3404  0.1412
 3918SOL    HW214709   1.718   7.553   1.280  0.1523 -0.0626  1.0209
 3919SOL     OW14710   2.595   0.287   3.662 -0.2243  0.0476  0.2505
 3919SOL    HW114711   2.605   0.218   3.597  0.4046 -0.9151  1.3294
 3919SOL    HW214712   2.626   0.248   3.744 -1.6951  0.9623  1.3035
 3920SOL     OW14713   7.411   4.736   0.265  0.3771  0.2130  0.1468
 3920SOL    HW114714   7.337   4.762   0.319  0.0703 -0.5953  0.1406
 3920SOL    HW214715   7.422   4.807   0.202 -1.0646 -0.1036 -0.5254
 3921SOL     OW14716   5.207   6.374   7.180  0.6896 -0.3264 -0.5850
 3921SOL    HW114717   5.213   6.281   7.202 -0.4178  0.0313  1.4843
 3921SOL    HW214718   5.275   6.415   7.233  0.5203  0.1480 -0.7355
 3922SOL     OW14719   3.321   1.691   3.645  0.0615  0.1064 -0.6074
 3922SOL    HW114720   3.269   1.665   3.568  0.9796 -1.5039 -0.7108
 3922SOL    HW214721   3.301   1.625   3.711 -0.8639  1.5874  0.6501
 3923SOL     OW14722   1.392   4.986   5.185 -0.2891  0.3944 -0.1478
 3923SOL    HW114723   1.416   4.895   5.169 -3.0177 -0.4930  0.2058
 3923SOL    HW214724   1.430   5.007   5.271  1.0656 -0.0943 -0.6120
 3924SOL     OW14725   5.659   6.940   6.172 -0.3184  0.4393 -0.6663
 3924SOL    HW114726   5.730   6.925   6.235 -1.4816 -0.1147  0.5873
 3924SOL    HW214727   5.596   6.993   6.220 -1.3373 -0.1769 -1.2928
 3925SOL     OW14728   6.656   1.000   6.382  0.2962 -0.2405  0.0513
 3925SOL    HW114729   6.575   1.002   6.330  0.0905 -0.5808  0.3557
 3925SOL    HW214730   6.725   1.016   6.318  0.0203 -0.3538 -0.2793
 3926SOL     OW14731   2.581   2.047   3.203  0.5025 -0.0993  0.4748
 3926SOL    HW114732   2.644   1.990   3.159  1.6811 -0.0354  2.0064
 3926SOL    HW214733   2.538   1.991   3.267  0.5809  0.3805  0.9543
 3927SOL     OW14734   4.173   6.510   0.550  0.0059 -0.3283 -0.0699
 3927SOL    HW114735   4.186   6.453   0.474 -1.1024 -0.8425  0.1169
 3927SOL    HW214736   4.106   6.572   0.523  0.0736 -0.1028  0.2727
 3928SOL     OW14737   1.709   2.808   3.409  0.5211  0.0132  0.1476
 3928SOL    HW114738   1.774   2.754   3.363  0.1872 -1.1695  1.0307
 3928SOL    HW214739   1.742   2.898   3.400  0.4852 -0.1400 -2.3705
 3929SOL     OW14740   5.098   7.939   5.401  0.6962  0.1519  0.1375
 3929SOL    HW114741   5.132   7.923   5.489 -0.2721  1.8815  0.8710
 3929SOL    HW214742   5.157   8.004   5.363 -0.9908  2.2801  0.9805
 3930SOL     OW14743   6.604   0.300   2.800  0.2057  0.3347  0.9033
 3930SOL    HW114744   6.508   0.290   2.802  0.3648 -1.8479  0.2076
 3930SOL    HW214745   6.633   0.271   2.886  0.3523 -0.9229  0.4476
 3931SOL     OW14746   4.403   0.097   1.309  0.1304 -0.0824 -0.1038
 3931SOL    HW114747   4.368   0.075   1.395  2.3508 -0.0852  0.8698
 3931SOL    HW214748   4.339   0.061   1.247 -1.6941  0.2299  1.5112
 3932SOL     OW14749   7.876   4.105   1.209  0.0427 -0.3677 -0.4429
 3932SOL    HW114750   7.883   4.039   1.278  0.2034  0.6307  0.5002
 3932SOL    HW214751   7.807   4.163   1.237 -0.1858 -0.1837 -1.3404
 3933SOL     OW14752   4.489   0.021   4.187  0.0296  0.5083 -0.3171
 3933SOL    HW114753   4.496  -0.053   4.247  0.1660  0.6756 -0.1272
 3933SOL    HW214754   4.533  -0.009   4.107 -0.2767  0.2356 -0.3815
 3934SOL     OW14755   1.154   6.388   3.268 -0.2923  0.0954  0.3521
 3934SOL    HW114756   1.123   6.473   3.298 -0.2061  0.5224 -0.7506
 3934SOL    HW214757   1.141   6.330   3.343 -0.5624  1.0252  1.0322
 3935SOL     OW14758   4.442   6.282   2.296  0.1989 -0.1378 -0.0339
 3935SOL    HW114759   4.371   6.305   2.356 -0.5435 -0.2545 -0.8465
 3935SOL    HW214760   4.479   6.202   2.333 -1.4527 -1.2605 -0.6888
 3936SOL     OW14761   1.790   2.108   5.317 -0.8200 -0.3688 -0.6395
 3936SOL    HW114762   1.879   2.124   5.286 -0.3712  1.9845  1.5486
 3936SOL    HW214763   1.746   2.068   5.242  1.3970  0.7107 -2.6573
 3937SOL     OW14764   7.729   1.640   2.534 -0.6955 -0.0054  0.0695
 3937SOL    HW114765   7.708   1.705   2.467 -1.3040  0.7752  0.9876
 3937SOL    HW214766   7.807   1.596   2.501  0.6148  2.1781  0.0622
 3938SOL     OW14767   2.371   6.741   3.062 -0.3152  0.8778 -0.1325
 3938SOL    HW114768   2.298   6.697   3.018  0.0633 -0.1640  0.2416
 3938SOL    HW214769   2.439   6.749   2.994  0.7287 -1.8091  0.4477
 3939SOL     OW14770   1.470   2.891   0.478 -0.2511 -0.1613 -0.9921
 3939SOL    HW114771   1.523   2.815   0.502  0.2654  0.2183 -0.9278
 3939SOL    HW214772   1.515   2.966   0.517 -1.4099  0.0613 -0.0219
 3940SOL     OW14773   6.424   3.022   0.346 -0.1696  0.5382  0.4424
 3940SOL    HW114774   6.425   3.116   0.366 -2.6218  0.6235  0.5460
 3940SOL    HW214775   6.371   3.016   0.266  1.1750 -0.6570 -0.3903
 3941SOL     OW14776   1.632   3.129   0.121 -0.3875  0.0606 -0.2249
 3941SOL    HW114777   1.549   3.115   0.166 -0.2154  0.1970  0.1362
 3941SOL    HW214778   1.623   3.080   0.039 -0.1925 -1.2831  0.5333
 3942SOL     OW14779   3.733   3.804   5.682  0.1588 -0.2272  0.3369
 3942SOL    HW114780   3.642   3.829   5.697  0.3261 -0.1874  1.3538
 3942SOL    HW214781   3.777   3.886   5.660  0.3905  0.1585  2.1020
 3943SOL     OW14782   0.517   3.529   2.960  0.3209  0.8850  0.2032
 3943SOL    HW114783   0.563   3.595   3.011 -0.2187  1.9485 -0.6351
 3943SOL    HW214784   0.451   3.578   2.911  1.0862 -0.0058 -1.8229
 3944SOL     OW14785   6.088   3.330   1.189 -0.7343  0.0712  0.2932
 3944SOL    HW114786   6.106   3.423   1.178  0.1630 -0.1314  0.0062
 3944SOL    HW214787   6.168   3.286   1.161 -1.9674 -0.9052 -1.9717
 3945SOL     OW14788   6.212   3.422   5.920 -0.1665 -0.0928 -0.4007
 3945SOL    HW114789   6.254   3.454   5.999  2.1556 -1.5528 -0.9372
 3945SOL    HW214790   6.282   3.421   5.854 -2.1237  1.6587 -2.7174
 3946SOL     OW14791   1.060   4.780   0.021 -0.6340  0.1382 -0.2379
 3946SOL    HW114792   1.055   4.687  -0.001 -2.4753  0.4308 -1.3012
 3946SOL    HW214793   1.149   4.805  -0.003 -0.2623 -1.2295 -0.3964
 3947SOL     OW14794   2.879   3.823   7.181 -0.4838  0.1507 -0.1894
 3947SOL    HW114795   2.784   3.812   7.180 -0.6720  1.4625  0.8418
 3947SOL    HW214796   2.913   3.743   7.140 -2.0320 -0.1834 -0.8874
 3948SOL     OW14797   1.990   3.438   1.310 -0.0561  0.2511  1.0414
 3948SOL    HW114798   1.912   3.489   1.327  0.5510  1.3432  0.6389
 3948SOL    HW214799   2.053   3.467   1.376 -0.2392 -1.2293  1.9064
 3949SOL     OW14800   0.027   0.367   7.159 -0.6138  0.4606 -0.2941
 3949SOL    HW114801   0.016   0.328   7.072  0.0906 -0.0795 -0.1525
 3949SOL    HW214802  -0.052   0.341   7.207  0.0569 -1.2446 -0.0506
 3950SOL     OW14803   4.492   7.654   7.994 -0.0596  0.2432  0.2668
 3950SOL    HW114804   4.509   7.715   8.066  0.2152  0.7596 -0.2192
 3950SOL    HW214805   4.512   7.705   7.915  0.8511 -0.6886 -0.1312
 3951SOL     OW14806   4.168   1.773   7.707 -0.2874  0.7600 -0.3924
 3951SOL    HW114807   4.234   1.744   7.644 -0.5106  0.3468 -0.4399
 3951SOL    HW214808   4.084   1.758   7.663 -0.4435  0.4784 -0.0026
 3952SOL     OW14809   2.798   3.005   0.364 -0.3232  0.3173  0.1352
 3952SOL    HW114810   2.746   3.038   0.437 -0.6460 -1.6434  0.8514
 3952SOL    HW214811   2.738   2.950   0.314  0.5457 -0.4310 -0.1174
 3953SOL     OW14812   4.453   5.770   1.684 -0.3981  0.2516  0.3433
 3953SOL    HW114813   4.452   5.777   1.588  2.5375 -0.3134  0.1840
 3953SOL    HW214814   4.380   5.711   1.703  1.0748 -2.5960 -1.9509
 3954SOL     OW14815   2.591   7.829   2.808 -0.3170  0.2430 -0.0975
 3954SOL    HW114816   2.626   7.830   2.719  1.3174 -1.1436  0.4627
 3954SOL    HW214817   2.570   7.737   2.823 -0.4536  0.4435  0.9846
 3955SOL     OW14818   3.871   3.545   7.870  0.0179  0.8319  0.4096
 3955SOL    HW114819   3.884   3.473   7.808 -1.3541  0.1878  0.8417
 3955SOL    HW214820   3.928   3.615   7.837 -0.3206  0.3513 -1.2994
 3956SOL     OW14821   6.303   0.215   3.320 -0.0746 -0.1854  0.4754
 3956SOL    HW114822   6.224   0.173   3.287  0.2592 -0.2750 -0.2184
 3956SOL    HW214823   6.273   0.297   3.359 -0.9837 -1.7452  3.3458
 3957SOL     OW14824   5.610   1.111   4.507 -0.0610 -0.1768  1.2680
 3957SOL    HW114825   5.613   1.036   4.565 -0.4888 -1.3735 -0.1996
 3957SOL    HW214826   5.538   1.093   4.447 -1.1117  2.0786  1.7275
 3958SOL     OW14827   2.136   6.093   0.433  0.2558  0.2956 -0.2981
 3958SOL    HW114828   2.054   6.050   0.406  0.1252  1.1619 -1.3537
 3958SOL    HW214829   2.110   6.151   0.504 -0.0098  0.3628 -0.4448
 3959SOL     OW14830   7.350   4.131   4.117 -0.1489  0.2077 -0.0525
 3959SOL    HW114831   7.368   4.061   4.180  0.2396 -0.3301 -0.7418
 3959SOL    HW214832   7.296   4.089   4.050  0.0804  0.5739 -0.4663
 3960SOL     OW14833   5.053   6.103   5.933 -0.2174 -0.3444 -0.1701
 3960SOL    HW114834   5.024   6.051   6.008 -1.4627 -2.0257 -1.7230
 3960SOL    HW214835   5.135   6.062   5.905 -1.2436 -1.6096 -1.4474
 3961SOL     OW14836   2.619   7.482   0.236  0.9006 -0.1257  0.4507
 3961SOL    HW114837   2.708   7.451   0.255  1.1588  0.7180  0.6790
 3961SOL    HW214838   2.585   7.511   0.320  0.8936  0.7333  0.1667
 3962SOL     OW14839   1.243   7.627   4.640  0.4437 -0.5101 -0.5754
 3962SOL    HW114840   1.167   7.577   4.611  1.6478 -1.4833 -2.2348
 3962SOL    HW214841   1.247   7.613   4.735 -0.0695 -2.4179 -0.8061
 3963SOL     OW14842   0.019   0.100   3.882 -0.2933 -0.2059  0.0434
 3963SOL    HW114843  -0.059   0.051   3.858 -0.7897  1.0934 -1.1601
 3963SOL    HW214844   0.055   0.053   3.957 -1.8542 -1.2169  0.2063
 3964SOL     OW14845   7.034   3.819   3.640 -0.3163 -0.1715 -0.1039
 3964SOL    HW114846   6.988   3.884   3.587 -1.6298 -1.3550 -0.4896
 3964SOL    HW214847   6.976   3.803   3.715  0.7001  0.1891  0.7982
 3965SOL     OW14848   8.091   1.002   2.867  0.3682 -0.2930  0.1828
 3965SOL    HW114849   8.028   1.023   2.798 -0.0663  0.9888  0.9365
 3965SOL    HW214850   8.177   1.021   2.828  0.2464 -1.2241 -0.5614
 3966SOL     OW14851   0.263   4.351   6.666 -0.2632  0.1508  0.2754
 3966SOL    HW114852   0.262   4.304   6.749 -0.1191  1.3268  0.9617
 3966SOL    HW214853   0.305   4.290   6.604 -1.0386 -1.0142  0.8761
 3967SOL     OW14854   3.128   1.084   5.519  0.4711  0.4257 -0.5849
 3967SOL    HW114855   3.157   0.993   5.507 -0.6272  0.1265 -1.0953
 3967SOL    HW214856   3.207   1.131   5.546  0.9637 -0.7730  0.1534
 3968SOL     OW14857   7.236   0.044   0.128 -1.0049 -0.1351  0.1093
 3968SOL    HW114858   7.234  -0.041   0.172 -0.1551  0.8121  2.0824
 3968SOL    HW214859   7.229   0.108   0.199  0.9701  1.4845 -1.0523
 3969SOL     OW14860   8.087   0.117   6.663 -0.5703  0.2265 -0.0421
 3969SOL    HW114861   7.995   0.098   6.644 -0.4223 -0.3811 -0.1686
 3969SOL    HW214862   8.101   0.205   6.627 -0.1824 -1.0321 -3.2020
 3970SOL     OW14863   3.564   3.954   0.771  0.3252  0.0835  0.2577
 3970SOL    HW114864   3.638   3.900   0.744  2.1162  2.2855  0.4663
 3970SOL    HW214865   3.566   3.952   0.867 -0.0947 -0.0972  0.2653
 3971SOL     OW14866   6.477   0.763   2.627 -0.5834  0.1542  0.1660
 3971SOL    HW114867   6.469   0.692   2.691 -1.1991 -0.5960 -0.7169
 3971SOL    HW214868   6.454   0.723   2.544 -0.8911  1.3853 -0.3664
 3972SOL     OW14869   0.249   6.325   5.202  0.6419  0.0063  0.5687
 3972SOL    HW114870   0.239   6.418   5.223  1.5611  0.0739  0.7515
 3972SOL    HW214871   0.223   6.280   5.282  0.9983  0.1409  0.7621
 3973SOL     OW14872   6.405   7.474   5.830 -0.4701 -0.0893 -0.1500
 3973SOL    HW114873   6.428   7.402   5.889 -0.5833 -0.8348 -1.0015
 3973SOL    HW214874   6.481   7.485   5.774  0.3301  1.7649  1.2012
 3974SOL     OW14875   4.959   1.849   2.769 -0.6239 -0.1681  0.1420
 3974SOL    HW114876   4.926   1.921   2.824  1.7887 -0.2792  1.8822
 3974SOL    HW214877   4.932   1.770   2.816 -0.3089 -0.3186  0.0686
 3975SOL     OW14878   4.375   1.599   0.427  0.6303 -0.2792 -0.0087
 3975SOL    HW114879   4.402   1.691   0.428  1.8161 -0.5860  1.2938
 3975SOL    HW214880   4.355   1.580   0.336  0.5064  1.2341 -0.3173
 3976SOL     OW14881   4.590   6.090   7.229 -0.3784  0.0512  0.5530
 3976SOL    HW114882   4.650   6.031   7.183  0.2063  0.1879  1.1224
 3976SOL    HW214883   4.645   6.165   7.253 -0.4704 -0.3770  2.1777
 3977SOL     OW14884   0.625   7.543   2.638 -0.4476  0.1140 -0.1305
 3977SOL    HW114885   0.631   7.638   2.642 -0.5897  0.1330 -0.3395
 3977SOL    HW214886   0.554   7.526   2.575  0.2691 -0.1316 -0.8903
 3978SOL     OW14887   7.680   7.696   3.955  0.4932  0.3697  0.4774
 3978SOL    HW114888   7.742   7.626   3.938  0.6220  0.9882 -1.9063
 3978SOL    HW214889   7.596   7.661   3.926  0.0121  0.2071  1.9739
 3979SOL     OW14890   5.018   4.420   6.374 -0.3994  0.0457  0.0285
 3979SOL    HW114891   4.939   4.380   6.338  0.7861 -1.4724 -1.0085
 3979SOL    HW214892   5.076   4.431   6.299 -0.5016  3.5444  0.2979
 3980SOL     OW14893   0.888   4.761   4.207 -0.0725 -0.5016  0.7464
 3980SOL    HW114894   0.845   4.823   4.265  2.2403  1.2259  0.7801
 3980SOL    HW214895   0.958   4.723   4.260  0.2302 -1.1189 -0.0638
 3981SOL     OW14896   1.672   6.431   6.521 -0.3338  0.0227  0.2484
 3981SOL    HW114897   1.640   6.463   6.605 -1.2654 -0.0261 -0.0753
 3981SOL    HW214898   1.762   6.403   6.538  0.9697  3.7088  0.3575
 3982SOL     OW14899   0.347   6.667   5.976 -0.3887  0.1162 -0.0759
 3982SOL    HW114900   0.403   6.614   5.920 -1.1740  0.3680 -1.1220
 3982SOL    HW214901   0.314   6.606   6.042 -0.0387 -0.3445 -0.3197
 3983SOL     OW14902   7.822   4.814   4.972 -0.0100 -0.0613  0.2124
 3983SOL    HW114903   7.820   4.721   4.949 -1.2500 -0.6215  2.3624
 3983SOL    HW214904   7.747   4.826   5.030  1.6931  1.6504  2.2102
 3984SOL     OW14905   6.522   5.452   4.843  0.1394 -0.4919  0.0098
 3984SOL    HW114906   6.569   5.530   4.813 -1.0836 -0.0141 -0.7911
 3984SOL    HW214907   6.495   5.408   4.762 -2.4097  0.3057  0.3420
 3985SOL     OW14908   5.695   1.423   7.001  0.7173  0.4925  0.4538
 3985SOL    HW114909   5.682   1.494   6.938  0.2325 -0.0812 -0.1052
 3985SOL    HW214910   5.652   1.454   7.081 -0.2980  0.4610 -0.0599
 3986SOL     OW14911   3.755   3.875   5.319 -0.0690  0.2090 -0.1470
 3986SOL    HW114912   3.735   3.939   5.388  0.9705  0.0599  0.3040
 3986SOL    HW214913   3.672   3.864   5.272 -0.9030 -0.0018  1.3266
 3987SOL     OW14914   2.616   1.283   4.898 -0.7569  0.5501 -0.3424
 3987SOL    HW114915   2.555   1.331   4.842  0.7463  0.4025 -2.2121
 3987SOL    HW214916   2.626   1.339   4.976 -1.0430  1.9885 -1.2951
 3988SOL     OW14917   5.693   7.112   6.910  0.0926  0.3654 -0.4532
 3988SOL    HW114918   5.692   7.031   6.961  2.7506 -0.0059 -0.8767
 3988SOL    HW214919   5.603   7.122   6.879 -0.3966 -2.1877 -0.0285
 3989SOL     OW14920   3.567   7.430   6.475 -0.0646 -0.1486 -0.7650
 3989SOL    HW114921   3.578   7.520   6.507 -1.9552 -0.3937  0.7774
 3989SOL    HW214922   3.620   7.377   6.535 -2.0561 -0.3985  0.9079
 3990SOL     OW14923   7.140   5.067   6.652 -0.0047 -0.1516 -0.4392
 3990SOL    HW114924   7.093   5.091   6.732  0.0851 -0.4980 -0.2778
 3990SOL    HW214925   7.217   5.124   6.651 -0.9457  1.1597 -1.2530
 3991SOL     OW14926   4.106   0.167   7.083  0.0475 -0.0155  0.3913
 3991SOL    HW114927   4.129   0.149   7.174 -0.0965  1.5730  0.7792
 3991SOL    HW214928   4.037   0.234   7.088  0.8835  0.9930 -0.8930
 3992SOL     OW14929   6.862   5.004   3.484  0.1137  0.5834 -0.8351
 3992SOL    HW114930   6.915   5.022   3.561  0.1330  1.7728 -1.1049
 3992SOL    HW214931   6.795   5.073   3.484 -1.1288 -0.5890 -0.7863
 3993SOL     OW14932   6.271   6.142   5.111 -0.2012 -0.1554 -0.3824
 3993SOL    HW114933   6.327   6.184   5.046 -1.7978 -0.0511 -1.7592
 3993SOL    HW214934   6.325   6.137   5.189  2.1097 -1.0531 -1.9249
 3994SOL     OW14935   3.892   6.754   1.649 -0.0721 -0.0959 -0.4212
 3994SOL    HW114936   3.831   6.747   1.722  0.9198  1.3491  0.6181
 3994SOL    HW214937   3.917   6.663   1.630 -1.0842 -0.5665  0.3798
 3995SOL     OW14938   2.031   2.549   6.170  0.1833 -0.3625 -0.3075
 3995SOL    HW114939   2.013   2.571   6.261  0.9691  1.0002 -0.4613
 3995SOL    HW214940   1.965   2.596   6.120  0.3591 -0.3127 -0.4958
 3996SOL     OW14941   3.220   3.427   5.765 -0.1059  0.2192 -0.4017
 3996SOL    HW114942   3.256   3.436   5.677 -2.0155 -0.5752 -1.3022
 3996SOL    HW214943   3.140   3.479   5.764 -1.0913 -1.2454  0.2926
 3997SOL     OW14944   4.945   1.802   6.055  0.5182  0.3077 -0.4467
 3997SOL    HW114945   4.919   1.712   6.074 -1.5382  0.9196 -0.1685
 3997SOL    HW214946   4.953   1.806   5.960 -0.9468  0.1881 -0.5989
 3998SOL     OW14947   7.481   1.415   4.064  0.5241 -0.8837 -0.5929
 3998SOL    HW114948   7.453   1.425   4.154 -0.6241  0.4536 -1.0642
 3998SOL    HW214949   7.577   1.417   4.067  0.4800 -0.1332  0.5131
 3999SOL     OW14950   5.847   4.135   0.167  0.2964  0.0249 -0.3385
 3999SOL    HW114951   5.805   4.206   0.118  2.5958  1.2753 -0.6428
 3999SOL    HW214952   5.914   4.179   0.220  2.1118 -1.9259 -0.8743
 4000SOL     OW14953   2.157   4.578   0.822  0.2656  0.4285  0.0627
 4000SOL    HW114954   2.142   4.646   0.888 -1.9314  1.4371 -1.3559
 4000SOL    HW214955   2.249   4.590   0.797 -0.0187  2.8874 -0.0739
 4001SOL     OW14956   0.756   7.738   6.020 -0.1559  0.7175 -0.0369
 4001SOL    HW114957   0.791   7.673   6.082 -1.9851 -1.0030 -0.6948
 4001SOL    HW214958   0.831   7.761   5.965  0.9509  0.5103  1.3062
 4002SOL     OW14959   0.389   1.490   4.923 -0.0479  0.1880 -0.2078
 4002SOL    HW114960   0.466   1.543   4.942 -0.2957  0.6927 -0.5952
 4002SOL    HW214961   0.415   1.434   4.850  0.7511 -1.4172  1.2440
 4003SOL     OW14962   5.810   5.461   5.908 -0.1123 -0.8676 -0.6784
 4003SOL    HW114963   5.802   5.431   5.817 -3.1311  0.1512 -0.8606
 4003SOL    HW214964   5.754   5.400   5.957 -1.1169  0.5178 -0.0567
 4004SOL     OW14965   3.611   3.999   3.237  0.6223 -0.5245  0.1637
 4004SOL    HW114966   3.655   3.914   3.233  0.9748 -0.4216  1.4068
 4004SOL    HW214967   3.620   4.027   3.328  0.0853  0.6282 -0.1109
 4005SOL     OW14968   0.084   6.204   5.032  0.4242  0.5633  0.3621
 4005SOL    HW114969   0.153   6.247   5.082  1.3761 -0.7076  0.2181
 4005SOL    HW214970   0.054   6.134   5.090  0.1692  0.3018 -0.0831
 4006SOL     OW14971   3.166   0.482   2.825  0.2293 -0.5746  0.0734
 4006SOL    HW114972   3.158   0.490   2.730 -0.9421  1.1023  0.2679
 4006SOL    HW214973   3.076   0.476   2.856  0.5402  0.0798  1.1458
 4007SOL     OW14974   2.949   2.765   7.792  0.3602 -0.1783 -0.7151
 4007SOL    HW114975   2.977   2.676   7.774  1.0740 -0.6294  2.2105
 4007SOL    HW214976   3.021   2.820   7.760  0.6625 -0.7442 -1.0221
 4008SOL     OW14977   2.100   5.875   1.905 -0.1240  0.2020 -0.2302
 4008SOL    HW114978   2.011   5.907   1.887 -0.8901 -0.7230  1.5645
 4008SOL    HW214979   2.107   5.794   1.855  0.0922  0.7706 -1.1397
 4009SOL     OW14980   4.483   7.504   7.677  0.1680  0.1914  0.4680
 4009SOL    HW114981   4.512   7.415   7.661  0.0614  0.2129  0.1478
 4009SOL    HW214982   4.530   7.531   7.756  0.7483  0.1057  0.1569
 4010SOL     OW14983   4.961   1.293   7.069  0.4583  0.1767  0.2685
 4010SOL    HW114984   4.911   1.301   6.988 -0.1831  2.0647  0.7921
 4010SOL    HW214985   5.050   1.319   7.046  0.2438  0.8503  0.1787
 4011SOL     OW14986   5.273   6.858   4.476  0.1351  0.2100  0.0523
 4011SOL    HW114987   5.262   6.844   4.382  3.1863 -0.7556 -0.2914
 4011SOL    HW214988   5.368   6.852   4.490 -0.2787 -0.6663  3.3510
 4012SOL     OW14989   7.074   6.178   6.972  0.0935  0.3123 -0.2303
 4012SOL    HW114990   7.099   6.176   6.880  2.2149  2.0126  0.2305
 4012SOL    HW214991   7.029   6.262   6.984  0.8811  0.6575  0.4792
 4013SOL     OW14992   3.602   2.939   3.792  0.2367  0.0260  0.0369
 4013SOL    HW114993   3.643   2.860   3.755 -1.0048 -0.2720 -0.7514
 4013SOL    HW214994   3.545   2.906   3.861  1.1777  0.4331  1.0422
 4014SOL     OW14995   4.531   1.367   3.064  0.2307 -0.1976 -0.3205
 4014SOL    HW114996   4.457   1.376   3.003 -0.5561 -2.2242  0.2423
 4014SOL    HW214997   4.601   1.330   3.011  0.4733  0.6463 -0.5982
 4015SOL     OW14998   1.853   3.595   6.534  0.0719  0.3849  0.4206
 4015SOL    HW114999   1.823   3.507   6.559 -2.1151  1.1598  0.7222
 4015SOL    HW215000   1.832   3.650   6.610  1.5024  1.1841  0.2786
 4016SOL     OW15001   2.150   0.122   6.653  0.1387 -0.5577 -0.1318
 4016SOL    HW115002   2.239   0.102   6.680 -0.2198 -3.2460 -0.6347
 4016SOL    HW215003   2.115   0.038   6.623 -1.7405  0.8831 -2.3265
 4017SOL     OW15004   5.886   1.740   0.219 -0.4142 -0.0653  0.3994
 4017SOL    HW115005   5.936   1.801   0.164 -0.5776  0.3570  0.7129
 4017SOL    HW215006   5.945   1.666   0.232 -0.9288 -0.8923 -1.6260
 4018SOL     OW15007   1.028   5.252   4.989  0.0861 -0.2885  0.2004
 4018SOL    HW115008   1.010   5.340   4.958 -0.6348 -0.3375  0.4652
 4018SOL    HW215009   1.054   5.264   5.080  1.9272 -0.1717 -0.3024
 4019SOL     OW15010   6.014   2.901   6.197  0.4052 -0.4242 -0.2594
 4019SOL    HW115011   6.028   2.896   6.102  1.2613  3.2695 -0.4859
 4019SOL    HW215012   6.099   2.928   6.232 -0.7639  1.9899  0.9919
 4020SOL     OW15013   6.105   2.471   7.622  0.4325  0.7463  0.2031
 4020SOL    HW115014   6.095   2.382   7.588 -0.5759  0.7928  0.3448
 4020SOL    HW215015   6.106   2.459   7.717 -1.1632  0.9896  0.2825
 4021SOL     OW15016   2.164   3.937   6.689 -0.2372  0.0813  0.1406
 4021SOL    HW115017   2.140   3.846   6.705 -3.2152  0.6745 -0.1780
 4021SOL    HW215018   2.181   3.973   6.776 -1.6314 -0.2141  0.5691
 4022SOL     OW15019   2.592   6.576   6.547  0.2949 -0.0076 -0.0596
 4022SOL    HW115020   2.662   6.528   6.592 -0.1630  0.2939  1.0061
 4022SOL    HW215021   2.632   6.607   6.466  0.3177 -3.1017 -1.3574
 4023SOL     OW15022   2.687   0.788   7.984 -0.1139 -0.6269  0.3149
 4023SOL    HW115023   2.592   0.780   7.990 -0.1148 -0.1156  1.2289
 4023SOL    HW215024   2.720   0.754   8.068  0.5308 -1.0659 -0.1026
 4024SOL     OW15025   6.364   7.325   2.516  0.1415 -0.2326 -0.1134
 4024SOL    HW115026   6.398   7.379   2.588 -1.0112 -1.2916  1.3062
 4024SOL    HW215027   6.292   7.377   2.479 -0.8882 -0.6666  1.1717
 4025SOL     OW15028   2.786   0.624   0.793  0.1937  0.2985  0.2437
 4025SOL    HW115029   2.695   0.637   0.820  0.2563 -0.1804  0.7112
 4025SOL    HW215030   2.782   0.617   0.697 -0.5556 -1.8058  0.3764
 4026SOL     OW15031   1.906   5.977   0.352 -0.3795 -0.0283 -0.0920
 4026SOL    HW115032   1.846   6.052   0.345 -4.0567 -2.5145  1.9371
 4026SOL    HW215033   1.875   5.915   0.286  1.5121 -0.5308 -0.5690
 4027SOL     OW15034   7.601   3.978   3.814  0.4090 -0.3899 -0.3167
 4027SOL    HW115035   7.632   4.007   3.900 -1.3580  0.3852  0.1025
 4027SOL    HW215036   7.534   3.913   3.833 -1.6370  1.4188 -0.9776
 4028SOL     OW15037   1.762   4.815   7.658 -0.1651 -0.4954 -0.0144
 4028SOL    HW115038   1.771   4.784   7.568 -0.4370 -0.8807  0.0890
 4028SOL    HW215039   1.667   4.814   7.675 -0.0115 -3.0772  1.1865
 4029SOL     OW15040   4.195   4.353   6.686 -0.7014  0.0174 -0.2155
 4029SOL    HW115041   4.188   4.266   6.725 -0.0714 -0.5780 -1.3727
 4029SOL    HW215042   4.252   4.341   6.610  0.8608  1.7866  0.5986
 4030SOL     OW15043   3.289   4.196   6.256  0.4661 -0.3821  0.6674
 4030SOL    HW115044   3.214   4.178   6.313 -0.9151  0.1097 -0.8923
 4030SOL    HW215045   3.315   4.111   6.222  1.5920 -0.7363  2.3086
 4031SOL     OW15046   5.923   2.000   4.419  0.0823  0.2135  0.6685
 4031SOL    HW115047   5.998   1.950   4.451 -0.7980 -2.1329 -0.7198
 4031SOL    HW215048   5.936   2.006   4.325 -0.9037  0.7976  0.5552
 4032SOL     OW15049   0.621   1.584   5.030 -0.5176 -0.0893  0.2253
 4032SOL    HW115050   0.677   1.627   4.966 -1.5716  0.4947 -0.3234
 4032SOL    HW215051   0.620   1.643   5.105  0.7985 -0.8218  0.8494
 4033SOL     OW15052   6.452   7.303   0.433 -0.0310  0.4986  0.4541
 4033SOL    HW115053   6.458   7.234   0.500 -0.0715 -0.0270 -0.0788
 4033SOL    HW215054   6.532   7.293   0.382  0.8207  1.9688  1.4260
 4034SOL     OW15055   1.752   0.398   3.491  0.5146 -0.4190 -0.2658
 4034SOL    HW115056   1.727   0.339   3.562  0.2536  0.0350  0.0244
 4034SOL    HW215057   1.670   0.422   3.449  0.5769  0.1051 -0.0895
 4035SOL     OW15058   2.408   6.615   2.642 -0.7390 -0.0278 -0.3365
 4035SOL    HW115059   2.362   6.689   2.602 -0.6449 -0.4180 -1.1944
 4035SOL    HW215060   2.430   6.645   2.731 -3.2963 -0.1099  0.3879
 4036SOL     OW15061   5.744   3.346   0.492  0.3467  0.0714  0.1130
 4036SOL    HW115062   5.823   3.313   0.534 -0.5880 -3.1449 -0.3928
 4036SOL    HW215063   5.706   3.406   0.556  0.5549 -2.3269  2.6514
 4037SOL     OW15064   3.094   5.181   3.915  0.6906 -0.7840  0.2883
 4037SOL    HW115065   3.036   5.251   3.943  0.2907 -2.0337  2.8091
 4037SOL    HW215066   3.103   5.194   3.820  0.0732  2.1931  0.5405
 4038SOL     OW15067   6.813   2.785   2.676 -0.0406 -0.1932 -0.8138
 4038SOL    HW115068   6.818   2.690   2.685 -0.8034 -0.2503 -0.9683
 4038SOL    HW215069   6.833   2.819   2.763 -0.3774 -0.5118 -0.6135
 4039SOL     OW15070   2.824   2.034   5.932  0.1905  0.2192 -0.3395
 4039SOL    HW115071   2.775   2.059   6.010  0.5737  3.2916 -0.9795
 4039SOL    HW215072   2.759   2.031   5.862  0.1163 -0.9271 -0.2436
 4040SOL     OW15073   4.546   3.482   4.030  0.0295  0.0404 -0.6112
 4040SOL    HW115074   4.641   3.488   4.046 -0.1755  0.8045  0.4232
 4040SOL    HW215075   4.538   3.413   3.964  1.2706 -0.4193 -0.3274
 4041SOL     OW15076   0.733   6.823   4.124  0.2122 -0.3465 -0.4623
 4041SOL    HW115077   0.669   6.754   4.140 -1.6186  0.7495 -2.5169
 4041SOL    HW215078   0.751   6.819   4.030  1.3798  0.8689 -0.3296
 4042SOL     OW15079   5.117   1.779   7.673  0.4768  0.3818  0.0658
 4042SOL    HW115080   5.154   1.867   7.674 -0.3213  0.7229  0.5041
 4042SOL    HW215081   5.176   1.728   7.618  0.9791  1.1750 -0.1348
 4043SOL     OW15082   1.400   2.438   5.056  0.0417  0.0754  0.1694
 4043SOL    HW115083   1.466   2.379   5.093  0.2575  0.7646  0.9087
 4043SOL    HW215084   1.393   2.411   4.964  2.7779  1.1958 -0.4726
 4044SOL     OW15085   3.293   3.586   0.229 -0.1473 -0.9207  0.1905
 4044SOL    HW115086   3.216   3.530   0.235 -0.4415 -0.4340  1.6597
 4044SOL    HW215087   3.298   3.628   0.315  1.3655 -0.4139 -0.1081
 4045SOL     OW15088   2.335   3.451   7.833  0.0388 -0.3314  0.3258
 4045SOL    HW115089   2.361   3.394   7.905  1.8811  1.7333  1.4348
 4045SOL    HW215090   2.263   3.503   7.869  0.0143 -0.2753  0.1950
 4046SOL     OW15091   7.277   1.439   7.644  0.4170  0.0407 -0.5003
 4046SOL    HW115092   7.265   1.431   7.550 -0.6847  0.2204 -0.3934
 4046SOL    HW215093   7.333   1.365   7.668 -0.3325 -0.7381 -1.1104
 4047SOL     OW15094   2.810   2.968   5.812 -1.1505  0.5911  0.2872
 4047SOL    HW115095   2.839   3.057   5.826  3.4042 -0.8486  1.5924
 4047SOL    HW215096   2.812   2.956   5.717  0.2581  1.3296  0.2105
 4048SOL     OW15097   7.845   2.581   7.326 -0.1414 -0.0391  0.2386
 4048SOL    HW115098   7.795   2.500   7.328 -2.1751  0.9773 -2.5393
 4048SOL    HW215099   7.878   2.592   7.415 -0.9629 -3.1469  1.0446
 4049SOL     OW15100   5.571   5.540   0.409  0.0845 -1.0536  0.0902
 4049SOL    HW115101   5.585   5.633   0.427  0.9157 -0.7799 -1.7449
 4049SOL    HW215102   5.483   5.522   0.443 -0.4470  0.6250 -0.3068
 4050SOL     OW15103   2.101   1.488   0.718 -0.0262 -0.1403 -0.0869
 4050SOL    HW115104   2.107   1.443   0.633  1.4572 -0.7213  0.2860
 4050SOL    HW215105   2.015   1.464   0.752 -0.2922 -0.6063 -1.0511
 4051SOL     OW15106   1.165   3.224   6.306 -0.3833 -0.4152 -0.0600
 4051SOL    HW115107   1.217   3.203   6.229  2.1253 -0.9957  1.6617
 4051SOL    HW215108   1.154   3.319   6.302  0.1593 -0.3762 -0.8544
 4052SOL     OW15109   3.515   2.241   4.017  0.6047 -0.1611  0.8141
 4052SOL    HW115110   3.475   2.256   3.931  0.7149  1.1111  0.9743
 4052SOL    HW215111   3.492   2.150   4.038 -1.2271  0.1660  0.3937
 4053SOL     OW15112   7.529   6.102   1.630 -0.0177  0.0642  0.3310
 4053SOL    HW115113   7.531   6.062   1.543  1.8723  0.3329  0.2110
 4053SOL    HW215114   7.476   6.181   1.619 -0.4461 -0.3074 -0.3707
 4054SOL     OW15115   5.522   8.002   1.871  0.3517  0.2016 -0.9069
 4054SOL    HW115116   5.506   8.086   1.915 -0.1266  0.3578 -1.3608
 4054SOL    HW215117   5.560   8.027   1.786 -0.8789  0.0250 -1.5292
 4055SOL     OW15118   6.534   3.417   7.122 -0.2547 -0.3519  0.1829
 4055SOL    HW115119   6.522   3.504   7.162 -0.7753  0.6856 -2.0517
 4055SOL    HW215120   6.527   3.356   7.195 -0.8416  1.4286  1.7024
 4056SOL     OW15121   4.255   2.780   0.401 -0.0176  0.2517 -0.7022
 4056SOL    HW115122   4.237   2.687   0.409  1.2249 -0.1717 -2.3815
 4056SOL    HW215123   4.317   2.799   0.471 -1.1182  0.1091  0.3592
 4057SOL     OW15124   3.099   0.800   2.382 -0.1662  0.2963 -0.2101
 4057SOL    HW115125   3.097   0.759   2.296 -0.2152  0.2331 -0.1796
 4057SOL    HW215126   3.081   0.893   2.366 -0.5327  0.2229 -0.2330
 4058SOL     OW15127   6.495   2.929   4.833 -0.7931 -0.0184  0.0172
 4058SOL    HW115128   6.442   2.985   4.890 -1.8724 -0.3443 -0.6359
 4058SOL    HW215129   6.521   2.987   4.760 -3.5646 -0.7552 -1.6993
 4059SOL     OW15130   4.301   0.442   7.807 -0.4319 -0.0844 -0.0361
 4059SOL    HW115131   4.318   0.360   7.852 -1.8839 -0.3179  0.1454
 4059SOL    HW215132   4.326   0.510   7.870  0.9768 -0.3601 -0.2694
 4060SOL     OW15133   3.559   7.910   7.842  0.1213 -0.1678 -0.0826
 4060SOL    HW115134   3.616   7.877   7.911  1.1528  1.0080 -0.3315
 4060SOL    HW215135   3.476   7.863   7.854  1.5436 -3.0187 -0.5814
 4061SOL     OW15136   3.305   3.470   7.981 -0.0761  0.3975 -0.5234
 4061SOL    HW115137   3.334   3.379   7.982 -1.0725 -0.0688  3.6088
 4061SOL    HW215138   3.385   3.521   7.965  0.7911 -1.1091 -1.1691
 4062SOL     OW15139   4.320   4.555   1.698 -0.0954 -0.1121  0.0114
 4062SOL    HW115140   4.277   4.495   1.759  0.4296 -0.1293  0.3694
 4062SOL    HW215141   4.413   4.552   1.723  0.2364 -0.6245 -1.2086
 4063SOL     OW15142   4.284   6.112   0.423 -0.3679 -0.0050 -0.0219
 4063SOL    HW115143   4.224   6.187   0.422 -1.4966 -0.8675 -1.6288
 4063SOL    HW215144   4.361   6.142   0.375 -0.3559  0.4572  0.2796
 4064SOL     OW15145   1.255   6.479   1.118 -0.5420 -0.3600  0.0508
 4064SOL    HW115146   1.296   6.395   1.139 -0.5412 -0.6735 -1.1240
 4064SOL    HW215147   1.170   6.456   1.082 -0.5942  0.1497 -0.1624
 4065SOL     OW15148   5.001   6.534   6.287 -0.2609 -0.4015  0.0901
 4065SOL    HW115149   4.945   6.485   6.227 -0.9866  0.5655 -0.0528
 4065SOL    HW215150   4.992   6.625   6.259 -0.1846  0.0035  1.3217
 4066SOL     OW15151   4.237   0.399   2.641  0.0316 -0.1441  0.2873
 4066SOL    HW115152   4.268   0.308   2.642 -1.1094 -0.5615 -0.2122
 4066SOL    HW215153   4.316   0.451   2.624  0.6935 -1.0415  0.5335
 4067SOL     OW15154   3.346   6.121   6.694 -0.0671  0.0155  0.0293
 4067SOL    HW115155   3.332   6.112   6.789 -1.4700 -3.0437 -0.3259
 4067SOL    HW215156   3.430   6.078   6.679  0.4578  1.0617 -0.0572
 4068SOL     OW15157   4.962   1.757   4.356 -0.5577  0.1590 -0.2731
 4068SOL    HW115158   4.923   1.819   4.294 -0.6708  0.5740  0.2059
 4068SOL    HW215159   5.042   1.727   4.313 -0.8324  0.1572 -0.7837
 4069SOL     OW15160   7.426   1.805   4.256  0.0888  0.1304 -0.2156
 4069SOL    HW115161   7.352   1.766   4.302 -0.5865  1.7580  0.1584
 4069SOL    HW215162   7.497   1.740   4.264 -0.2341  0.0052  2.4582
 4070SOL     OW15163   4.092   7.859   0.922  0.0583  0.2667  0.1900
 4070SOL    HW115164   4.057   7.809   0.995  0.4235 -0.7237 -0.2962
 4070SOL    HW215165   4.028   7.848   0.852 -0.4261  1.4352  0.4214
 4071SOL     OW15166   6.980   6.904   2.018  0.2726 -0.5321  0.3378
 4071SOL    HW115167   7.063   6.893   1.971 -0.5629 -0.0147 -1.3364
 4071SOL    HW215168   6.969   6.999   2.026 -0.6328 -0.5680 -0.3694
 4072SOL     OW15169   8.014   0.047   5.749 -0.0197  0.1575 -0.1552
 4072SOL    HW115170   8.042   0.138   5.757 -0.6257  0.3014  0.4608
 4072SOL    HW215171   8.040   0.021   5.661  0.0483  0.9640 -0.3793
 4073SOL     OW15172   6.693   6.361   0.183 -0.1219 -0.1370  0.1856
 4073SOL    HW115173   6.727   6.369   0.094 -0.8794  2.0210  0.0276
 4073SOL    HW215174   6.602   6.333   0.172 -0.6925  1.5906  0.1295
 4074SOL     OW15175   2.579   0.361   2.087 -0.4248  0.4102 -0.4221
 4074SOL    HW115176   2.592   0.312   2.006 -1.1348 -1.5000  0.5735
 4074SOL    HW215177   2.487   0.347   2.110 -0.3792  1.3828  0.4453
 4075SOL     OW15178   0.451   2.455   6.734 -0.2515 -0.1954  0.3822
 4075SOL    HW115179   0.497   2.515   6.675  1.8077 -2.3891 -0.4046
 4075SOL    HW215180   0.482   2.478   6.821 -0.7230  0.8876  0.2797
 4076SOL     OW15181   1.468   3.925   6.626  0.1676  0.0016 -0.0153
 4076SOL    HW115182   1.446   4.003   6.575  0.9610 -0.0275 -0.4221
 4076SOL    HW215183   1.553   3.897   6.591 -0.1453 -1.0970  0.0652
 4077SOL     OW15184   1.735   4.492   4.257  0.4297  0.1996 -0.3305
 4077SOL    HW115185   1.780   4.548   4.321  0.7976  1.8573 -1.9521
 4077SOL    HW215186   1.754   4.533   4.173  0.0590 -1.9853 -1.5340
 4078SOL     OW15187   0.774   0.278   1.046  0.2780  0.0251  0.1388
 4078SOL    HW115188   0.807   0.223   0.975  1.8458  0.3604  0.5693
 4078SOL    HW215189   0.681   0.289   1.026  0.6006 -0.1519 -1.6911
 4079SOL     OW15190   6.629   3.660   6.694 -0.2267  0.0953  0.2486
 4079SOL    HW115191   6.719   3.693   6.698 -0.4261  0.5779  0.8146
 4079SOL    HW215192   6.587   3.711   6.625 -0.4573  0.8618  0.9388
 4080SOL     OW15193   2.074   1.033   6.722 -0.3006  0.4639 -0.6237
 4080SOL    HW115194   2.117   0.967   6.777 -0.3740  1.1538  0.2873
 4080SOL    HW215195   2.144   1.095   6.700 -0.6458  1.1667  0.2128
 4081SOL     OW15196   3.816   3.348   7.154 -0.2944 -0.1662  0.2645
 4081SOL    HW115197   3.886   3.367   7.217 -0.0148  0.7735 -0.3130
 4081SOL    HW215198   3.784   3.434   7.128 -1.0426 -0.5725 -0.1794
 4082SOL     OW15199   5.051   3.220   5.678 -0.1144 -0.1385 -0.4427
 4082SOL    HW115200   5.056   3.126   5.691 -0.3152  0.0235  0.8719
 4082SOL    HW215201   4.960   3.237   5.653  0.0136 -0.3258 -1.0537
 4083SOL     OW15202   2.441   7.001   6.857 -0.4002 -0.2425  0.0343
 4083SOL    HW115203   2.516   7.059   6.858  1.5190 -2.4653 -1.9429
 4083SOL    HW215204   2.429   6.978   6.765 -1.5460 -2.3275  0.6231
 4084SOL     OW15205   0.395   4.494   0.087  0.3737  0.5081 -0.1506
 4084SOL    HW115206   0.415   4.467   0.176 -0.8131 -0.4486 -0.1504
 4084SOL    HW215207   0.393   4.590   0.090 -0.3356  0.4630  1.0052
 4085SOL     OW15208   4.405   3.605   4.217 -0.1197  0.0664 -0.5480
 4085SOL    HW115209   4.448   3.595   4.133  0.7385 -2.5569  0.1237
 4085SOL    HW215210   4.416   3.521   4.261 -2.5355  0.5767  1.2790
 4086SOL     OW15211   2.823   5.045   3.435 -0.3316 -0.0424  0.2829
 4086SOL    HW115212   2.897   5.079   3.485  0.6649 -0.3926 -0.9094
 4086SOL    HW215213   2.747   5.092   3.470  0.5850  1.1031  0.8133
 4087SOL     OW15214   2.794   3.533   4.213  0.0200  0.5846  0.0083
 4087SOL    HW115215   2.850   3.608   4.232  1.7492 -0.4381 -0.7682
 4087SOL    HW215216   2.833   3.495   4.134 -2.3760  0.3629 -1.1461
 4088SOL     OW15217   4.715   7.004   2.596 -0.0071 -0.6372 -0.1816
 4088SOL    HW115218   4.787   7.067   2.599 -0.3766 -0.2422  1.2556
 4088SOL    HW215219   4.653   7.037   2.661 -0.2102 -2.4696  0.5970
 4089SOL     OW15220   5.821   0.338   0.949 -0.8067  0.5450  0.3034
 4089SOL    HW115221   5.739   0.320   0.995 -0.7092  0.9654  0.6444
 4089SOL    HW215222   5.794   0.357   0.859 -0.9324 -1.1788 -0.0714
 4090SOL     OW15223   3.499   5.496   2.861 -0.3997  0.2364 -0.0923
 4090SOL    HW115224   3.536   5.417   2.899  0.0463 -0.1424 -1.2648
 4090SOL    HW215225   3.568   5.562   2.870  0.0244 -0.0744 -0.9562
 4091SOL     OW15226   3.509   6.335   7.499  0.0714  0.0342 -0.3164
 4091SOL    HW115227   3.554   6.409   7.540  0.0979 -0.1442 -0.0174
 4091SOL    HW215228   3.551   6.326   7.414 -0.6139  0.9927 -0.7691
 4092SOL     OW15229   3.971   3.101   2.657  0.0707 -0.1140 -0.7138
 4092SOL    HW115230   3.899   3.165   2.650 -0.5788 -0.7875 -0.3706
 4092SOL    HW215231   4.020   3.111   2.576 -1.3085 -0.6957 -1.6524
 4093SOL     OW15232   1.286   5.703   2.978 -0.4801  0.0266  0.0676
 4093SOL    HW115233   1.313   5.612   2.988  1.6594  0.5363 -0.4658
 4093SOL    HW215234   1.309   5.745   3.061 -0.3987  0.3031 -0.0904
 4094SOL     OW15235   5.624   7.321   0.155 -0.3481 -0.7612 -0.0599
 4094SOL    HW115236   5.537   7.337   0.191  0.0552  0.8680  0.2833
 4094SOL    HW215237   5.680   7.385   0.199  0.4099  0.4914 -2.6797
 4095SOL     OW15238   1.965   2.029   3.587 -0.1988 -0.1221  0.2216
 4095SOL    HW115239   1.886   2.072   3.554 -1.0998 -2.1956 -0.4788
 4095SOL    HW215240   1.999   1.982   3.511  0.5051 -0.9677  1.0481
 4096SOL     OW15241   7.906   5.387   6.681 -0.1444 -0.1078  0.3436
 4096SOL    HW115242   7.936   5.324   6.746  2.0017 -0.9617 -1.3525
 4096SOL    HW215243   7.934   5.351   6.597  0.1409  2.5265 -0.8023
 4097SOL     OW15244   0.407   6.445   1.144 -0.1082 -0.4677 -0.0399
 4097SOL    HW115245   0.445   6.514   1.091  0.7713 -1.4788 -0.7666
 4097SOL    HW215246   0.331   6.415   1.095  0.2793 -0.9012 -0.3876
 4098SOL     OW15247   3.924   5.347   6.144 -0.8107  0.2871 -0.6200
 4098SOL    HW115248   3.955   5.272   6.093 -0.0929  1.2376 -1.6232
 4098SOL    HW215249   3.841   5.371   6.102 -0.8789  0.2649 -0.4993
 4099SOL     OW15250   7.458   1.248   7.717  0.1295 -0.3510  0.7080
 4099SOL    HW115251   7.528   1.249   7.652 -0.3146 -0.8945  0.2046
 4099SOL    HW215252   7.500   1.220   7.798  0.2547 -2.0281  0.0952
 4100SOL     OW15253   4.760   8.125   4.533 -0.5636 -0.0189 -0.4455
 4100SOL    HW115254   4.767   8.034   4.561 -0.6720 -0.3045 -1.3125
 4100SOL    HW215255   4.734   8.173   4.611  0.1174 -0.6359  0.1700
 4101SOL     OW15256   5.163   5.371   2.336 -0.0898 -0.4416 -0.7527
 4101SOL    HW115257   5.181   5.378   2.430 -1.4488 -0.7343 -0.4458
 4101SOL    HW215258   5.139   5.460   2.309  0.7212 -0.2650 -0.9430
 4102SOL     OW15259   5.762   8.057   2.162 -0.1384  0.4367 -0.0444
 4102SOL    HW115260   5.809   8.050   2.245 -1.1634 -0.2550  0.4975
 4102SOL    HW215261   5.740   7.967   2.139 -0.4979  0.6805 -0.6962
 4103SOL     OW15262   5.824   3.100   2.604 -0.1910  0.6257  0.2190
 4103SOL    HW115263   5.819   3.064   2.515 -0.7279 -1.3853  1.0146
 4103SOL    HW215264   5.911   3.077   2.635 -0.4786  0.1482  0.6816
 4104SOL     OW15265   1.211   0.888   1.723 -0.5921  0.2894 -0.0004
 4104SOL    HW115266   1.197   0.895   1.628  0.0608  0.9590 -0.0634
 4104SOL    HW215267   1.123   0.882   1.760 -0.8238 -1.6156 -0.7377
 4105SOL     OW15268   5.064   1.672   1.216 -0.4678  0.1588  0.0051
 4105SOL    HW115269   5.043   1.641   1.304 -0.6623 -0.0338 -0.1100
 4105SOL    HW215270   5.067   1.768   1.225 -2.4381  0.2756 -0.1913
 4106SOL     OW15271   7.201   4.145   0.251 -0.2834  0.0859 -0.7627
 4106SOL    HW115272   7.106   4.142   0.264 -0.3085 -1.4585 -1.1325
 4106SOL    HW215273   7.212   4.169   0.159 -0.3302  0.0375 -0.7813
 4107SOL     OW15274   0.262   3.834   2.239 -0.2640 -0.0587 -0.2734
 4107SOL    HW115275   0.307   3.822   2.323  0.9935 -0.4684 -0.9755
 4107SOL    HW215276   0.173   3.857   2.263  0.3583  1.0022  1.1855
 4108SOL     OW15277   3.350   7.245   6.632  0.0197  0.2533  0.1895
 4108SOL    HW115278   3.372   7.338   6.639  0.3793  0.2134 -0.3717
 4108SOL    HW215279   3.433   7.200   6.645 -0.2445 -0.0238  1.0269
 4109SOL     OW15280   2.417   5.884   0.289  0.1388 -0.0753  0.2313
 4109SOL    HW115281   2.426   5.836   0.206  0.5385  0.7972 -0.2454
 4109SOL    HW215282   2.505   5.884   0.327 -0.1585 -0.9593  0.9437
 4110SOL     OW15283   3.500   3.537   5.378 -0.3619  0.0971 -0.1729
 4110SOL    HW115284   3.590   3.555   5.405 -0.5730  1.7141 -0.4525
 4110SOL    HW215285   3.472   3.616   5.332 -2.7882  0.7594  2.1371
 4111SOL     OW15286   5.316   0.781   0.282  0.4748  0.8732 -0.6459
 4111SOL    HW115287   5.222   0.766   0.281  0.4385  0.4315  1.9163
 4111SOL    HW215288   5.354   0.698   0.311  1.3586  1.7996  1.0727
 4112SOL     OW15289   2.685   3.507   7.832  0.0905  0.0902 -0.0877
 4112SOL    HW115290   2.687   3.528   7.739  1.7102  0.1202 -0.0868
 4112SOL    HW215291   2.749   3.435   7.841  2.4499  2.2173  1.4389
 4113SOL     OW15292   6.507   6.286   2.577 -0.3362  0.2627 -0.1902
 4113SOL    HW115293   6.466   6.363   2.617 -0.9567 -0.0665 -0.1648
 4113SOL    HW215294   6.433   6.235   2.544  0.0424 -0.4925  0.1132
 4114SOL     OW15295   4.484   7.131   3.356  0.1566  0.2283 -0.1719
 4114SOL    HW115296   4.547   7.072   3.314 -0.0164 -1.6790  2.0776
 4114SOL    HW215297   4.472   7.096   3.444  0.0195  3.6446  1.3599
 4115SOL     OW15298   4.365   5.409   1.377 -0.0157 -0.2567  0.0837
 4115SOL    HW115299   4.350   5.329   1.326  0.1763 -0.6797  0.6810
 4115SOL    HW215300   4.367   5.479   1.311  1.2200 -0.9060 -0.6283
 4116SOL     OW15301   6.344   0.562   6.929  0.2428  0.3544  0.0031
 4116SOL    HW115302   6.282   0.628   6.897  0.1602  0.8345  1.1324
 4116SOL    HW215303   6.408   0.612   6.979 -0.6642 -0.5642  2.1732
 4117SOL     OW15304   0.069   2.929   7.478 -0.3500  1.0670 -0.6361
 4117SOL    HW115305   0.111   2.919   7.563  0.1682 -1.8648 -1.1476
 4117SOL    HW215306   0.132   2.977   7.425  0.7594  0.0204 -0.2943
 4118SOL     OW15307   1.239   7.275   1.040  0.0396 -0.1804  0.3115
 4118SOL    HW115308   1.228   7.198   0.983 -0.9259 -0.3522  0.7013
 4118SOL    HW215309   1.306   7.327   0.997  2.2182 -2.1828  1.0503
 4119SOL     OW15310   5.296   1.271   2.783  0.2162  0.3087  0.5327
 4119SOL    HW115311   5.298   1.212   2.859 -0.4252 -0.4731 -0.0396
 4119SOL    HW215312   5.388   1.286   2.762  0.3891 -0.3752  0.7856
 4120SOL     OW15313   7.420   7.567   0.694  0.1462  0.1390 -0.3175
 4120SOL    HW115314   7.341   7.525   0.660  0.3729  0.9659 -1.9899
 4120SOL    HW215315   7.398   7.591   0.783 -0.9598 -0.9667 -0.2579
 4121SOL     OW15316   2.905   3.747   3.561  0.4212 -0.3954 -0.2027
 4121SOL    HW115317   2.809   3.751   3.571  0.2983 -0.5861 -1.1837
 4121SOL    HW215318   2.924   3.653   3.551  0.5779 -0.2753 -1.1080
 4122SOL     OW15319   5.376   0.645   7.228  0.2238 -0.0788 -0.3518
 4122SOL    HW115320   5.351   0.735   7.203 -1.6708  0.0054  1.5505
 4122SOL    HW215321   5.446   0.656   7.292  0.5556 -0.0042 -0.7249
 4123SOL     OW15322   0.733   0.736   0.759  0.4924 -0.7203 -0.8378
 4123SOL    HW115323   0.738   0.642   0.774  0.6859 -0.4647  0.8493
 4123SOL    HW215324   0.802   0.754   0.696  1.3609 -1.5159 -0.1398
 4124SOL     OW15325   4.058   1.462   2.325 -0.2314  0.0286  0.0377
 4124SOL    HW115326   4.081   1.516   2.248  1.1770  0.6672  0.8591
 4124SOL    HW215327   3.984   1.508   2.365 -0.0221  0.5076 -0.1191
 4125SOL     OW15328   6.311   1.371   3.094 -0.1577 -0.3321 -0.8963
 4125SOL    HW115329   6.377   1.431   3.059 -0.5916  0.9108  0.2957
 4125SOL    HW215330   6.231   1.424   3.100 -0.3396 -0.7312  1.0049
 4126SOL     OW15331   4.517   5.978   3.200  0.1671  0.0684  0.4083
 4126SOL    HW115332   4.543   5.887   3.210  0.6040  0.2567  1.0412
 4126SOL    HW215333   4.466   5.998   3.279  0.1222  0.3851  0.3018
 4127SOL     OW15334   0.672   7.231   3.888  0.7116  0.2474  0.0643
 4127SOL    HW115335   0.713   7.200   3.807  0.9470  1.1397 -0.1704
 4127SOL    HW215336   0.585   7.192   3.888  1.1026 -0.6517 -0.0640
 4128SOL     OW15337   6.260   0.591   1.355  0.0932 -0.1543 -0.1962
 4128SOL    HW115338   6.215   0.511   1.383  0.0778 -0.7322 -1.7676
 4128SOL    HW215339   6.325   0.561   1.291  0.1741  1.0710 -0.7161
 4129SOL     OW15340   6.829   2.821   3.789 -0.6190 -0.2356 -0.4797
 4129SOL    HW115341   6.773   2.745   3.777 -1.7790  0.5843 -0.4666
 4129SOL    HW215342   6.792   2.887   3.730  1.0961 -0.0427 -1.4192
 4130SOL     OW15343   0.923   3.624   3.215  0.2430  0.1286  0.5170
 4130SOL    HW115344   0.836   3.657   3.197  0.7201  0.2199 -1.9563
 4130SOL    HW215345   0.982   3.696   3.191  1.1220 -1.1835 -1.6178
 4131SOL     OW15346   2.558   4.666   3.837  0.0957  0.1025  0.1053
 4131SOL    HW115347   2.639   4.716   3.825 -0.1496  0.5368  0.2030
 4131SOL    HW215348   2.555   4.606   3.763  0.9285 -0.5136  0.5603
 4132SOL     OW15349   2.854   3.443   4.527 -0.1834 -0.8436 -0.5727
 4132SOL    HW115350   2.842   3.369   4.467  2.3304 -0.7407 -1.2821
 4132SOL    HW215351   2.887   3.514   4.472  0.2774 -0.1109  0.6140
 4133SOL     OW15352   5.413   4.541   7.320 -0.4099 -0.0070  0.0753
 4133SOL    HW115353   5.402   4.545   7.225 -0.6848  0.5187  0.1257
 4133SOL    HW215354   5.333   4.500   7.352 -0.3501 -0.1140  0.0898
 4134SOL     OW15355   5.524   7.730   0.900  0.3458  0.2459  0.3589
 4134SOL    HW115356   5.612   7.738   0.864 -0.6227 -1.6162 -2.7575
 4134SOL    HW215357   5.468   7.782   0.842 -1.0561 -1.3871  0.1630
 4135SOL     OW15358   4.730   0.515   7.667 -0.4126  0.4332  0.1115
 4135SOL    HW115359   4.745   0.561   7.749  4.4488 -2.1711  1.0470
 4135SOL    HW215360   4.640   0.482   7.673 -1.5225  3.4570  2.5463
 4136SOL     OW15361   6.109   6.466   1.998  0.2823 -0.2395  0.0127
 4136SOL    HW115362   6.188   6.508   2.031 -0.1276  0.1686  0.5050
 4136SOL    HW215363   6.046   6.537   1.988 -0.4397 -0.7216  0.9114
 4137SOL     OW15364   6.753   3.517   5.048  0.5360 -0.4202 -0.4330
 4137SOL    HW115365   6.768   3.587   4.985 -0.6772 -0.3514 -0.6537
 4137SOL    HW215366   6.744   3.561   5.132 -0.4361 -0.2897 -0.6029
 4138SOL     OW15367   1.809   2.848   2.016  0.3837  0.1859 -1.1371
 4138SOL    HW115368   1.823   2.914   2.084  0.2215 -0.0862 -0.8339
 4138SOL    HW215369   1.822   2.764   2.061  0.7344  0.0122 -1.5510
 4139SOL     OW15370   3.160   6.209   2.334  0.7995  0.2476  0.2236
 4139SOL    HW115371   3.253   6.226   2.316  0.5651  0.6396 -0.6506
 4139SOL    HW215372   3.121   6.297   2.339  0.2208  0.0636 -0.8280
 4140SOL     OW15373   0.462   1.580   2.005  0.3642  0.0953  0.1149
 4140SOL    HW115374   0.524   1.538   2.065  0.5285  0.2681  0.0683
 4140SOL    HW215375   0.501   1.567   1.918  0.9951  1.3253  0.1943
 4141SOL     OW15376   0.703   2.413   6.483 -0.2793  0.2565 -0.5483
 4141SOL    HW115377   0.680   2.496   6.524  0.6845 -0.7328  2.2693
 4141SOL    HW215378   0.620   2.366   6.475 -0.5933  0.7972 -0.4775
 4142SOL     OW15379   6.923   5.461   6.300 -0.0989  0.0719  0.5152
 4142SOL    HW115380   6.996   5.522   6.301 -1.0481  1.5337 -3.2829
 4142SOL    HW215381   6.854   5.505   6.349  0.1028  0.7972  0.1490
 4143SOL     OW15382   2.925   6.776   6.222 -0.2702 -0.3666 -0.3332
 4143SOL    HW115383   3.020   6.785   6.227 -0.4775  1.3347  2.0738
 4143SOL    HW215384   2.895   6.856   6.178 -0.6229 -0.9971 -1.2902
 4144SOL     OW15385   3.584   6.795   2.004  0.3495 -0.2341  0.0015
 4144SOL    HW115386   3.543   6.807   2.090  0.1222  1.0106 -0.2530
 4144SOL    HW215387   3.672   6.832   2.015  0.6352 -0.8859 -0.0636
 4145SOL     OW15388   5.952   6.272   0.534  0.9506  0.1250 -0.0892
 4145SOL    HW115389   5.963   6.288   0.628  2.5103 -1.9357  0.1437
 4145SOL    HW215390   6.040   6.274   0.499  1.3893 -5.5990 -0.2583
 4146SOL     OW15391   7.095   4.430   4.137 -0.4313 -0.3844 -0.4302
 4146SOL    HW115392   7.089   4.340   4.169 -1.6083 -0.6698 -1.3519
 4146SOL    HW215393   7.072   4.423   4.044  1.1775  0.6443 -0.9316
 4147SOL     OW15394   5.863   6.514   3.859 -0.4503 -0.4380  0.0044
 4147SOL    HW115395   5.918   6.440   3.832  0.8931  0.4324  0.2925
 4147SOL    HW215396   5.856   6.504   3.954 -0.6218 -0.4293 -0.0072
 4148SOL     OW15397   2.550   3.300   6.046 -0.1874 -0.5299  0.2793
 4148SOL    HW115398   2.613   3.348   5.992 -0.5281  0.8793  1.0896
 4148SOL    HW215399   2.534   3.219   5.998  1.7981 -0.6648 -0.2392
 4149SOL     OW15400   6.540   3.647   1.530  0.2639  0.3709  0.0474
 4149SOL    HW115401   6.504   3.689   1.452 -0.0235 -1.8871 -1.1501
 4149SOL    HW215402   6.616   3.598   1.497  0.8846  0.3567  1.4393
 4150SOL     OW15403   1.134   0.423   4.024  0.0198  0.1314 -0.4974
 4150SOL    HW115404   1.157   0.401   3.934  0.9961  0.4821 -0.3431
 4150SOL    HW215405   1.198   0.377   4.078 -1.1303 -0.8375  0.0865
 4151SOL     OW15406   7.594   5.719   4.008 -0.8358 -0.0933 -0.2153
 4151SOL    HW115407   7.625   5.793   4.060 -0.4921 -0.9780  0.9024
 4151SOL    HW215408   7.597   5.645   4.069 -0.4225 -1.1866 -1.5042
 4152SOL     OW15409   0.768   3.522   2.303  0.2355 -0.5194  0.3992
 4152SOL    HW115410   0.829   3.563   2.363  0.9854 -1.8275  0.5687
 4152SOL    HW215411   0.745   3.591   2.241  1.8039  0.0342  0.3972
 4153SOL     OW15412   2.018   4.216   6.390  0.3999  0.2858 -0.2069
 4153SOL    HW115413   2.113   4.222   6.391  0.4508 -0.4680 -0.6110
 4153SOL    HW215414   1.998   4.134   6.434 -0.0660  0.4362 -0.1323
 4154SOL     OW15415   2.159   7.046   6.961  0.2901 -0.5028 -0.3233
 4154SOL    HW115416   2.203   7.026   7.045 -0.2347 -0.4184 -0.0261
 4154SOL    HW215417   2.226   7.091   6.910  1.2160 -2.1770 -0.6641
 4155SOL     OW15418   2.091   1.708   4.703  0.5260  0.1578 -0.2045
 4155SOL    HW115419   2.054   1.621   4.718 -0.8230  0.6223 -0.6959
 4155SOL    HW215420   2.177   1.705   4.746 -0.9235 -0.2914  2.9310
 4156SOL     OW15421   7.518   7.648   0.409 -0.5003 -0.1787  0.0690
 4156SOL    HW115422   7.441   7.666   0.354 -0.0588  2.2680  0.1400
 4156SOL    HW215423   7.482   7.631   0.496 -1.1187 -2.6833 -0.6007
 4157SOL     OW15424   7.641   0.980   4.520 -0.1067 -0.2451 -0.2738
 4157SOL    HW115425   7.637   0.895   4.476  2.6365 -1.4286  1.5152
 4157SOL    HW215426   7.583   0.971   4.596 -0.0469 -0.4105 -0.2487
 4158SOL     OW15427   4.075   4.386   4.320 -0.5316  0.4377  0.5572
 4158SOL    HW115428   4.046   4.428   4.239 -1.0891  0.2748  0.6657
 4158SOL    HW215429   4.024   4.428   4.389 -0.2030  0.4367  0.8058
 4159SOL     OW15430   7.096   0.783   0.265  0.1198 -0.4410 -0.0963
 4159SOL    HW115431   7.027   0.825   0.214  0.6061 -0.6748 -0.9696
 4159SOL    HW215432   7.176   0.827   0.238  0.3414 -0.2605  0.8150
 4160SOL     OW15433   1.130   4.122   5.464 -0.0122 -0.5191  0.6372
 4160SOL    HW115434   1.168   4.168   5.389  0.8325  0.0977  1.4194
 4160SOL    HW215435   1.204   4.102   5.520 -0.5735 -1.4467  1.0655
 4161SOL     OW15436   5.373   2.528   4.122 -0.2441 -0.0878  0.1401
 4161SOL    HW115437   5.374   2.623   4.112 -1.8258  0.0143  0.7136
 4161SOL    HW215438   5.460   2.500   4.094  0.1930  1.5078 -0.1808
 4162SOL     OW15439   0.489   1.334   0.232  0.4679 -0.4250 -0.2066
 4162SOL    HW115440   0.398   1.306   0.236  0.5655 -0.6456  0.7650
 4162SOL    HW215441   0.502   1.386   0.311  1.6197 -1.7464  0.5195
 4163SOL     OW15442   6.843   7.908   1.272 -0.2187 -0.3093 -0.2411
 4163SOL    HW115443   6.920   7.861   1.304 -1.4740 -2.1364  0.2609
 4163SOL    HW215444   6.792   7.927   1.351  0.1174  1.7491 -0.4622
 4164SOL     OW15445   3.049   1.159   1.798  0.0784 -0.1014  0.2989
 4164SOL    HW115446   2.971   1.195   1.841 -0.8910 -1.0360 -0.5871
 4164SOL    HW215447   3.050   1.067   1.825  0.6220 -0.1968 -0.0431
 4165SOL     OW15448   6.512   1.360   0.850 -0.2810  0.8059 -0.5904
 4165SOL    HW115449   6.510   1.290   0.915 -1.0143  1.4636  0.1199
 4165SOL    HW215450   6.438   1.340   0.792 -1.2447  1.6471  0.3313
 4166SOL     OW15451   3.233   3.542   3.291 -0.1613  0.1558 -0.0601
 4166SOL    HW115452   3.281   3.502   3.364 -0.7103 -0.9507 -0.2921
 4166SOL    HW215453   3.300   3.557   3.224  0.0011 -0.7341 -0.1141
 4167SOL     OW15454   8.038   4.230   3.359 -0.1804  0.4345 -0.3908
 4167SOL    HW115455   7.996   4.265   3.438 -2.4458  0.8043 -1.6851
 4167SOL    HW215456   8.038   4.303   3.297 -0.5160 -0.4630 -1.4768
 4168SOL     OW15457   1.219   0.413   5.572 -0.3891 -0.1467 -0.0492
 4168SOL    HW115458   1.126   0.426   5.555 -0.4591 -2.3674 -1.8018
 4168SOL    HW215459   1.223   0.389   5.665 -1.7764 -1.4738 -0.2892
 4169SOL     OW15460   7.452   1.161   0.800  0.1378  0.2912 -0.4182
 4169SOL    HW115461   7.514   1.090   0.783  1.0937  1.0946 -0.3243
 4169SOL    HW215462   7.412   1.179   0.715  0.3288  0.0486 -0.5600
 4170SOL     OW15463   2.836   4.225   2.327 -0.3186 -0.4321  0.0928
 4170SOL    HW115464   2.908   4.162   2.315  0.0548 -0.3242  1.5794
 4170SOL    HW215465   2.846   4.286   2.254  2.1102  0.4949  1.0704
 4171SOL     OW15466   6.329   6.986   2.049 -0.4753  0.5635 -0.1918
 4171SOL    HW115467   6.237   6.983   2.073 -0.6659 -0.3725 -0.9663
 4171SOL    HW215468   6.331   7.035   1.966 -0.3854 -0.1366 -0.6093
 4172SOL     OW15469   1.624   7.502   1.984 -0.1135 -0.1484  0.6798
 4172SOL    HW115470   1.664   7.497   2.071 -0.1734  0.3341  0.7388
 4172SOL    HW215471   1.551   7.563   1.996  0.6922  0.9803 -0.0185
 4173SOL     OW15472   2.008   1.825   0.537  0.5121 -0.1088  0.6205
 4173SOL    HW115473   2.093   1.794   0.565  0.8292  1.4902  1.5827
 4173SOL    HW215474   2.001   1.914   0.573 -1.8639 -0.4584  1.2372
 4174SOL     OW15475   1.829   2.830   1.384  0.1756  0.4438 -0.0585
 4174SOL    HW115476   1.903   2.860   1.436 -0.5233  2.7221 -0.3035
 4174SOL    HW215477   1.752   2.871   1.424 -0.9805 -1.5790 -0.0225
 4175SOL     OW15478   5.878   2.093   1.257 -0.4390 -0.2123  0.1176
 4175SOL    HW115479   5.927   2.038   1.319 -1.8888 -0.2652  1.2843
 4175SOL    HW215480   5.789   2.094   1.292 -0.4398  3.1919  0.3810
 4176SOL     OW15481   1.527   4.168   5.394  0.1095 -0.5193 -0.1643
 4176SOL    HW115482   1.455   4.131   5.445 -0.6938  1.2612  0.0834
 4176SOL    HW215483   1.571   4.229   5.454 -0.6317  1.3462 -1.3988
 4177SOL     OW15484   1.138   6.508   7.302 -0.1617  0.5751 -0.1348
 4177SOL    HW115485   1.138   6.600   7.327  0.6160  0.2962  0.9778
 4177SOL    HW215486   1.217   6.497   7.249  0.4690  0.3022  0.8220
 4178SOL     OW15487   3.144   3.392   1.747 -0.2961 -0.7449  0.1862
 4178SOL    HW115488   3.082   3.328   1.712 -0.4813 -0.4333 -0.0600
 4178SOL    HW215489   3.230   3.350   1.736 -0.4149 -0.9469  0.0172
 4179SOL     OW15490   2.594   4.856   0.686 -0.3074 -0.1703  0.3749
 4179SOL    HW115491   2.629   4.943   0.669  0.0590 -0.6536 -1.5551
 4179SOL    HW215492   2.502   4.861   0.660 -0.6951  0.0199  1.6978
 4180SOL     OW15493   7.412   7.235   5.686 -0.1831 -0.4836  0.3547
 4180SOL    HW115494   7.496   7.264   5.720 -1.5679  0.6377  3.1964
 4180SOL    HW215495   7.398   7.149   5.725 -0.3235 -0.7124 -0.1902
 4181SOL     OW15496   3.789   7.109   5.411  0.2242  0.3049  0.1033
 4181SOL    HW115497   3.766   7.109   5.504 -0.7708  1.9470 -0.0959
 4181SOL    HW215498   3.740   7.183   5.375 -0.9051 -1.4108 -2.1066
 4182SOL     OW15499   4.782   3.735   1.867 -0.3058  0.3770 -0.2666
 4182SOL    HW115500   4.790   3.742   1.772  1.4747 -0.6092 -0.2396
 4182SOL    HW215501   4.690   3.756   1.885 -1.0299 -0.7041 -2.3415
 4183SOL     OW15502   3.291   7.263   6.270 -0.0839 -0.6348  0.5494
 4183SOL    HW115503   3.365   7.281   6.328 -0.1484 -1.7101  0.9778
 4183SOL    HW215504   3.294   7.334   6.206  2.5717 -1.7403 -0.6853
 4184SOL     OW15505   0.592   4.633   7.573  0.0110  0.0895  0.1426
 4184SOL    HW115506   0.524   4.682   7.526  0.2120 -1.0211 -1.3995
 4184SOL    HW215507   0.543   4.568   7.624 -0.1301 -0.5814 -0.8144
 4185SOL     OW15508   1.334   8.002   5.261  0.6206 -0.0729  0.5730
 4185SOL    HW115509   1.313   7.912   5.287  0.5148 -0.2281 -0.0459
 4185SOL    HW215510   1.284   8.017   5.181  0.6438  0.5369  0.6666
 4186SOL     OW15511   1.515   0.055   7.843  0.5704 -0.7070 -0.4239
 4186SOL    HW115512   1.517  -0.012   7.911  0.1799 -0.6603 -0.3652
 4186SOL    HW215513   1.604   0.055   7.807  0.7671 -0.7636  0.0529
 4187SOL     OW15514   0.098   2.759   0.903  0.5531  0.5929  0.5646
 4187SOL    HW115515   0.015   2.807   0.907 -1.0535 -1.8608 -0.8367
 4187SOL    HW215516   0.157   2.818   0.856 -1.5493  0.9913 -1.7819
 4188SOL     OW15517   6.052   4.924   5.905 -0.1044 -0.0655 -1.0737
 4188SOL    HW115518   5.997   4.923   5.983 -0.0338  0.4845 -1.0116
 4188SOL    HW215519   6.099   4.841   5.907 -0.1591 -0.0841 -0.5711
 4189SOL     OW15520   2.817   2.902   0.724  0.3427 -0.1000  0.5494
 4189SOL    HW115521   2.867   2.965   0.776  1.7873 -1.2136  0.5967
 4189SOL    HW215522   2.766   2.956   0.663  2.0770  1.1281  0.0797
 4190SOL     OW15523   2.384   2.205   4.754 -0.5477 -0.5176 -0.3600
 4190SOL    HW115524   2.389   2.111   4.735  1.8578 -1.1492  2.5165
 4190SOL    HW215525   2.474   2.236   4.742 -0.4909  0.5275  2.2226
 4191SOL     OW15526   1.447   6.144   3.402 -0.5360  0.1507  0.2316
 4191SOL    HW115527   1.530   6.096   3.403 -0.9152 -0.5089  0.6751
 4191SOL    HW215528   1.438   6.179   3.490 -0.7933  0.1089  0.2229
 4192SOL     OW15529   0.890   7.893   6.737  0.3920  0.1320 -0.6143
 4192SOL    HW115530   0.938   7.849   6.807  0.0718  0.9735  0.1603
 4192SOL    HW215531   0.858   7.973   6.778  0.5618  0.8516 -1.8514
 4193SOL     OW15532   0.855   2.291   0.883  0.2375  0.0510 -0.2450
 4193SOL    HW115533   0.889   2.303   0.972  0.1916 -1.9030  0.0664
 4193SOL    HW215534   0.824   2.201   0.880 -0.0173  0.1470 -2.1813
 4194SOL     OW15535   3.526   3.610   2.763 -0.0999  0.3487 -0.7008
 4194SOL    HW115536   3.572   3.543   2.814  1.5594  0.8998 -1.3943
 4194SOL    HW215537   3.462   3.561   2.711  0.7147 -0.6402 -0.7994
 4195SOL     OW15538   0.199   0.585   2.646 -0.4722 -0.3253  0.3340
 4195SOL    HW115539   0.218   0.575   2.553  0.2307  0.1260  0.4192
 4195SOL    HW215540   0.276   0.550   2.690 -0.6884 -0.2952  0.7430
 4196SOL     OW15541   0.871   2.812   5.407  0.3302  0.6115 -0.6432
 4196SOL    HW115542   0.934   2.765   5.461  0.4836  1.0524 -0.4372
 4196SOL    HW215543   0.924   2.862   5.346  0.3411  3.2680  1.3654
 4197SOL     OW15544   5.701   1.741   1.490 -0.3037 -0.1852  0.3010
 4197SOL    HW115545   5.636   1.743   1.420 -0.8075  0.7516  0.7679
 4197SOL    HW215546   5.693   1.654   1.528  1.1923 -1.3624 -1.8914
 4198SOL     OW15547   2.686   0.303   6.142  0.2285 -0.3158 -0.5097
 4198SOL    HW115548   2.664   0.270   6.230  0.8687  0.3401 -0.0927
 4198SOL    HW215549   2.673   0.227   6.085 -2.1001 -0.2467 -0.1735
 4199SOL     OW15550   2.926   4.667   5.891  0.7498 -0.0392 -0.5421
 4199SOL    HW115551   2.958   4.580   5.917  1.7546  0.2691 -0.7092
 4199SOL    HW215552   2.858   4.687   5.955 -0.0211 -1.2603 -0.9422
 4200SOL     OW15553   3.720   1.963   4.210  0.3846 -0.5241 -0.0286
 4200SOL    HW115554   3.655   2.032   4.229  0.5468 -0.4456  0.2492
 4200SOL    HW215555   3.668   1.888   4.183  0.2488  0.0253 -1.3534
 4201SOL     OW15556   5.089   6.658   4.029 -0.4165  0.4292 -0.7837
 4201SOL    HW115557   5.124   6.571   4.049  0.7720  1.1483  0.4874
 4201SOL    HW215558   5.041   6.647   3.947 -0.6143 -1.4946 -0.4478
 4202SOL     OW15559   4.444   4.914   4.085 -0.2218 -0.0831  0.1201
 4202SOL    HW115560   4.410   4.858   4.016 -2.1746  0.5748  0.4679
 4202SOL    HW215561   4.522   4.955   4.048 -0.3090 -0.9717 -1.0842
 4203SOL     OW15562   3.581   7.062   2.241  0.1182  0.2037 -0.3736
 4203SOL    HW115563   3.668   7.023   2.251  0.1621  0.0459 -1.2996
 4203SOL    HW215564   3.597   7.145   2.196 -0.1523  0.4642  0.0026
 4204SOL     OW15565   2.799   0.736   3.699  0.5468  0.1983 -0.1315
 4204SOL    HW115566   2.752   0.779   3.628  0.6257  0.5053 -0.0016
 4204SOL    HW215567   2.744   0.751   3.776  0.7233  0.3220 -0.0305
 4205SOL     OW15568   7.401   4.145   3.647  0.3821  0.2482 -0.2280
 4205SOL    HW115569   7.478   4.116   3.695  0.3617  0.4742 -0.0593
 4205SOL    HW215570   7.430   4.224   3.601  0.1155  0.6132  0.2223
 4206SOL     OW15571   6.646   7.159   8.075 -0.2442 -0.0654  0.2576
 4206SOL    HW115572   6.678   7.075   8.107  1.1179  0.3127 -0.0391
 4206SOL    HW215573   6.552   7.157   8.092 -0.4030 -2.0287 -0.6271
 4207SOL     OW15574   2.048   0.279   6.860 -0.2768 -0.2236  0.3610
 4207SOL    HW115575   2.098   0.235   6.929 -0.3924 -0.2254  0.4441
 4207SOL    HW215576   2.048   0.217   6.787  0.3763  0.0331  0.1353
 4208SOL     OW15577   2.014   1.949   2.149  0.0070 -0.1512 -0.2619
 4208SOL    HW115578   1.934   1.984   2.109  0.8927  1.0399 -1.0692
 4208SOL    HW215579   2.028   1.866   2.103 -0.9593 -0.5735  0.1659
 4209SOL     OW15580   1.789   2.090   1.589  0.3467  0.0613 -0.1553
 4209SOL    HW115581   1.816   2.093   1.498  0.0100 -1.4576 -0.3212
 4209SOL    HW215582   1.760   2.180   1.608  0.0607  0.3068 -1.6318
 4210SOL     OW15583   5.143   4.763   3.327  0.6116 -0.6743 -0.1797
 4210SOL    HW115584   5.171   4.852   3.348 -0.1377 -0.2125 -1.0519
 4210SOL    HW215585   5.197   4.737   3.253  0.0174 -0.4747 -0.6945
 4211SOL     OW15586   0.732   4.398   6.083  0.3456  0.2408  0.4030
 4211SOL    HW115587   0.789   4.417   6.157 -0.6257  0.1007  1.2148
 4211SOL    HW215588   0.652   4.448   6.102  0.1824  0.4234 -0.6958
 4212SOL     OW15589   4.708   6.165   3.717 -0.0783 -0.1337  0.7091
 4212SOL    HW115590   4.778   6.115   3.674  0.5562  0.6235  0.8407
 4212SOL    HW215591   4.678   6.108   3.788  0.7325 -0.2829  0.9422
 4213SOL     OW15592   8.075   2.204   7.168  1.0252 -0.4291 -0.2071
 4213SOL    HW115593   8.070   2.299   7.168 -0.8921 -0.4342  2.0190
 4213SOL    HW215594   8.150   2.183   7.112  2.1689  2.3999  0.1280
 4214SOL     OW15595   5.496   1.417   3.606 -1.0219  0.1925  0.1046
 4214SOL    HW115596   5.500   1.501   3.652  2.5656  1.2310 -1.6928
 4214SOL    HW215597   5.555   1.360   3.656 -0.2583  0.0767 -0.8938
 4215SOL     OW15598   2.147   3.197   6.878 -0.0545  0.5578  0.5191
 4215SOL    HW115599   2.122   3.268   6.938 -1.3039  0.7250 -0.1684
 4215SOL    HW215600   2.201   3.239   6.812  0.1099  0.6577  0.7160
 4216SOL     OW15601   5.651   1.986   7.144 -0.2419  0.2214  0.2502
 4216SOL    HW115602   5.713   2.053   7.170  1.2739 -0.9407 -0.1953
 4216SOL    HW215603   5.589   2.030   7.086  0.9038  1.1666 -0.2842
 4217SOL     OW15604   7.157   5.185   4.449  0.1044  0.2288  0.3026
 4217SOL    HW115605   7.206   5.256   4.491  0.6466  1.7231 -2.6291
 4217SOL    HW215606   7.068   5.219   4.441 -0.3417 -0.6067  1.3534
 4218SOL     OW15607   5.598   7.298   7.317 -0.0976 -0.9187  0.6222
 4218SOL    HW115608   5.671   7.263   7.267 -0.2534 -1.4475  0.7571
 4218SOL    HW215609   5.558   7.362   7.259  0.7563 -0.2729  0.7317
 4219SOL     OW15610   0.809   3.200   7.244  0.7338 -0.3429 -0.4122
 4219SOL    HW115611   0.844   3.213   7.156  0.2664 -0.0025 -0.5467
 4219SOL    HW215612   0.751   3.124   7.237  0.7318 -0.3442 -0.3841
 4220SOL     OW15613   3.296   6.659   5.020 -0.0872 -0.3453 -0.0134
 4220SOL    HW115614   3.391   6.653   5.010  0.6246  1.9709  3.3723
 4220SOL    HW215615   3.266   6.568   5.025  1.8725 -1.1301 -1.2772
 4221SOL     OW15616   5.122   6.430   7.866  0.0477  0.0847 -0.6113
 4221SOL    HW115617   5.164   6.385   7.792  2.2303  0.6659  0.1782
 4221SOL    HW215618   5.172   6.401   7.942  0.3325  2.3733  0.1461
 4222SOL     OW15619   3.527   5.591   3.783 -0.0718 -0.1785 -0.3742
 4222SOL    HW115620   3.472   5.651   3.834 -0.3741  0.1091 -1.0314
 4222SOL    HW215621   3.601   5.645   3.755  0.3214 -0.4498  0.1266
 4223SOL     OW15622   7.029   3.188   7.668 -0.1510 -0.2738  0.2607
 4223SOL    HW115623   6.993   3.114   7.619 -1.7822  0.6177  0.0539
 4223SOL    HW215624   7.038   3.259   7.604  2.3298 -0.5051  0.2342
 4224SOL     OW15625   6.228   6.713   6.038 -0.8614  0.4746  0.1740
 4224SOL    HW115626   6.142   6.732   6.075 -1.4785 -0.3472 -0.7936
 4224SOL    HW215627   6.214   6.708   5.943 -0.3088 -2.2333  0.1412
 4225SOL     OW15628   6.523   0.561   3.376  0.3350  0.1398 -0.3764
 4225SOL    HW115629   6.548   0.601   3.459  1.1013  2.0075 -1.4350
 4225SOL    HW215630   6.448   0.613   3.347 -1.5241 -2.0520  0.2507
 4226SOL     OW15631   3.371   4.015   0.576 -0.2291 -0.1332 -0.5317
 4226SOL    HW115632   3.421   4.031   0.656 -1.0763 -2.4265  0.5370
 4226SOL    HW215633   3.421   3.948   0.530 -1.6366 -1.5941 -0.0198
 4227SOL     OW15634   6.936   4.523   4.449 -0.6797  0.6135 -0.1742
 4227SOL    HW115635   6.963   4.478   4.369 -0.9936  0.6026 -0.2747
 4227SOL    HW215636   6.863   4.471   4.482 -1.5523  1.4718 -0.7065
 4228SOL     OW15637   7.152   0.781   6.081  0.3426  0.7788  0.1356
 4228SOL    HW115638   7.241   0.804   6.058 -0.1215  1.5804 -0.9434
 4228SOL    HW215639   7.103   0.787   5.999 -0.5832 -0.2707  0.5714
 4229SOL     OW15640   3.119   4.004   0.144 -0.3205  0.1185  0.1121
 4229SOL    HW115641   3.171   4.079   0.114  0.2260 -0.5292 -0.5908
 4229SOL    HW215642   3.155   3.982   0.230  1.1669 -0.8560 -0.7238
 4230SOL     OW15643   1.571   5.760   4.827 -0.5590 -0.0766 -0.1733
 4230SOL    HW115644   1.627   5.683   4.836 -1.3046 -0.4678  1.4409
 4230SOL    HW215645   1.629   5.834   4.844 -0.7204 -0.5406  2.9619
 4231SOL     OW15646   5.635   7.364   1.116 -0.2248 -0.6375  0.1100
 4231SOL    HW115647   5.585   7.394   1.191 -0.8404  1.0922 -0.9368
 4231SOL    HW215648   5.713   7.324   1.153 -1.5539 -1.8951  1.7195
 4232SOL     OW15649   4.865   2.755   2.114 -0.2320  0.4315  0.2993
 4232SOL    HW115650   4.924   2.762   2.189  1.0354  0.2760 -0.6315
 4232SOL    HW215651   4.855   2.845   2.083  0.2894  0.3633 -0.0896
 4233SOL     OW15652   8.076   2.720   0.585  0.1249 -0.1004 -0.3718
 4233SOL    HW115653   8.041   2.781   0.520 -0.5292  3.1827  2.7435
 4233SOL    HW215654   8.030   2.743   0.666  2.5145 -2.3354  1.7870
 4234SOL     OW15655   1.150   0.529   4.466 -0.2860  0.1808  0.5010
 4234SOL    HW115656   1.187   0.450   4.427  1.8809  0.7551  1.2350
 4234SOL    HW215657   1.066   0.540   4.423  0.7062 -0.8074 -1.8975
 4235SOL     OW15658   3.551   6.029   5.349  0.3611  0.0893 -0.0114
 4235SOL    HW115659   3.538   6.003   5.258 -1.8829 -1.7341  0.7283
 4235SOL    HW215660   3.645   6.017   5.365  1.0074  1.4871 -2.3164
 4236SOL     OW15661   2.839   7.749   4.073 -0.8986  0.2648  0.1835
 4236SOL    HW115662   2.802   7.825   4.117  0.5097  0.3549  1.3246
 4236SOL    HW215663   2.825   7.677   4.136 -1.8134 -0.3374 -0.6847
 4237SOL     OW15664   1.834   1.005   2.923 -0.3188 -0.6535 -0.5103
 4237SOL    HW115665   1.808   0.952   2.847 -0.7147 -0.9711 -0.1623
 4237SOL    HW215666   1.874   0.942   2.983  0.7466 -0.2671 -0.7895
 4238SOL     OW15667   2.606   0.433   2.947  0.8124 -0.0949 -0.0293
 4238SOL    HW115668   2.597   0.466   2.858 -1.7629 -1.0845 -0.2174
 4238SOL    HW215669   2.629   0.341   2.936  0.1314 -0.3120  0.2794
 4239SOL     OW15670   2.723   4.576   4.647 -0.2800 -0.6590  0.5998
 4239SOL    HW115671   2.808   4.539   4.627  1.3799  2.8230  0.4377
 4239SOL    HW215672   2.731   4.605   4.738 -0.9584  0.4332  0.3300
 4240SOL     OW15673   7.951   3.220   7.616 -0.3717 -0.1254 -0.2258
 4240SOL    HW115674   7.920   3.304   7.581  0.2980  0.6941  1.0513
 4240SOL    HW215675   7.925   3.155   7.551  0.2309  1.2236 -1.8730
 4241SOL     OW15676   4.149   3.045   6.514 -0.1519  0.2056  0.1781
 4241SOL    HW115677   4.085   3.093   6.461  0.7736  0.1991 -0.9845
 4241SOL    HW215678   4.108   3.040   6.601 -1.6731  0.2945 -0.4875
 4242SOL     OW15679   6.101   6.398   0.282  0.3528  0.3995  0.4943
 4242SOL    HW115680   6.065   6.312   0.265  2.8127 -0.8833  1.2051
 4242SOL    HW215681   6.128   6.395   0.374 -1.6027  2.8172  1.2761
 4243SOL     OW15682   2.257   4.823   0.115 -0.3168 -0.0862 -0.4354
 4243SOL    HW115683   2.209   4.879   0.176 -1.6472 -0.7003 -0.8795
 4243SOL    HW215684   2.239   4.734   0.145 -0.6284 -0.3772 -1.4583
 4244SOL     OW15685   6.048   6.725   3.629 -0.2294  0.0621 -0.2625
 4244SOL    HW115686   6.023   6.680   3.548  0.0670 -0.7466  0.0823
 4244SOL    HW215687   5.967   6.762   3.662 -0.2316  1.0566 -1.3193
 4245SOL     OW15688   3.235   2.892   6.911  0.0720 -0.3148  0.6448
 4245SOL    HW115689   3.301   2.935   6.857  0.2265  0.3789  1.3671
 4245SOL    HW215690   3.238   2.800   6.885  1.2090 -0.2611  0.5445
 4246SOL     OW15691   6.285   2.236   3.392 -0.0823 -0.3009  0.5418
 4246SOL    HW115692   6.240   2.316   3.421  1.6624  1.3054 -0.8839
 4246SOL    HW215693   6.255   2.221   3.303  1.0697 -0.0275  0.0820
 4247SOL     OW15694   1.331   5.246   1.996 -0.0659 -0.5571 -0.8388
 4247SOL    HW115695   1.252   5.287   2.031 -0.4463 -2.5022  0.7289
 4247SOL    HW215696   1.308   5.220   1.907 -0.4443  0.7774 -1.1564
 4248SOL     OW15697   2.224   6.224   6.158  0.0882 -0.4453 -0.0841
 4248SOL    HW115698   2.191   6.309   6.186  1.9534  0.1584  0.4334
 4248SOL    HW215699   2.214   6.167   6.234 -0.6531 -0.5497 -0.2544
 4249SOL     OW15700   0.269   5.313   0.578  0.3980 -0.0229  0.0568
 4249SOL    HW115701   0.211   5.237   0.570 -0.4624  0.7786 -2.1349
 4249SOL    HW215702   0.350   5.278   0.613 -1.0434 -1.3560  2.3295
 4250SOL     OW15703   4.863   3.258   4.700 -0.1367  0.2578 -0.3498
 4250SOL    HW115704   4.885   3.165   4.688  1.7351  0.2134  2.5804
 4250SOL    HW215705   4.935   3.293   4.752 -1.9400  2.8162  0.5957
 4251SOL     OW15706   4.585   3.534   1.797  0.4625  0.2345  0.9191
 4251SOL    HW115707   4.635   3.491   1.729 -2.2669 -1.9266  0.0693
 4251SOL    HW215708   4.604   3.485   1.877  0.6344  0.2058  0.8592
 4252SOL     OW15709   0.643   0.541   5.366  0.1896  0.2854 -0.9548
 4252SOL    HW115710   0.721   0.549   5.420 -0.3093 -0.1722 -0.1216
 4252SOL    HW215711   0.640   0.621   5.314  0.3528  1.0594  0.1802
 4253SOL     OW15712   3.425   8.064   6.262 -0.2468  0.2871 -0.3065
 4253SOL    HW115713   3.504   8.073   6.209 -1.2793 -2.5287 -2.6131
 4253SOL    HW215714   3.431   7.976   6.300 -2.0470  0.1659 -0.1948
 4254SOL     OW15715   1.679   6.517   7.906  0.1646 -0.2223 -0.0191
 4254SOL    HW115716   1.659   6.610   7.913 -0.5716 -0.4566  1.5351
 4254SOL    HW215717   1.773   6.511   7.920  0.8220  0.5171 -3.2265
 4255SOL     OW15718   5.600   0.535   6.879 -0.4822  0.2824  0.4013
 4255SOL    HW115719   5.640   0.559   6.962  1.1835  1.9175 -0.7874
 4255SOL    HW215720   5.572   0.618   6.841  0.8294 -0.1403 -1.6385
 4256SOL     OW15721   4.646   6.565   2.433 -0.4129 -0.1083  0.5806
 4256SOL    HW115722   4.719   6.617   2.467 -0.6778 -0.4072  1.6447
 4256SOL    HW215723   4.660   6.478   2.470 -1.4077 -0.1268  0.9329
 4257SOL     OW15724   1.607   4.082   0.633 -0.1723  0.4465  0.6840
 4257SOL    HW115725   1.681   4.122   0.679  0.3076  1.7789 -1.1424
 4257SOL    HW215726   1.631   3.990   0.624  1.2332  0.8426  0.2072
 4258SOL     OW15727   6.532   5.920   0.978 -0.2354 -0.3808  0.1490
 4258SOL    HW115728   6.476   5.940   1.052  0.0645 -0.1544  0.3179
 4258SOL    HW215729   6.607   5.873   1.016  0.8532  1.3645  0.2775
 4259SOL     OW15730   5.874   3.155   7.185  0.0929 -0.3145 -0.1789
 4259SOL    HW115731   5.954   3.159   7.133 -0.6213 -0.2551 -1.3303
 4259SOL    HW215732   5.901   3.120   7.270  1.3874  0.0964 -0.4129
 4260SOL     OW15733   3.858   3.665   0.895 -0.0254  0.1651 -0.0315
 4260SOL    HW115734   3.940   3.619   0.876 -0.1839 -0.6997  1.2402
 4260SOL    HW215735   3.809   3.604   0.951 -0.2310  1.8718  1.7443
 4261SOL     OW15736   6.876   5.785   3.042  0.4380 -0.4762 -0.3367
 4261SOL    HW115737   6.796   5.788   2.991  0.2638 -1.6611 -0.1677
 4261SOL    HW215738   6.857   5.723   3.113  0.7472  0.9262  1.0478
 4262SOL     OW15739   7.746   1.423   4.079 -0.0093  0.2986 -0.2830
 4262SOL    HW115740   7.782   1.471   4.153  1.2309  0.5695 -1.0476
 4262SOL    HW215741   7.821   1.381   4.038 -1.0648 -2.7422  0.6262
 4263SOL     OW15742   4.792   3.708   7.480 -0.6886 -0.0709  0.2350
 4263SOL    HW115743   4.881   3.684   7.506 -0.4231  0.1630 -0.4305
 4263SOL    HW215744   4.753   3.746   7.559  0.2727  1.1143  0.1666
 4264SOL     OW15745   5.385   6.801   3.559  0.2722 -0.4848 -0.1007
 4264SOL    HW115746   5.437   6.747   3.618  1.2878  0.6346  0.0719
 4264SOL    HW215747   5.304   6.752   3.546  1.3706 -2.3264 -0.4178
 4265SOL     OW15748   2.982   2.417   6.988  0.0329 -0.1387 -0.2105
 4265SOL    HW115749   3.049   2.416   7.056  1.1771  3.5356 -1.0530
 4265SOL    HW215750   2.991   2.332   6.945  1.9554 -1.0142  1.7306
 4266SOL     OW15751   2.966   2.782   5.916  0.5108 -0.3244 -0.4872
 4266SOL    HW115752   3.055   2.818   5.916  0.1845  0.6841 -2.8068
 4266SOL    HW215753   2.913   2.851   5.875 -1.4391 -0.7249  1.2195
 4267SOL     OW15754   3.100   7.439   6.918  0.1092  0.1369  0.0171
 4267SOL    HW115755   3.037   7.387   6.867 -0.3324  0.8480 -0.1914
 4267SOL    HW215756   3.134   7.503   6.855 -0.4267  1.0162  0.5942
 4268SOL     OW15757   7.096   7.008   6.078 -0.7163 -0.2255  0.3158
 4268SOL    HW115758   7.143   6.948   6.135 -1.2545 -1.5354 -0.5544
 4268SOL    HW215759   7.036   6.952   6.029  0.4118  0.6544 -2.2540
 4269SOL     OW15760   4.582   7.673   1.127 -0.6289 -0.5913 -0.2105
 4269SOL    HW115761   4.584   7.759   1.086  3.1016  0.3155  1.4845
 4269SOL    HW215762   4.612   7.613   1.059 -2.6555 -0.5619 -1.2102
 4270SOL     OW15763   3.311   3.911   6.163  0.7129  0.2869  0.4618
 4270SOL    HW115764   3.398   3.872   6.165  0.3610 -0.5038  1.4788
 4270SOL    HW215765   3.280   3.903   6.254 -0.6834 -0.0834 -0.0289
 4271SOL     OW15766   3.825   2.915   5.691 -0.2282 -0.0098  0.2538
 4271SOL    HW115767   3.831   2.891   5.783 -1.2791 -0.9409  0.1048
 4271SOL    HW215768   3.740   2.958   5.682  0.4434  1.3267 -0.0414
 4272SOL     OW15769   1.532   0.498   4.122 -0.2886 -0.7294 -0.7526
 4272SOL    HW115770   1.618   0.520   4.086 -0.0139  1.6450  1.1058
 4272SOL    HW215771   1.474   0.568   4.092 -0.8569 -0.6771  0.4121
 4273SOL     OW15772   5.171   4.563   1.506 -0.0830 -0.7798 -0.5587
 4273SOL    HW115773   5.096   4.569   1.566  1.1533 -2.2978  1.2658
 4273SOL    HW215774   5.191   4.470   1.502  3.1797 -0.3042  1.0633
 4274SOL     OW15775   2.812   6.492   3.368  0.2375 -0.2890  0.1996
 4274SOL    HW115776   2.875   6.439   3.416  0.5005 -1.1098 -1.0211
 4274SOL    HW215777   2.786   6.560   3.430  2.4778  0.1983  0.6775
 4275SOL     OW15778   0.769   0.666   2.902  0.3088 -0.5443  0.1116
 4275SOL    HW115779   0.803   0.754   2.886 -0.6769 -0.0464  0.6822
 4275SOL    HW215780   0.763   0.660   2.997 -1.5123 -0.4699  0.0354
 4276SOL     OW15781   1.509   4.583   7.814  0.1517  0.5296 -0.1768
 4276SOL    HW115782   1.535   4.671   7.839  0.0926  0.2958  0.7453
 4276SOL    HW215783   1.580   4.552   7.757  1.9911 -0.0891  2.2723
 4277SOL     OW15784   1.616   3.005   1.489  0.4067 -0.4573  0.2947
 4277SOL    HW115785   1.663   3.063   1.428  2.1876 -1.8207  0.2945
 4277SOL    HW215786   1.641   3.036   1.576  2.2059 -1.7848  0.3038
 4278SOL     OW15787   3.186   5.263   4.165  0.0570  0.2631 -0.4277
 4278SOL    HW115788   3.272   5.302   4.154  0.1805  0.6042  1.4275
 4278SOL    HW215789   3.159   5.238   4.077  3.0319 -2.0108 -0.8395
 4279SOL     OW15790   1.696   7.917   0.242 -0.5032  0.3475 -0.0705
 4279SOL    HW115791   1.702   7.824   0.218 -1.7648  0.2751 -0.2051
 4279SOL    HW215792   1.717   7.964   0.162 -0.2870  0.1691 -0.1188
 4280SOL     OW15793   6.112   3.655   7.132 -0.4059  0.0374  0.2738
 4280SOL    HW115794   6.023   3.681   7.156 -0.6847 -0.4039 -0.2655
 4280SOL    HW215795   6.124   3.689   7.044 -0.0404  0.0865  0.3417
 4281SOL     OW15796   1.171   4.702   4.912  0.0586  0.1536  0.4382
 4281SOL    HW115797   1.129   4.786   4.930  1.6109  1.8124 -2.7506
 4281SOL    HW215798   1.259   4.725   4.881  0.9217 -2.7337  0.4168
 4282SOL     OW15799   1.687   8.099   3.788  0.3895 -0.6114 -0.1858
 4282SOL    HW115800   1.612   8.050   3.754 -1.0410  2.0226 -1.1034
 4282SOL    HW215801   1.672   8.103   3.882  1.4982 -3.3098  0.2082
 4283SOL     OW15802   5.809   7.334   0.618 -0.1354 -0.1105  0.3654
 4283SOL    HW115803   5.789   7.278   0.694 -0.5466 -0.8463 -0.2674
 4283SOL    HW215804   5.840   7.272   0.551 -1.6379  0.2742 -0.7209
 4284SOL     OW15805   0.537   4.547   6.147 -0.1684  0.2424  0.2462
 4284SOL    HW115806   0.453   4.531   6.192 -0.3975 -0.2850 -0.3651
 4284SOL    HW215807   0.540   4.642   6.137 -0.5495  0.2927  0.5485
 4285SOL     OW15808   7.737   7.698   2.419  0.4907  0.2489 -0.0557
 4285SOL    HW115809   7.658   7.662   2.459  1.4309 -1.2027  0.5784
 4285SOL    HW215810   7.706   7.738   2.338 -0.9224 -0.1141  0.2727
 4286SOL     OW15811   5.656   6.621   6.242 -0.4268  0.1460 -0.3033
 4286SOL    HW115812   5.663   6.559   6.170 -0.0358  1.1132 -1.1224
 4286SOL    HW215813   5.679   6.706   6.203 -0.5360  0.7388  0.8807
 4287SOL     OW15814   2.600   7.006   6.546 -0.5834  0.6716 -0.0735
 4287SOL    HW115815   2.533   7.059   6.589 -0.6708  0.1668  0.4225
 4287SOL    HW215816   2.592   6.919   6.587 -0.3092  0.3315 -0.7331
 4288SOL     OW15817   4.222   1.754   8.121  0.3235 -0.0033 -0.1857
 4288SOL    HW115818   4.258   1.692   8.185 -0.3799 -0.1544  0.0728
 4288SOL    HW215819   4.132   1.768   8.150 -0.3375 -0.8612 -1.7244
 4289SOL     OW15820   6.875   4.720   3.740  0.1897 -0.5302  0.3490
 4289SOL    HW115821   6.902   4.740   3.651  2.6355 -0.5474  1.0241
 4289SOL    HW215822   6.860   4.806   3.781 -0.6677 -0.5155  0.0252
 4290SOL     OW15823   7.977   4.946   5.227  0.4938  0.6082 -0.4481
 4290SOL    HW115824   8.063   4.905   5.218  0.7789  1.3568 -1.1817
 4290SOL    HW215825   7.916   4.873   5.232  1.0239  0.0823 -1.4506
 4291SOL     OW15826   2.285   5.402   4.880  0.5532  0.2580 -0.2618
 4291SOL    HW115827   2.312   5.491   4.858 -1.9153  0.7594 -1.5994
 4291SOL    HW215828   2.205   5.412   4.930 -0.9312 -1.1627 -2.1668
 4292SOL     OW15829   1.888   6.720   6.829  0.6486 -1.1500  0.0617
 4292SOL    HW115830   1.895   6.769   6.747  1.2039 -3.1374 -1.1470
 4292SOL    HW215831   1.808   6.669   6.820 -0.7487  0.5667  1.9445
 4293SOL     OW15832   4.084   3.817   2.803  0.6689  0.1459  0.3783
 4293SOL    HW115833   4.033   3.853   2.876 -0.4092 -0.9304  0.1977
 4293SOL    HW215834   4.168   3.792   2.842  0.5873  0.7638  0.9678
 4294SOL     OW15835   1.329   4.308   4.523  0.0811 -0.4184 -0.3335
 4294SOL    HW115836   1.415   4.279   4.495  1.6292  0.9174  2.6010
 4294SOL    HW215837   1.331   4.404   4.513 -0.5929 -0.2599  0.7893
 4295SOL     OW15838   4.122   4.286   1.475 -0.2990 -0.1501 -0.7349
 4295SOL    HW115839   4.078   4.371   1.478 -1.4908 -0.7426 -0.4599
 4295SOL    HW215840   4.203   4.302   1.427  1.2160  1.8657  2.2232
 4296SOL     OW15841   3.122   4.726   6.691 -0.5938 -0.4873  0.1315
 4296SOL    HW115842   3.202   4.768   6.723 -0.0580 -1.0334 -0.4682
 4296SOL    HW215843   3.059   4.735   6.763 -0.2432  0.6342  0.3170
 4297SOL     OW15844   2.068   0.869   2.275 -0.5538 -0.5794  0.2014
 4297SOL    HW115845   2.057   0.956   2.238  0.0441  0.5274  2.4492
 4297SOL    HW215846   2.161   0.865   2.299 -0.6267 -1.7405  0.3567
 4298SOL     OW15847   5.796   0.179   7.675 -0.1965  0.2805 -0.0267
 4298SOL    HW115848   5.781   0.169   7.769  0.0602  0.0408 -0.0082
 4298SOL    HW215849   5.793   0.090   7.641  0.3233  0.3071 -0.1498
 4299SOL     OW15850   6.677   7.377   3.699 -0.1189 -0.0337  0.2432
 4299SOL    HW115851   6.588   7.357   3.669 -1.2081  2.3429  1.5853
 4299SOL    HW215852   6.726   7.394   3.618 -1.3162  0.1508 -0.4683
 4300SOL     OW15853   3.743   7.672   5.706  0.5643 -0.2571  0.5435
 4300SOL    HW115854   3.664   7.638   5.665  0.6968  0.5635 -0.4237
 4300SOL    HW215855   3.717   7.691   5.796 -0.5231  0.6207  0.0672
 4301SOL     OW15856   2.230   1.911   0.108  0.0276  0.3227  0.0893
 4301SOL    HW115857   2.255   1.880   0.195  0.3362  2.2680  0.7378
 4301SOL    HW215858   2.137   1.892   0.102 -0.0658  0.4594  0.9726
 4302SOL     OW15859   4.926   6.769   6.126 -0.1744 -0.4534  0.3732
 4302SOL    HW115860   4.988   6.720   6.074 -0.0645 -1.3724  1.3312
 4302SOL    HW215861   4.903   6.845   6.072  3.1284  0.9218  0.6827
 4303SOL     OW15862   2.652   7.404   1.106 -0.1236  0.6437  0.5631
 4303SOL    HW115863   2.730   7.362   1.070  0.3078  1.5452  0.3980
 4303SOL    HW215864   2.643   7.368   1.194  1.3274  1.5579  1.1227
 4304SOL     OW15865   1.749   4.855   5.007 -0.3699  0.3232 -0.3466
 4304SOL    HW115866   1.666   4.817   5.035  0.2733  0.7921  2.6519
 4304SOL    HW215867   1.807   4.780   4.994 -0.7150  0.0642 -0.3892
 4305SOL     OW15868   1.451   7.415   0.455  0.1388  0.0130  0.3127
 4305SOL    HW115869   1.370   7.424   0.404  0.2438 -2.3618 -0.4046
 4305SOL    HW215870   1.457   7.496   0.505 -0.4721  2.1171 -2.7146
 4306SOL     OW15871   6.908   6.745   2.994 -0.0008  0.1266 -0.4834
 4306SOL    HW115872   6.887   6.712   2.906 -0.1646  0.8172 -0.7044
 4306SOL    HW215873   6.969   6.816   2.979 -0.1613  0.3602 -0.0473
 4307SOL     OW15874   6.947   7.271   4.253 -0.0980  0.1085  0.0984
 4307SOL    HW115875   6.991   7.325   4.188 -0.5225 -0.0422 -0.3151
 4307SOL    HW215876   6.968   7.313   4.337  1.8741 -0.6831  0.0497
 4308SOL     OW15877   3.037   6.700   3.061 -0.6760 -0.3465  0.3933
 4308SOL    HW115878   2.963   6.750   3.095 -0.6955 -0.6580  0.8061
 4308SOL    HW215879   3.112   6.759   3.071 -0.6562 -0.4858  1.1052
 4309SOL     OW15880   3.237   0.454   2.312 -0.2722  0.4078 -0.1979
 4309SOL    HW115881   3.268   0.386   2.252 -0.3087  0.6785 -0.5238
 4309SOL    HW215882   3.316   0.501   2.338 -0.2184  0.0997  0.2062
 4310SOL     OW15883   7.694   8.132   5.689  0.2948 -0.4594  0.3081
 4310SOL    HW115884   7.624   8.156   5.628  0.8082 -1.3824 -0.6890
 4310SOL    HW215885   7.770   8.183   5.659 -0.0277  0.8484  1.6332
 4311SOL     OW15886   3.378   1.426   1.633 -0.2146 -0.0897 -0.1629
 4311SOL    HW115887   3.381   1.522   1.632  0.9476 -0.1118 -0.1830
 4311SOL    HW215888   3.366   1.401   1.542 -4.1002  0.0610  0.1402
 4312SOL     OW15889   7.530   7.180   0.263 -0.4989 -0.2462  0.2391
 4312SOL    HW115890   7.538   7.274   0.279  0.0381 -0.0290 -1.1056
 4312SOL    HW215891   7.585   7.164   0.186  0.2247 -1.8473  1.0274
 4313SOL     OW15892   1.924   1.598   7.966  0.1593  0.1321 -0.6591
 4313SOL    HW115893   1.980   1.675   7.955  0.7161 -0.3525 -1.3806
 4313SOL    HW215894   1.839   1.625   7.932  0.3102  0.4765 -0.7700
 4314SOL     OW15895   0.387   3.738   0.032 -0.3278  0.4178 -0.0287
 4314SOL    HW115896   0.381   3.674  -0.039  0.7764 -1.1460  1.2314
 4314SOL    HW215897   0.305   3.728   0.081 -0.7177  0.9020 -0.5659
 4315SOL     OW15898   2.694   4.598   0.660  0.2789 -0.0211 -0.1323
 4315SOL    HW115899   2.651   4.560   0.583 -1.2342 -0.7033  0.9978
 4315SOL    HW215900   2.677   4.692   0.653 -0.3250 -0.1402 -0.3522
 4316SOL     OW15901   4.624   6.023   2.947 -0.2865  0.0672 -0.0210
 4316SOL    HW115902   4.587   5.989   3.028 -0.3111 -0.4996 -0.2639
 4316SOL    HW215903   4.572   6.101   2.927 -1.3240 -0.6897 -0.3383
 4317SOL     OW15904   8.116   1.628   2.006 -0.7706 -0.4204 -0.3241
 4317SOL    HW115905   8.159   1.657   1.925 -0.4160 -0.1484 -0.0459
 4317SOL    HW215906   8.159   1.680   2.074 -1.0196 -0.6999  0.0430
 4318SOL     OW15907   2.957   0.922   4.114 -0.6519 -1.1030  0.1530
 4318SOL    HW115908   3.033   0.976   4.136 -0.8209 -0.9560  0.3795
 4318SOL    HW215909   2.978   0.835   4.146 -1.4378 -0.6171  2.1058
 4319SOL     OW15910   4.477   1.444   7.432  0.1740 -0.0091 -0.3444
 4319SOL    HW115911   4.525   1.361   7.429  0.5564  0.1928  0.0503
 4319SOL    HW215912   4.490   1.482   7.345  2.0484  0.7548  0.2032
 4320SOL     OW15913   1.638   0.758   4.791  0.6682 -0.4331 -0.7353
 4320SOL    HW115914   1.584   0.682   4.769 -2.4229  1.6032 -0.7763
 4320SOL    HW215915   1.668   0.740   4.881 -0.2625 -1.5550 -0.6157
 4321SOL     OW15916   4.185   4.754   4.189  0.4348 -0.6518  0.7172
 4321SOL    HW115917   4.114   4.808   4.222  1.0383  2.4663 -2.4577
 4321SOL    HW215918   4.260   4.775   4.245  0.3538  1.0810  0.2470
 4322SOL     OW15919   6.430   0.518   4.578  0.1149  0.6882  0.3528
 4322SOL    HW115920   6.411   0.448   4.515 -0.5511  0.7376  0.4889
 4322SOL    HW215921   6.525   0.518   4.586  0.2826  1.3205 -1.3655
 4323SOL     OW15922   1.793   5.914   6.244 -0.2867  0.2766  0.1725
 4323SOL    HW115923   1.842   5.996   6.237  0.1030  0.2589  2.0851
 4323SOL    HW215924   1.820   5.863   6.167  0.1448  1.5780 -0.5612
 4324SOL     OW15925   3.707   7.568   2.383  0.5665  0.3708  0.2654
 4324SOL    HW115926   3.701   7.535   2.473 -0.1269 -0.7556 -0.1756
 4324SOL    HW215927   3.617   7.587   2.358  0.3010 -2.3942 -1.2587
 4325SOL     OW15928   4.371   3.016   6.092 -0.1239 -0.6390  0.4395
 4325SOL    HW115929   4.288   2.991   6.051  0.2478 -0.3696 -0.5126
 4325SOL    HW215930   4.345   3.070   6.167 -0.8578 -2.1030  1.2820
 4326SOL     OW15931   2.500   5.021   6.932  0.4572 -0.1562  0.0673
 4326SOL    HW115932   2.534   4.940   6.893  0.2377  0.1144 -0.6803
 4326SOL    HW215933   2.408   5.004   6.948  0.5048 -0.1991  0.3137
 4327SOL     OW15934   2.992   3.719   0.815 -0.1639 -0.8111 -0.1796
 4327SOL    HW115935   3.042   3.645   0.781 -2.3435 -3.5430  2.1178
 4327SOL    HW215936   3.003   3.713   0.910 -2.4879  0.2321  0.2073
 4328SOL     OW15937   3.139   4.125   1.072  0.4414  0.9745  0.5580
 4328SOL    HW115938   3.118   4.209   1.112 -2.8405  1.3734 -1.5970
 4328SOL    HW215939   3.086   4.061   1.120 -0.7265  0.9242 -0.7347
 4329SOL     OW15940   0.848   0.908   3.694  1.0382  0.1135  0.2951
 4329SOL    HW115941   0.929   0.892   3.646  1.0454 -0.4300  0.4807
 4329SOL    HW215942   0.789   0.949   3.631  0.9079 -0.9654 -0.3072
 4330SOL     OW15943   3.316   6.682   7.039  0.7932 -0.7911  0.6624
 4330SOL    HW115944   3.260   6.756   7.060  1.6972  0.6002 -1.5125
 4330SOL    HW215945   3.361   6.661   7.121  0.1961  0.7647  1.4133
 4331SOL     OW15946   1.967   3.757   4.864  0.2837  0.2208 -0.1266
 4331SOL    HW115947   1.987   3.821   4.933 -0.1932 -1.0217  1.2273
 4331SOL    HW215948   2.047   3.751   4.813  0.6243  1.2498  0.2629
 4332SOL     OW15949   6.323   7.033   4.418  0.2147 -0.2385 -0.5381
 4332SOL    HW115950   6.369   7.033   4.502  0.4174 -0.2044 -0.6468
 4332SOL    HW215951   6.344   6.949   4.379  0.2984 -0.1670 -0.6486
 4333SOL     OW15952   3.562   7.394   7.878 -0.0806  0.2664  0.4703
 4333SOL    HW115953   3.572   7.372   7.785 -0.1055  0.8574  0.3271
 4333SOL    HW215954   3.629   7.342   7.923 -1.5301 -1.8131  0.3915
 4334SOL     OW15955   8.002   5.622   1.237  0.5943 -0.4419  0.1880
 4334SOL    HW115956   8.064   5.677   1.189  1.0330  0.0679  1.3186
 4334SOL    HW215957   7.917   5.641   1.196  0.9745 -0.0910 -0.4490
 4335SOL     OW15958   7.058   1.270   7.753 -0.2335 -0.2527 -0.3426
 4335SOL    HW115959   7.046   1.176   7.761 -0.5045 -0.3657 -1.8205
 4335SOL    HW215960   7.150   1.280   7.726  0.2316  0.0230  1.2122
 4336SOL     OW15961   4.269   2.527   4.970  0.7646 -0.1797  0.9189
 4336SOL    HW115962   4.215   2.559   5.043 -0.0951  1.0524 -0.2064
 4336SOL    HW215963   4.306   2.444   5.001 -2.2463 -1.4010  1.5476
 4337SOL     OW15964   0.718   7.978   1.476  0.0910 -0.1066  0.1480
 4337SOL    HW115965   0.714   7.948   1.385 -0.3207  0.0570  0.1093
 4337SOL    HW215966   0.702   7.899   1.528  0.9933 -0.3309  0.1012
 4338SOL     OW15967   5.838   1.856   7.492 -0.4839 -0.1517  0.5629
 4338SOL    HW115968   5.780   1.871   7.566  0.1277  0.3285  0.9463
 4338SOL    HW215969   5.848   1.942   7.451 -0.2006 -0.2699  0.3817
 4339SOL     OW15970   3.638   2.033   3.675 -0.0539 -0.1734 -0.7067
 4339SOL    HW115971   3.576   2.012   3.745  2.5532 -1.0732  1.5083
 4339SOL    HW215972   3.679   2.115   3.702  1.0217 -0.5456 -1.1603
 4340SOL     OW15973   6.927   5.313   4.445  0.5324 -0.3492 -0.5309
 4340SOL    HW115974   6.845   5.360   4.431  0.4465 -0.5940 -0.8679
 4340SOL    HW215975   6.995   5.379   4.431  0.3831 -0.0131  0.3070
 4341SOL     OW15976   0.636   4.756   6.642 -0.4128  0.1854 -0.2379
 4341SOL    HW115977   0.561   4.703   6.669 -0.9212  1.2128  0.4131
 4341SOL    HW215978   0.702   4.742   6.710 -0.2959 -0.1113 -0.4089
 4342SOL     OW15979   7.355   3.860   0.113  0.2667  0.5046 -0.3218
 4342SOL    HW115980   7.365   3.770   0.083 -0.1115  1.0472 -2.2275
 4342SOL    HW215981   7.336   3.852   0.207 -0.5853 -1.4381 -0.6028
 4343SOL     OW15982   0.497   0.007   4.909 -0.5837 -0.0068 -0.5830
 4343SOL    HW115983   0.429  -0.014   4.973  0.1494  2.4070  1.1700
 4343SOL    HW215984   0.458   0.074   4.853  0.3055  1.5327  0.5535
 4344SOL     OW15985   5.445   7.313   3.907 -0.4372  0.5096  0.4776
 4344SOL    HW115986   5.350   7.325   3.912 -0.5946 -0.1317 -0.5205
 4344SOL    HW215987   5.462   7.232   3.955 -0.7854 -0.8503 -1.5506
 4345SOL     OW15988   5.068   2.222   6.831  0.0882  0.1273 -0.1785
 4345SOL    HW115989   5.123   2.291   6.869 -0.4669  0.2350  0.4538
 4345SOL    HW215990   5.029   2.262   6.754  0.0773  0.3928 -0.0366
 4346SOL     OW15991   2.832   1.240   1.440 -0.0881  0.0175  0.4541
 4346SOL    HW115992   2.755   1.206   1.486  0.1467 -1.1517  0.0042
 4346SOL    HW215993   2.898   1.251   1.509  0.2113 -1.5804  0.4556
 4347SOL     OW15994   0.785   3.596   0.528 -0.7281  0.1324  0.1031
 4347SOL    HW115995   0.709   3.622   0.580 -0.6900  2.5239 -0.8972
 4347SOL    HW215996   0.751   3.533   0.465 -2.0712  1.6123 -0.7197
 4348SOL     OW15997   6.748   6.032   0.462  0.0767 -0.1794 -0.3881
 4348SOL    HW115998   6.777   6.080   0.539  1.9955 -0.5306 -0.8253
 4348SOL    HW215999   6.660   6.001   0.484  0.3450  0.2243  1.4176
 4349SOL     OW16000   3.672   5.075   5.299  0.2367  0.5280  0.3949
 4349SOL    HW116001   3.680   5.125   5.380  1.4853  1.7430 -0.4464
 4349SOL    HW216002   3.604   5.120   5.249  0.5412  0.6964  0.1280
 4350SOL     OW16003   2.323   0.280   5.324  0.1448 -0.0386  0.2650
 4350SOL    HW116004   2.312   0.188   5.348  1.6395 -0.6080 -1.0673
 4350SOL    HW216005   2.405   0.282   5.274 -0.2112  1.9134 -0.3066
 4351SOL     OW16006   3.071   4.092   3.831  1.0796  0.0731 -0.1076
 4351SOL    HW116007   2.977   4.091   3.814  1.0210  2.4343 -0.3561
 4351SOL    HW216008   3.091   4.185   3.845  3.0289 -0.5828  1.9884
 4352SOL     OW16009   1.804   2.923   5.993 -0.6522  0.0362  0.9389
 4352SOL    HW116010   1.821   2.959   5.905 -0.5151 -1.2979  0.3983
 4352SOL    HW216011   1.802   3.000   6.050  2.7263  0.7553  0.3467
 4353SOL     OW16012   0.133   7.963   4.566 -0.2459 -0.3897 -0.0798
 4353SOL    HW116013   0.169   7.958   4.654  1.0589  0.0484 -0.5631
 4353SOL    HW216014   0.152   7.878   4.527  0.2924 -0.1598 -0.3337
 4354SOL     OW16015   3.605   0.827   7.663  0.0832  0.3212  0.0437
 4354SOL    HW116016   3.615   0.801   7.755  1.7561 -0.9224 -0.4421
 4354SOL    HW216017   3.511   0.841   7.653 -0.2874 -0.6344  1.6679
 4355SOL     OW16018   3.133   1.235   4.676 -0.3183 -0.2325 -0.8405
 4355SOL    HW116019   3.063   1.233   4.741 -0.1976  0.4724 -0.6794
 4355SOL    HW216020   3.090   1.262   4.595 -0.4232 -0.8639 -1.0001
 4356SOL     OW16021   7.122   2.777   6.223 -0.3162 -0.0321 -0.1093
 4356SOL    HW116022   7.175   2.712   6.269  1.3952  0.6004 -1.0970
 4356SOL    HW216023   7.140   2.859   6.270 -0.5012  0.1640 -0.3785
 4357SOL     OW16024   5.910   3.199   5.221  0.0657  0.4164 -0.1702
 4357SOL    HW116025   5.921   3.283   5.265 -0.6710  0.5099 -0.1616
 4357SOL    HW216026   5.842   3.215   5.155  0.2102 -0.0670 -0.4397
 4358SOL     OW16027   1.628   6.973   3.495  0.2499  0.5148  0.2096
 4358SOL    HW116028   1.656   6.891   3.455 -2.0472  0.1257 -0.7680
 4358SOL    HW216029   1.621   7.035   3.421  1.1716  1.3605  0.8140
 4359SOL     OW16030   1.499   6.765   1.699  0.1815  0.0673 -0.2884
 4359SOL    HW116031   1.411   6.773   1.735  0.7283  1.1503  0.8779
 4359SOL    HW216032   1.495   6.813   1.616  0.2340  2.2287  0.8772
 4360SOL     OW16033   2.551   7.597   3.678 -0.1185 -0.3718  0.4701
 4360SOL    HW116034   2.570   7.524   3.736 -0.1922 -0.2503  0.6476
 4360SOL    HW216035   2.466   7.629   3.707 -0.9213 -1.3195 -0.7205
 4361SOL     OW16036   2.704   6.316   2.047 -0.2738  0.0834 -0.1382
 4361SOL    HW116037   2.772   6.384   2.050  1.0364 -1.1819  0.1609
 4361SOL    HW216038   2.753   6.234   2.049 -1.8629 -0.8952  1.5126
 4362SOL     OW16039   7.365   6.550   6.894 -0.4853  0.0170  0.5027
 4362SOL    HW116040   7.276   6.555   6.928 -0.3520  1.2929  0.7164
 4362SOL    HW216041   7.366   6.612   6.821  0.2256  0.0151  0.5044
 4363SOL     OW16042   2.751   6.826   1.851 -0.3127  0.0712  0.8538
 4363SOL    HW116043   2.746   6.910   1.896  1.0342  1.6371 -1.6617
 4363SOL    HW216044   2.844   6.804   1.852 -0.1006  0.5361 -1.5932
 4364SOL     OW16045   3.998   1.848   5.814 -0.1467  0.4695  0.1856
 4364SOL    HW116046   3.965   1.770   5.768 -1.1633  1.0595 -0.1107
 4364SOL    HW216047   3.952   1.847   5.898 -0.0168  0.6521  0.2586
 4365SOL     OW16048   3.241   2.586   2.761  0.0680 -0.6935  0.3120
 4365SOL    HW116049   3.313   2.540   2.718 -0.9767 -1.1848 -0.9489
 4365SOL    HW216050   3.252   2.565   2.854 -0.0416 -3.0406 -0.1443
 4366SOL     OW16051   5.763   1.248   5.651  0.2798  0.8348 -0.3069
 4366SOL    HW116052   5.782   1.263   5.559 -0.7419  2.3403 -0.3205
 4366SOL    HW216053   5.842   1.208   5.686  0.0154 -1.5208 -2.1995
 4367SOL     OW16054   3.095   4.720   4.601  0.5518  0.4363  0.1740
 4367SOL    HW116055   3.177   4.767   4.588 -0.6363  2.0256 -2.2058
 4367SOL    HW216056   3.038   4.782   4.645 -0.2721  0.3799 -0.7890
 4368SOL     OW16057   7.044   1.302   6.859  0.3232 -0.8027  0.4200
 4368SOL    HW116058   6.992   1.221   6.864 -0.2574 -0.4904 -0.3573
 4368SOL    HW216059   6.991   1.361   6.805  0.8553  0.0155  0.7769
 4369SOL     OW16060   7.124   7.603   5.508  0.2887 -0.0195  0.0284
 4369SOL    HW116061   7.092   7.624   5.420  0.0392 -1.6256 -0.3043
 4369SOL    HW216062   7.219   7.603   5.498  0.2614 -0.2884 -0.2790
 4370SOL     OW16063   7.798   3.018   5.785 -0.4686  0.6881  0.2289
 4370SOL    HW116064   7.863   3.078   5.748 -1.1935  1.6107  0.4109
 4370SOL    HW216065   7.747   2.990   5.709  0.0910  0.0176  0.0956
 4371SOL     OW16066   5.764   2.493   7.898 -0.1557 -0.0379 -0.0967
 4371SOL    HW116067   5.800   2.560   7.957  0.2540 -1.2140  1.0266
 4371SOL    HW216068   5.702   2.445   7.952 -0.1732 -0.8004 -0.7810
 4372SOL     OW16069   2.887   3.798   2.318 -0.4391  0.3496 -0.0960
 4372SOL    HW116070   2.971   3.753   2.327  0.2039  1.4464 -0.4034
 4372SOL    HW216071   2.872   3.837   2.404 -0.9447 -0.3374  0.1389
 4373SOL     OW16072   1.949   7.328   1.734 -0.1611 -0.1108  0.6072
 4373SOL    HW116073   2.026   7.380   1.714 -0.0658 -0.5281 -0.1468
 4373SOL    HW216074   1.929   7.282   1.652 -0.2255 -1.2736  1.2537
 4374SOL     OW16075   1.531   3.241   4.532  0.2140 -0.4886  0.0394
 4374SOL    HW116076   1.605   3.204   4.580 -0.2562 -1.1986  0.2358
 4374SOL    HW216077   1.479   3.165   4.507  0.6986 -0.1902 -2.0471
 4375SOL     OW16078   0.101   0.122   4.686  0.1613 -0.4612  0.0180
 4375SOL    HW116079   0.147   0.069   4.621  0.5062  1.0454 -1.0140
 4375SOL    HW216080   0.009   0.100   4.674  0.2901 -0.7736 -0.4314
 4376SOL     OW16081   5.583   1.727   5.014 -0.0404  0.3769 -0.6287
 4376SOL    HW116082   5.530   1.680   5.078  0.0139 -0.0439 -0.8911
 4376SOL    HW216083   5.625   1.797   5.064 -0.3094  0.2948 -0.2865
 4377SOL     OW16084   7.260   0.027   7.202 -0.2071 -0.2347  0.4266
 4377SOL    HW116085   7.230   0.016   7.112 -0.5994  2.0116  0.2242
 4377SOL    HW216086   7.181   0.048   7.251  0.0603 -1.0761  1.2386
 4378SOL     OW16087   7.045   4.203   6.091  0.4974  0.4159 -0.6987
 4378SOL    HW116088   7.055   4.192   6.186 -1.5190 -1.2624 -0.6189
 4378SOL    HW216089   6.989   4.280   6.082 -0.3829 -0.1935 -0.4643
 4379SOL     OW16090   5.537   5.570   1.910  0.4977 -0.2223 -0.1114
 4379SOL    HW116091   5.466   5.518   1.947 -0.4056 -0.2592 -1.8016
 4379SOL    HW216092   5.615   5.542   1.957 -0.3845 -1.2308  0.7882
 4380SOL     OW16093   1.663   7.314   7.060  0.5448  0.5053 -0.3482
 4380SOL    HW116094   1.657   7.284   6.969 -1.0148 -1.6529  0.3761
 4380SOL    HW216095   1.737   7.266   7.097  0.9928  1.1596 -0.3638
 4381SOL     OW16096   0.580   4.061   0.938  0.4600  0.2908  0.0684
 4381SOL    HW116097   0.559   3.974   0.904  0.7066  0.0035  0.6411
 4381SOL    HW216098   0.628   4.045   1.019  1.2307  0.9558 -0.2405
 4382SOL     OW16099   4.628   1.569   2.734  0.1931  0.5166  0.1435
 4382SOL    HW116100   4.691   1.578   2.662 -1.8466  0.1124 -1.8173
 4382SOL    HW216101   4.573   1.647   2.726 -0.3992  0.1794  0.9236
 4383SOL     OW16102   1.941   1.548   7.329  0.3731  0.1142 -0.6892
 4383SOL    HW116103   1.903   1.516   7.411 -2.7077 -0.7169 -2.2954
 4383SOL    HW216104   1.988   1.473   7.293 -0.4538 -0.3290 -0.8680
 4384SOL     OW16105   4.962   1.532   4.810  0.5518 -0.6716  0.2265
 4384SOL    HW116106   4.961   1.567   4.899  0.3335  1.4794 -0.5709
 4384SOL    HW216107   4.877   1.557   4.774  1.0213 -0.6479 -0.8984
 4385SOL     OW16108   3.132   6.200   4.928  0.2484 -0.4004  0.0144
 4385SOL    HW116109   3.215   6.227   4.969  0.4895 -0.2160 -0.5847
 4385SOL    HW216110   3.080   6.165   5.000  0.4162  0.5141  0.5889
 4386SOL     OW16111   3.304   1.669   0.566  0.0711 -0.0499  0.3588
 4386SOL    HW116112   3.378   1.683   0.625  0.2897 -0.7718  0.2614
 4386SOL    HW216113   3.227   1.684   0.621  0.2768  1.6437  0.2305
 4387SOL     OW16114   4.428   4.556   6.870  0.5657  0.0841 -1.0435
 4387SOL    HW116115   4.386   4.603   6.941  0.6975 -0.0342 -0.8868
 4387SOL    HW216116   4.392   4.594   6.790  0.1232 -0.0512 -0.9078
 4388SOL     OW16117   1.883   3.809   7.975 -0.1386 -0.1893  0.1380
 4388SOL    HW116118   1.817   3.781   8.039  0.0166  2.2597  1.4649
 4388SOL    HW216119   1.867   3.752   7.899 -1.6214 -1.8668  1.5965
 4389SOL     OW16120   2.790   5.199   0.013 -0.3110 -0.0501  0.0950
 4389SOL    HW116121   2.757   5.286   0.037 -1.2997 -0.3827 -0.0251
 4389SOL    HW216122   2.771   5.145   0.090 -0.7549 -0.4230 -0.2702
 4390SOL     OW16123   3.385   4.697   3.043 -0.8046  0.1018  0.7892
 4390SOL    HW116124   3.379   4.627   3.107  0.7606 -0.1028  0.7527
 4390SOL    HW216125   3.344   4.661   2.964  0.4349 -0.9960  0.6097
 4391SOL     OW16126   3.848   7.969   3.342  0.1932 -0.3333 -0.2819
 4391SOL    HW116127   3.901   7.935   3.415 -0.1132 -1.0949 -0.4042
 4391SOL    HW216128   3.891   8.050   3.317  0.0799  0.1593  1.0200
 4392SOL     OW16129   5.334   7.239   6.098  0.4896  0.5933 -0.3120
 4392SOL    HW116130   5.393   7.314   6.109  0.3539  0.7174 -0.4215
 4392SOL    HW216131   5.246   7.275   6.116  0.3679  0.5813 -0.8743
 4393SOL     OW16132   2.192   5.783   7.889  1.1492  0.5993 -0.3688
 4393SOL    HW116133   2.229   5.722   7.953  1.4509 -0.6145 -1.6554
 4393SOL    HW216134   2.245   5.862   7.898  1.7422  0.1398  0.2761
 4394SOL     OW16135   4.254   3.543   3.489  0.1072  0.7217  0.1714
 4394SOL    HW116136   4.190   3.591   3.436 -0.5160  1.9071  1.9115
 4394SOL    HW216137   4.220   3.549   3.578  1.3639 -0.8077  0.7878
 4395SOL     OW16138   5.816   1.590   2.458 -0.2183  0.1133  0.4836
 4395SOL    HW116139   5.799   1.577   2.551  0.3666 -0.5282  0.5098
 4395SOL    HW216140   5.791   1.681   2.441 -0.7557  0.0973  1.1652
 4396SOL     OW16141   4.354   3.007   6.916 -0.1819  0.0774 -0.1190
 4396SOL    HW116142   4.264   2.978   6.928  0.2830 -1.9549 -1.1150
 4396SOL    HW216143   4.349   3.070   6.844 -0.6288 -1.3512 -1.3940
 4397SOL     OW16144   6.399   5.183   7.446  0.2840 -0.2433 -0.0420
 4397SOL    HW116145   6.450   5.208   7.369 -0.0507  0.3928 -0.0610
 4397SOL    HW216146   6.434   5.238   7.517  0.2859 -0.5069  0.1642
 4398SOL     OW16147   7.232   0.586   0.869  0.4483  0.3752 -0.4682
 4398SOL    HW116148   7.237   0.491   0.875 -1.6968  0.2978  0.9620
 4398SOL    HW216149   7.243   0.617   0.959  2.2770  1.6128 -1.0518
 4399SOL     OW16150   1.977   7.790   3.331 -0.0089  0.7169  0.2171
 4399SOL    HW116151   1.980   7.832   3.417 -0.2531  0.3172  0.4236
 4399SOL    HW216152   2.012   7.702   3.345 -0.0791  0.6384 -0.0841
 4400SOL     OW16153   5.827   6.847   3.296 -0.0329  0.2701 -0.1448
 4400SOL    HW116154   5.824   6.906   3.220  2.1265  0.3576 -0.2237
 4400SOL    HW216155   5.867   6.767   3.261 -2.7308 -1.2428  0.0070
 4401SOL     OW16156   5.331   5.425   2.613 -0.0791  0.6795  0.0774
 4401SOL    HW116157   5.254   5.456   2.660 -0.3167  0.7460 -0.3469
 4401SOL    HW216158   5.386   5.503   2.604  0.0868  0.6100  0.4689
 4402SOL     OW16159   0.337   5.835   7.764  0.4942 -0.2987 -0.1713
 4402SOL    HW116160   0.313   5.773   7.696 -0.1230  0.7566 -0.9520
 4402SOL    HW216161   0.262   5.835   7.824  1.4110 -1.8843  1.0295
 4403SOL     OW16162   7.176   5.812   3.665  0.4298  0.0299 -0.1836
 4403SOL    HW116163   7.245   5.756   3.629  0.8459  0.2919  0.1825
 4403SOL    HW216164   7.194   5.898   3.628  2.6961  1.0348  2.8436
 4404SOL     OW16165   6.509   6.869   3.940  0.1273 -0.3895 -0.5474
 4404SOL    HW116166   6.601   6.850   3.927  0.2902 -2.0701  2.1380
 4404SOL    HW216167   6.479   6.799   3.999 -2.2372  1.4770  0.6243
 4405SOL     OW16168   7.226   0.785   7.628  0.1420 -0.0953  0.3971
 4405SOL    HW116169   7.252   0.877   7.618 -1.8781  0.2800 -2.5822
 4405SOL    HW216170   7.293   0.736   7.580  1.1805 -0.2499  1.9273
 4406SOL     OW16171   2.228   6.943   1.544  0.0317  0.0638 -0.2148
 4406SOL    HW116172   2.262   7.013   1.600 -1.4234  0.4317  0.2538
 4406SOL    HW216173   2.305   6.892   1.520  0.8796  0.7177  1.0010
 4407SOL     OW16174   0.975   6.888   6.031 -0.4494 -0.6083 -0.2650
 4407SOL    HW116175   1.060   6.928   6.009 -0.6404 -0.9630 -1.8038
 4407SOL    HW216176   0.937   6.866   5.946 -2.2291 -0.1913  0.3859
 4408SOL     OW16177   2.865   0.060   7.073  0.1012 -0.5409  0.0492
 4408SOL    HW116178   2.823   0.090   7.155 -0.3384  0.3729 -0.4910
 4408SOL    HW216179   2.944   0.114   7.066  0.4511 -1.0359  0.1711
 4409SOL     OW16180   1.209   0.557   1.727  0.1912  0.6104 -0.4476
 4409SOL    HW116181   1.169   0.599   1.803  0.8872  1.1438 -0.3538
 4409SOL    HW216182   1.281   0.617   1.703  0.8048 -0.2162 -0.7053
 4410SOL     OW16183   2.760   0.831   7.724 -0.5684  0.5938  0.2631
 4410SOL    HW116184   2.836   0.888   7.728 -0.7134  0.8424 -0.5404
 4410SOL    HW216185   2.733   0.821   7.816  1.3392 -0.7412  0.7440
 4411SOL     OW16186   2.274   2.835   4.587 -0.2985 -0.3181 -0.2086
 4411SOL    HW116187   2.207   2.770   4.567 -1.0891  0.1163  0.9045
 4411SOL    HW216188   2.262   2.854   4.680  3.3692 -2.4732  0.8933
 4412SOL     OW16189   1.623   7.443   1.702 -0.0949  0.2525 -0.4425
 4412SOL    HW116190   1.595   7.436   1.611 -2.0602 -1.7453  0.2198
 4412SOL    HW216191   1.564   7.508   1.740  0.2812  0.5945 -0.4421
 4413SOL     OW16192   2.402   7.872   6.015 -0.5990  0.2232  0.4304
 4413SOL    HW116193   2.470   7.805   6.026 -0.7766 -0.0596 -0.1263
 4413SOL    HW216194   2.432   7.923   5.939 -1.0903 -0.0149  0.0707
 4414SOL     OW16195   6.038   5.967   3.274  0.0971  0.2324  0.1543
 4414SOL    HW116196   6.017   5.875   3.263  1.0378  0.0933 -0.5745
 4414SOL    HW216197   6.117   5.968   3.327 -0.6515  0.6834  1.2988
 4415SOL     OW16198   3.378   3.055   5.819  0.0648 -0.3679 -0.0969
 4415SOL    HW116199   3.430   3.053   5.738  1.2227  0.6528  0.5879
 4415SOL    HW216200   3.396   3.141   5.857 -0.5764 -0.7707  1.1849
 4416SOL     OW16201   7.622   1.049   5.672  0.3636 -0.1229 -0.1072
 4416SOL    HW116202   7.678   0.981   5.710  1.1853  0.6697  0.1436
 4416SOL    HW216203   7.665   1.132   5.697 -0.1073  0.4635 -1.1755
 4417SOL     OW16204   3.628   5.759   5.778  0.1509 -0.2123 -0.2716
 4417SOL    HW116205   3.549   5.750   5.830  0.4746 -1.1336  0.0819
 4417SOL    HW216206   3.690   5.697   5.817  0.2690 -1.2522 -2.0110
 4418SOL     OW16207   5.233   3.292   4.650 -0.5119 -0.0463 -0.3227
 4418SOL    HW116208   5.276   3.263   4.570 -1.7865 -1.5549 -0.4885
 4418SOL    HW216209   5.235   3.216   4.708 -0.4358  0.7404  0.7438
 4419SOL     OW16210   6.516   4.052   0.109 -0.1539  0.1945  0.5125
 4419SOL    HW116211   6.518   4.118   0.179  0.7361 -1.1222  1.7948
 4419SOL    HW216212   6.558   3.975   0.148  0.2893 -0.6189 -1.4570
 4420SOL     OW16213   6.651   1.594   7.720  0.2954  0.7278 -0.0613
 4420SOL    HW116214   6.631   1.656   7.790 -0.9540  1.1563 -0.7447
 4420SOL    HW216215   6.638   1.645   7.640 -1.1751 -0.4857 -0.6582
 4421SOL     OW16216   5.903   1.487   6.606  0.4128 -0.1044  0.3671
 4421SOL    HW116217   5.932   1.562   6.553  0.7295 -1.0341 -0.8038
 4421SOL    HW216218   5.884   1.418   6.542 -0.1830 -0.9344  1.4072
 4422SOL     OW16219   0.693   2.703   1.597 -0.2071  0.0560  0.3119
 4422SOL    HW116220   0.773   2.743   1.563 -0.9145  0.7362 -0.5781
 4422SOL    HW216221   0.634   2.776   1.613 -0.5977 -0.4281  1.1437
 4423SOL     OW16222   0.539   7.226   5.277 -0.3311  0.0326 -0.1594
 4423SOL    HW116223   0.630   7.222   5.306  1.6894  0.4489 -5.3434
 4423SOL    HW216224   0.510   7.134   5.275  0.2642 -0.1822  0.6716
 4424SOL     OW16225   5.564   3.606   3.780 -0.6497  0.3696 -0.0450
 4424SOL    HW116226   5.497   3.627   3.844 -0.6676 -0.8686  0.3665
 4424SOL    HW216227   5.607   3.689   3.762 -2.7487  1.3269 -0.8672
 4425SOL     OW16228   6.146   2.495   5.447  0.3061 -0.1137  0.0866
 4425SOL    HW116229   6.147   2.487   5.542 -0.7118  1.5800  0.2640
 4425SOL    HW216230   6.058   2.526   5.426  0.4556 -0.6310 -1.4375
 4426SOL     OW16231   7.251   0.523   0.562  0.1553  0.1480  0.1378
 4426SOL    HW116232   7.205   0.450   0.605 -0.5490  1.7403  2.2356
 4426SOL    HW216233   7.182   0.586   0.541  0.9177  0.8484 -0.3253
 4427SOL     OW16234   4.630   3.870   6.111  0.2082 -0.4281 -0.3800
 4427SOL    HW116235   4.558   3.859   6.049 -1.5946  0.7581  1.3962
 4427SOL    HW216236   4.594   3.841   6.195  1.2128  1.7307  0.8839
 4428SOL     OW16237   2.708   3.374   0.880 -0.1281 -0.5609 -0.3722
 4428SOL    HW116238   2.750   3.374   0.794 -0.6466  0.0837 -0.6344
 4428SOL    HW216239   2.718   3.464   0.911 -0.0706 -0.7556  0.1838
 4429SOL     OW16240   1.245   1.662   3.491 -0.0071 -0.0744  0.4217
 4429SOL    HW116241   1.226   1.753   3.513 -0.4855  0.1529 -0.8515
 4429SOL    HW216242   1.306   1.633   3.558 -1.5000  0.5111  2.1193
 4430SOL     OW16243   2.087   4.495   0.062 -0.2582  0.4947  0.3295
 4430SOL    HW116244   2.032   4.427   0.101 -1.5892  0.5599 -1.3063
 4430SOL    HW216245   2.156   4.510   0.126 -0.6800 -1.4565  1.3057
 4431SOL     OW16246   3.115   5.844   6.756  0.1320 -0.4332 -0.7719
 4431SOL    HW116247   3.120   5.845   6.661 -1.4088  1.3233 -0.8895
 4431SOL    HW216248   3.204   5.821   6.784  1.2396  1.2261 -2.6334
 4432SOL     OW16249   3.807   7.847   5.431  0.6887 -0.0790 -0.1299
 4432SOL    HW116250   3.851   7.802   5.502  1.2688  0.4786 -0.1282
 4432SOL    HW216251   3.839   7.805   5.351  3.3374  2.0138 -0.3095
 4433SOL     OW16252   5.806   4.465   6.432 -0.0649  0.2306  0.2813
 4433SOL    HW116253   5.776   4.375   6.435  1.1816 -0.3317 -2.0425
 4433SOL    HW216254   5.727   4.518   6.419 -0.4391 -0.9450 -2.8477
 4434SOL     OW16255   2.826   1.490   6.103 -0.0376  0.1517 -0.1165
 4434SOL    HW116256   2.788   1.407   6.131 -1.1708  1.0387  1.0697
 4434SOL    HW216257   2.790   1.505   6.015 -1.6545  0.4561  0.5587
 4435SOL     OW16258   0.784   3.245   0.578 -0.3210  0.2423 -0.4935
 4435SOL    HW116259   0.762   3.154   0.560  1.0319 -0.0482 -0.8136
 4435SOL    HW216260   0.847   3.268   0.510 -1.7122  1.8889 -1.3014
 4436SOL     OW16261   5.227   2.703   7.701  0.0827  0.4641 -0.0485
 4436SOL    HW116262   5.317   2.733   7.716  0.2356 -0.2647  0.5477
 4436SOL    HW216263   5.221   2.621   7.749 -0.8764  0.4539 -0.1716
 4437SOL     OW16264   3.306   4.780   7.379 -0.7695  0.4927  0.2272
 4437SOL    HW116265   3.282   4.736   7.297 -2.0875  1.4011  0.0869
 4437SOL    HW216266   3.222   4.798   7.422 -0.0934 -0.0342  1.8310
 4438SOL     OW16267   2.206   5.634   0.105 -0.2013 -0.4269 -0.3213
 4438SOL    HW116268   2.132   5.573   0.099 -0.6880 -0.7831  4.7488
 4438SOL    HW216269   2.283   5.578   0.096 -0.6014 -0.9910 -0.3182
 4439SOL     OW16270   1.344   5.906   2.348  0.3425 -0.5972  0.4733
 4439SOL    HW116271   1.331   5.904   2.443 -1.6007  1.8197  0.3719
 4439SOL    HW216272   1.422   5.960   2.336 -0.1161  0.1476  0.7207
 4440SOL     OW16273   0.044   4.362   4.258  0.1518  0.2224 -0.6141
 4440SOL    HW116274  -0.033   4.377   4.313 -0.5044  0.0082 -1.4512
 4440SOL    HW216275   0.073   4.274   4.282 -0.6064 -0.1845 -1.1676
 4441SOL     OW16276   0.940   0.343   5.281  0.9289  0.6818 -0.2755
 4441SOL    HW116277   0.916   0.250   5.276 -0.2819  0.9001  0.8729
 4441SOL    HW216278   0.918   0.378   5.194 -2.3903  0.6910  0.4414
 4442SOL     OW16279   8.092   0.405   0.047  0.4979  0.2248 -0.4146
 4442SOL    HW116280   8.119   0.333  -0.010 -1.1232  0.7476 -1.9290
 4442SOL    HW216281   7.997   0.410   0.036  0.4025  1.6126  0.8419
 4443SOL     OW16282   4.629   4.024   0.013 -0.0872 -0.6967 -0.0716
 4443SOL    HW116283   4.539   4.002  -0.013 -0.1857  0.2697 -0.5825
 4443SOL    HW216284   4.621   4.052   0.104 -0.7333  1.7552 -0.8134
 4444SOL     OW16285   1.496   4.871   7.722  0.0988  0.0030 -0.2882
 4444SOL    HW116286   1.417   4.837   7.765 -0.5312  2.5115  0.7026
 4444SOL    HW216287   1.465   4.903   7.637  0.4794 -0.8289 -0.7564
 4445SOL     OW16288   0.558   6.152   6.851 -0.3871  0.0036  0.5194
 4445SOL    HW116289   0.538   6.069   6.895  0.2560 -0.5804 -0.2574
 4445SOL    HW216290   0.479   6.204   6.862 -0.9634 -0.8744  0.6690
 4446SOL     OW16291   0.774   3.740   3.819  0.1695 -0.3715 -0.9045
 4446SOL    HW116292   0.740   3.755   3.907 -0.0816 -1.5293 -0.7844
 4446SOL    HW216293   0.747   3.817   3.768  0.3952  0.3469  0.0435
 4447SOL     OW16294   8.067   1.229   0.221  0.0660  0.1292 -0.5257
 4447SOL    HW116295   8.004   1.302   0.224  0.0661  0.1334 -0.6382
 4447SOL    HW216296   8.150   1.271   0.199  0.4219  0.3387  1.0573
 4448SOL     OW16297   4.092   4.548   3.276  0.2488  0.2856 -0.6734
 4448SOL    HW116298   4.143   4.629   3.277  1.3731 -0.4038 -0.4253
 4448SOL    HW216299   4.033   4.555   3.351 -0.1961  1.2002 -1.1012
 4449SOL     OW16300   2.327   2.362   0.334  0.7622  0.1916  0.3359
 4449SOL    HW116301   2.411   2.367   0.380  1.2290  0.1163 -0.4891
 4449SOL    HW216302   2.347   2.318   0.252 -0.0725  0.2567  0.0854
 4450SOL     OW16303   5.563   7.683   7.545 -0.1430 -0.2549  0.1100
 4450SOL    HW116304   5.556   7.700   7.451  0.1449 -0.1213  0.1104
 4450SOL    HW216305   5.475   7.659   7.572 -0.3486  0.2775 -0.0818
 4451SOL     OW16306   6.216   5.559   0.651  0.3982  0.3138  0.4358
 4451SOL    HW116307   6.245   5.469   0.640 -0.2229  0.1419  0.1578
 4451SOL    HW216308   6.294   5.607   0.678  0.7353 -0.3017  0.5544
 4452SOL     OW16309   6.544   7.778   3.655 -0.6103 -0.0035 -0.1578
 4452SOL    HW116310   6.610   7.765   3.586 -2.5568  1.0407 -2.3297
 4452SOL    HW216311   6.465   7.738   3.620 -1.9105  1.4076  1.0451
 4453SOL     OW16312   4.762   1.054   5.036 -0.4120  0.4732  0.2206
 4453SOL    HW116313   4.793   1.143   5.052  3.2575 -0.9162  1.9214
 4453SOL    HW216314   4.703   1.036   5.110 -0.1758  1.0737  0.5685
 4454SOL     OW16315   1.145   5.129   2.567 -0.4963  0.1675  0.4165
 4454SOL    HW116316   1.211   5.060   2.559 -0.4813  0.1197  0.8885
 4454SOL    HW216317   1.178   5.186   2.637 -1.2900 -0.2459  1.1466
 4455SOL     OW16318   1.822   1.803   0.847  0.3628 -0.1093 -0.1863
 4455SOL    HW116319   1.829   1.861   0.923 -0.4524  0.1614 -0.3075
 4455SOL    HW216320   1.751   1.841   0.795  0.9804 -0.2371 -1.1363
 4456SOL     OW16321   3.190   6.757   0.767 -0.0271 -0.8083 -0.5008
 4456SOL    HW116322   3.214   6.680   0.715  0.3087 -0.5965 -0.6637
 4456SOL    HW216323   3.174   6.825   0.702  0.5436 -0.4997 -0.3172
 4457SOL     OW16324   4.872   1.292   2.593 -0.0954 -0.4118  0.2148
 4457SOL    HW116325   4.792   1.344   2.589 -1.0187 -1.8184 -0.8385
 4457SOL    HW216326   4.940   1.350   2.560 -1.2015 -0.0287 -1.5204
 4458SOL     OW16327   1.470   6.116   4.807  0.2327 -0.1078 -0.8230
 4458SOL    HW116328   1.405   6.186   4.807  0.0845 -0.2399 -1.4079
 4458SOL    HW216329   1.491   6.103   4.714 -0.1888 -1.2581 -0.7678
 4459SOL     OW16330   3.966   1.960   1.843  0.3723  0.1429 -0.3397
 4459SOL    HW116331   4.009   1.927   1.764 -0.1943  0.1814 -0.6698
 4459SOL    HW216332   4.032   1.953   1.911  0.1166 -2.2653 -0.2301
 4460SOL     OW16333   5.328   5.357   4.049 -0.0706  0.0506  0.2233
 4460SOL    HW116334   5.405   5.326   4.095 -1.0513  0.2977  2.1198
 4460SOL    HW216335   5.353   5.444   4.017  1.0428 -0.6374 -0.8798
 4461SOL     OW16336   0.738   7.822   3.858  0.4589  0.2976  0.3505
 4461SOL    HW116337   0.821   7.832   3.905  0.2052  0.8335  0.6972
 4461SOL    HW216338   0.746   7.738   3.812  0.8303 -0.1082  1.1261
 4462SOL     OW16339   7.328   5.945   0.725  0.3889  0.0132  0.2478
 4462SOL    HW116340   7.386   6.018   0.700  0.6389 -0.0665  0.5868
 4462SOL    HW216341   7.263   5.986   0.783  1.3235 -0.2714  1.5346
 4463SOL     OW16342   7.462   7.012   7.600 -0.8107 -0.0698  0.2493
 4463SOL    HW116343   7.493   6.922   7.588  1.1364  0.0987  2.9473
 4463SOL    HW216344   7.450   7.045   7.511 -1.9336 -3.0437 -0.8378
 4464SOL     OW16345   1.426   6.901   3.042  0.1760 -0.1925 -0.0002
 4464SOL    HW116346   1.420   6.974   2.979 -2.0370  0.1328  0.5085
 4464SOL    HW216347   1.500   6.925   3.098  0.3086  1.0152 -0.6431
 4465SOL     OW16348   2.536   5.917   2.135 -0.1988 -0.0669  0.0516
 4465SOL    HW116349   2.462   5.977   2.126 -1.1316 -1.3850 -2.2895
 4465SOL    HW216350   2.557   5.893   2.044  1.3462 -1.7909  0.8129
 4466SOL     OW16351   0.905   7.660   1.014 -0.2788 -0.4277  0.3081
 4466SOL    HW116352   0.921   7.750   0.985 -0.8385 -0.8144 -1.3419
 4466SOL    HW216353   0.991   7.618   1.011 -0.0744 -0.0448  0.7329
 4467SOL     OW16354   6.822   1.066   6.176 -0.3437 -0.2903  0.6955
 4467SOL    HW116355   6.780   1.150   6.154 -0.5494  0.4125  3.3766
 4467SOL    HW216356   6.914   1.079   6.155 -0.0662  1.2888  2.6330
 4468SOL     OW16357   4.508   5.216   0.040  0.1813  0.4581 -0.7659
 4468SOL    HW116358   4.430   5.241   0.090  0.6684 -0.0985  0.3045
 4468SOL    HW216359   4.532   5.295  -0.008  0.2169  1.2916  0.5792
 4469SOL     OW16360   1.359   7.268   5.354  0.0611 -0.6511  0.2581
 4469SOL    HW116361   1.297   7.263   5.281 -0.8306  0.1895  0.9347
 4469SOL    HW216362   1.312   7.228   5.428  1.0494 -1.7250  0.3331
 4470SOL     OW16363   2.703   4.832   1.518  0.1973  0.4428 -0.1488
 4470SOL    HW116364   2.768   4.821   1.588  1.5004 -2.8560 -1.7178
 4470SOL    HW216365   2.620   4.848   1.565  1.4290  0.8891  2.0117
 4471SOL     OW16366   0.784   3.427   5.913  0.2141  0.0566  0.1601
 4471SOL    HW116367   0.798   3.420   5.819 -0.1746 -1.4116  0.1829
 4471SOL    HW216368   0.871   3.417   5.951  0.3446  0.4361 -0.0442
 4472SOL     OW16369   1.578   5.393   4.102  0.7092  0.0112 -0.5771
 4472SOL    HW116370   1.608   5.455   4.035 -0.9329 -0.2635 -1.6195
 4472SOL    HW216371   1.532   5.325   4.053 -1.9333  0.6084  0.9200
 4473SOL     OW16372   4.640   6.566   2.160 -0.5353  0.1652 -0.4146
 4473SOL    HW116373   4.638   6.568   2.256 -0.4140 -0.9573 -0.3734
 4473SOL    HW216374   4.561   6.518   2.135 -0.0232 -0.4793 -0.8281
 4474SOL     OW16375   1.394   5.019   5.685 -0.3307 -1.3689  0.2605
 4474SOL    HW116376   1.463   5.023   5.750  1.6073 -0.4206 -1.7311
 4474SOL    HW216377   1.435   4.980   5.608 -1.2800  1.3771 -1.7721
 4475SOL     OW16378   4.154   1.263   5.136 -0.1425  0.5920  0.2638
 4475SOL    HW116379   4.228   1.324   5.129 -1.6234  2.3181 -1.4755
 4475SOL    HW216380   4.187   1.181   5.100  1.8753  0.3046  2.5653
 4476SOL     OW16381   1.072   4.046   1.505  0.1546 -0.9202  0.3434
 4476SOL    HW116382   1.105   3.998   1.429  0.6038 -0.8289  0.4816
 4476SOL    HW216383   1.116   4.007   1.580  1.7115  0.7052  0.3394
 4477SOL     OW16384   5.380   0.426   3.301  0.3496 -0.2448 -0.1968
 4477SOL    HW116385   5.324   0.461   3.370 -2.0490 -1.8484 -1.2222
 4477SOL    HW216386   5.370   0.488   3.228  0.4636 -0.1843 -0.1624
 4478SOL     OW16387   5.648   6.091   0.161  0.6578 -0.2778 -0.2646
 4478SOL    HW116388   5.620   6.162   0.219 -0.8429 -0.7207 -0.3875
 4478SOL    HW216389   5.620   6.011   0.206  0.2840 -0.6645 -1.1534
 4479SOL     OW16390   2.409   4.144   5.008 -0.5579  0.2288  0.5076
 4479SOL    HW116391   2.476   4.089   5.048  0.0873  0.0408 -0.7721
 4479SOL    HW216392   2.455   4.192   4.939 -1.2939  1.7539  1.0337
 4480SOL     OW16393   4.740   3.229   4.433 -0.0621 -0.0390 -0.3447
 4480SOL    HW116394   4.788   3.208   4.513  0.0445 -0.4293 -0.5152
 4480SOL    HW216395   4.749   3.152   4.377  0.5298  0.5304 -1.0622
 4481SOL     OW16396   3.665   4.803   5.213  0.4996  0.6262  0.4348
 4481SOL    HW116397   3.670   4.898   5.223  2.3993  0.7068 -0.6804
 4481SOL    HW216398   3.751   4.778   5.178 -0.4499 -1.3218 -0.7092
 4482SOL     OW16399   4.284   1.874   6.624  0.2905  0.1874  0.2460
 4482SOL    HW116400   4.356   1.813   6.607  0.9201  0.6567  1.1066
 4482SOL    HW216401   4.229   1.828   6.688 -0.0298 -0.0556 -0.1979
 4483SOL     OW16402   2.988   2.643   6.833  0.3220 -0.3017  0.3105
 4483SOL    HW116403   2.988   2.556   6.872  0.3611 -1.1833 -1.5658
 4483SOL    HW216404   3.079   2.660   6.809  0.5225  0.7737  1.6519
 4484SOL     OW16405   6.665   2.840   6.901 -0.2302 -0.6713  0.4411
 4484SOL    HW116406   6.604   2.813   6.833  0.4263  0.6053 -0.7012
 4484SOL    HW216407   6.627   2.919   6.938  1.1697  0.7622 -1.0208
 4485SOL     OW16408   3.705   7.792   6.192 -0.0939 -0.6634 -0.3961
 4485SOL    HW116409   3.762   7.772   6.266 -0.4022 -1.3767 -0.3461
 4485SOL    HW216410   3.620   7.808   6.231 -0.4100 -1.6769 -0.6368
 4486SOL     OW16411   1.342   2.493   7.996 -0.6117  0.4035 -0.4143
 4486SOL    HW116412   1.424   2.458   8.031 -1.0049 -0.1697 -0.0525
 4486SOL    HW216413   1.298   2.531   8.072 -1.4678 -0.8486 -0.2575
 4487SOL     OW16414   6.159   2.683   5.740 -0.5217  0.5695 -0.3559
 4487SOL    HW116415   6.246   2.679   5.780 -0.7198  2.3207  0.3793
 4487SOL    HW216416   6.149   2.775   5.714 -1.5391  0.0584 -1.8726
 4488SOL     OW16417   5.454   6.379   7.660 -0.2371  0.2102  0.3187
 4488SOL    HW116418   5.531   6.353   7.611  0.5026 -0.2685  1.6719
 4488SOL    HW216419   5.380   6.353   7.604  0.5195 -2.1361  0.2815
 4489SOL     OW16420   6.609   5.561   7.442 -0.0167  0.5336 -0.6059
 4489SOL    HW116421   6.593   5.577   7.535 -0.7567 -0.8217 -0.4588
 4489SOL    HW216422   6.681   5.619   7.419 -1.2131  2.4850  0.2764
 4490SOL     OW16423   4.752   6.763   6.532  0.8597  0.5736 -0.7859
 4490SOL    HW116424   4.753   6.761   6.437 -1.1720  2.6279 -0.9512
 4490SOL    HW216425   4.837   6.799   6.557  1.2378  0.4387 -1.8381
 4491SOL     OW16426   3.694   7.109   4.863  0.3168 -0.2521 -0.3066
 4491SOL    HW116427   3.768   7.048   4.861 -0.0669 -0.8292  1.4435
 4491SOL    HW216428   3.682   7.136   4.772  1.9040 -1.0812 -0.7873
 4492SOL     OW16429   4.860   1.231   3.093 -0.4471  0.4289 -0.0213
 4492SOL    HW116430   4.932   1.251   3.033  0.3880  0.0139  0.8141
 4492SOL    HW216431   4.787   1.208   3.036  0.5089 -0.5805 -0.8857
 4493SOL     OW16432   4.823   5.458   4.052  0.6860  0.1014 -0.0932
 4493SOL    HW116433   4.815   5.454   3.956  2.6779 -0.7462 -0.2533
 4493SOL    HW216434   4.810   5.551   4.072  1.1032  0.4456 -1.2852
 4494SOL     OW16435   3.387   4.324   1.128 -0.3371 -0.1687 -0.2842
 4494SOL    HW116436   3.418   4.246   1.174  1.7514  1.2208  0.7800
 4494SOL    HW216437   3.293   4.327   1.147 -0.3733 -2.1033  0.0752
 4495SOL     OW16438   0.958   3.131   5.596  0.5329  0.0486  0.4806
 4495SOL    HW116439   0.928   3.048   5.633  2.3201 -1.0993 -0.5188
 4495SOL    HW216440   1.043   3.111   5.556  0.3432  2.0319 -1.0900
 4496SOL     OW16441   2.461   5.844   7.414 -0.4130 -0.3084 -0.3545
 4496SOL    HW116442   2.542   5.894   7.410  0.0732 -1.1274 -1.5211
 4496SOL    HW216443   2.401   5.898   7.465  1.0923 -0.0233  1.2050
 4497SOL     OW16444   0.746   4.109   2.911  0.2049  0.0114 -0.0209
 4497SOL    HW116445   0.700   4.187   2.943 -2.1153 -1.4404  0.4375
 4497SOL    HW216446   0.766   4.128   2.820 -1.2700  0.7639 -0.2151
 4498SOL     OW16447   1.933   3.863   1.029  1.0544  0.0187 -0.2796
 4498SOL    HW116448   1.877   3.788   1.008  1.7378 -0.9016  1.0027
 4498SOL    HW216449   2.012   3.823   1.067  0.8919  1.4182  1.6452
 4499SOL     OW16450   7.381   3.608   0.045  0.2085 -0.0372  0.4579
 4499SOL    HW116451   7.462   3.557   0.037  0.6325  0.6971 -0.0136
 4499SOL    HW216452   7.313   3.542   0.059  0.6866 -0.7769 -0.5543
 4500SOL     OW16453   3.828   7.680   6.396  0.0819 -0.7871  0.0156
 4500SOL    HW116454   3.764   7.679   6.467  0.9411 -0.5160  0.8234
 4500SOL    HW216455   3.901   7.628   6.430  0.8122 -0.0299 -0.3718
 4501SOL     OW16456   4.845   0.183   6.078 -0.7351 -0.0505  0.0295
 4501SOL    HW116457   4.936   0.211   6.081 -0.5150 -0.7248 -0.1356
 4501SOL    HW216458   4.807   0.213   6.161  0.0398 -1.0703  0.7851
 4502SOL     OW16459   7.871   7.232   6.215 -0.1260  0.1930 -0.0568
 4502SOL    HW116460   7.844   7.297   6.280 -1.0039  0.0805 -0.3034
 4502SOL    HW216461   7.940   7.182   6.258  1.6759  2.2537 -0.3898
 4503SOL     OW16462   4.383   2.407   4.153  0.1730 -0.0908 -0.7703
 4503SOL    HW116463   4.345   2.468   4.090  0.3689 -0.0067 -0.8080
 4503SOL    HW216464   4.342   2.430   4.236  0.9183  0.7064 -0.6022
 4504SOL     OW16465   6.121   2.002   2.017  0.7954 -0.4943 -0.0632
 4504SOL    HW116466   6.110   2.089   1.978 -2.3678 -1.0042 -0.5871
 4504SOL    HW216467   6.075   2.007   2.101  0.5643 -1.6455 -0.1038
 4505SOL     OW16468   4.283   7.295   6.497  0.2461 -0.0425  0.2588
 4505SOL    HW116469   4.275   7.370   6.438  0.1124  1.2703  1.8505
 4505SOL    HW216470   4.272   7.218   6.442  2.6842  0.9905 -1.8833
 4506SOL     OW16471   2.330   7.156   1.993  0.1003  0.2461 -0.0322
 4506SOL    HW116472   2.374   7.107   2.063  0.0598  0.0234 -0.1623
 4506SOL    HW216473   2.363   7.245   2.002  0.2013  0.1880  0.1843
 4507SOL     OW16474   5.875   6.165   4.129 -0.1597  0.1471 -0.2076
 4507SOL    HW116475   5.882   6.260   4.140 -0.2731  0.3365 -1.6261
 4507SOL    HW216476   5.813   6.138   4.198 -0.9078  1.2398 -0.4122
 4508SOL     OW16477   2.494   6.232   4.049 -0.0972 -0.4444  0.0308
 4508SOL    HW116478   2.409   6.215   4.008 -0.3786 -0.1954  0.4974
 4508SOL    HW216479   2.476   6.301   4.112  0.6454  0.2470 -0.5089
 4509SOL     OW16480   4.475   7.574   2.341  0.0767  0.1231 -0.3774
 4509SOL    HW116481   4.445   7.596   2.429  0.8815 -0.7856  0.1470
 4509SOL    HW216482   4.416   7.504   2.313  0.5825 -0.4474 -0.0484
 4510SOL     OW16483   1.972   0.876   1.048  0.2020 -0.1487  0.1683
 4510SOL    HW116484   1.934   0.867   0.961  1.0165 -2.2579 -0.0327
 4510SOL    HW216485   2.028   0.953   1.043 -1.1192  0.8056 -0.6108
 4511SOL     OW16486   5.073   6.916   7.922  0.7985  0.0190 -0.0878
 4511SOL    HW116487   5.122   6.975   7.981 -0.3557  1.6363 -0.6909
 4511SOL    HW216488   5.139   6.853   7.892  2.7313  2.4399 -1.3200
 4512SOL     OW16489   6.646   4.543   0.501 -0.0246 -0.2729  0.2492
 4512SOL    HW116490   6.610   4.576   0.419  0.9890  0.2672 -0.0009
 4512SOL    HW216491   6.576   4.490   0.539 -0.2661 -1.1145 -1.3037
 4513SOL     OW16492   0.039   5.559   7.547  0.2140 -0.3502 -0.3501
 4513SOL    HW116493  -0.034   5.622   7.539  0.3562 -0.3083 -1.6120
 4513SOL    HW216494   0.036   5.530   7.638  0.7246  2.1852  0.5718
 4514SOL     OW16495   3.283   6.826   6.475  0.5700 -0.4351  0.2068
 4514SOL    HW116496   3.377   6.810   6.467  0.4964 -0.5436 -0.4441
 4514SOL    HW216497   3.267   6.906   6.426  0.3335 -0.3666  0.3884
 4515SOL     OW16498   1.832   6.753   5.953  0.0877 -0.5790  0.9849
 4515SOL    HW116499   1.738   6.741   5.961  0.0496 -1.4099 -0.3304
 4515SOL    HW216500   1.858   6.800   6.032 -1.3525 -0.7430  1.5751
 4516SOL     OW16501   6.749   4.650   1.853 -0.2060 -0.3734  0.1733
 4516SOL    HW116502   6.747   4.735   1.809  0.8480  1.1269  2.7990
 4516SOL    HW216503   6.835   4.613   1.830 -0.6205 -0.7183 -0.8810
 4517SOL     OW16504   7.425   2.992   6.116  0.0068 -0.2818 -0.1624
 4517SOL    HW116505   7.493   3.055   6.091 -0.0599 -0.0437  0.2440
 4517SOL    HW216506   7.470   2.928   6.171 -0.1724  0.1129  0.4622
 4518SOL     OW16507   6.595   7.989   7.529  0.3776 -0.2143 -0.1049
 4518SOL    HW116508   6.663   8.007   7.464  0.2390 -0.2365 -0.2585
 4518SOL    HW216509   6.617   8.044   7.603  1.1831 -1.0277  0.2745
 4519SOL     OW16510   6.372   3.700   0.075 -0.1020 -0.1716  0.2795
 4519SOL    HW116511   6.283   3.686   0.106 -0.5443 -1.1812 -1.2924
 4519SOL    HW216512   6.385   3.794   0.080 -0.1305 -0.2306  3.3358
 4520SOL     OW16513   7.542   1.121   6.823 -0.6754  0.4371 -0.4413
 4520SOL    HW116514   7.617   1.061   6.830  0.8186  2.2873  0.1267
 4520SOL    HW216515   7.468   1.071   6.859  0.2996 -1.3698 -0.8469
 4521SOL     OW16516   6.500   0.546   2.808 -0.2921  0.0127  0.0573
 4521SOL    HW116517   6.441   0.530   2.882  1.4615  0.5644  1.6425
 4521SOL    HW216518   6.576   0.491   2.826  1.9495  3.1266  0.9009
 4522SOL     OW16519   5.264   2.396   6.850 -0.3279  0.0739  0.2569
 4522SOL    HW116520   5.279   2.431   6.763 -0.5674 -1.0112 -0.2360
 4522SOL    HW216521   5.279   2.470   6.909 -2.4301  1.4500 -0.8155
 4523SOL     OW16522   1.294   7.863   7.844 -0.3991 -0.1647 -0.2533
 4523SOL    HW116523   1.346   7.900   7.915  0.5349  1.7343 -1.8537
 4523SOL    HW216524   1.311   7.769   7.849 -0.1778 -0.0759  1.8425
 4524SOL     OW16525   3.785   0.883   5.794  0.4394  0.0292  0.4414
 4524SOL    HW116526   3.788   0.939   5.872  0.3321  1.9422 -0.8739
 4524SOL    HW216527   3.742   0.803   5.824  0.7619  0.5557  2.4436
 4525SOL     OW16528   5.264   7.964   7.295 -0.4239  0.0449  0.3140
 4525SOL    HW116529   5.220   7.954   7.379  1.2657  1.2034  1.4054
 4525SOL    HW216530   5.299   8.053   7.297  0.2377 -0.1459 -1.3334
 4526SOL     OW16531   5.752   7.728   1.759  0.4383 -0.8203  0.1041
 4526SOL    HW116532   5.710   7.754   1.677  1.9379 -0.8786 -0.7132
 4526SOL    HW216533   5.817   7.797   1.775  1.1375 -1.5449  0.4687
 4527SOL     OW16534   5.680   7.929   6.635  0.3960  0.4297 -0.2732
 4527SOL    HW116535   5.683   7.837   6.660 -2.3873  1.3049  4.5483
 4527SOL    HW216536   5.762   7.966   6.670 -0.1459  0.3069  1.2222
 4528SOL     OW16537   1.760   6.954   7.654 -0.5593 -0.6584 -0.1992
 4528SOL    HW116538   1.744   6.934   7.561  0.7009  0.4594 -0.6964
 4528SOL    HW216539   1.680   6.998   7.683 -0.0789  1.2303 -1.4863
 4529SOL     OW16540   4.309   1.176   7.314 -0.7255  0.1998  0.0528
 4529SOL    HW116541   4.369   1.113   7.275 -2.1969  0.6712 -3.3330
 4529SOL    HW216542   4.288   1.139   7.399  3.3431 -0.5387  0.9538
 4530SOL     OW16543   2.082   6.349   6.702 -0.3177 -0.2730 -0.2866
 4530SOL    HW116544   2.028   6.369   6.625 -0.0421 -0.1633 -0.4552
 4530SOL    HW216545   2.039   6.274   6.743 -0.4807 -0.3173 -0.5352
 4531SOL     OW16546   1.741   3.231   3.254  0.4838  0.5369 -0.4176
 4531SOL    HW116547   1.785   3.262   3.333 -0.2011  1.1865 -0.2779
 4531SOL    HW216548   1.648   3.240   3.273  0.2934 -0.2756 -0.9180
 4532SOL     OW16549   3.729   7.804   2.635 -0.1088 -0.3529  0.0445
 4532SOL    HW116550   3.793   7.841   2.697 -0.8033 -0.8666  1.1079
 4532SOL    HW216551   3.645   7.815   2.680 -0.7683  0.1948 -1.2759
 4533SOL     OW16552   4.927   7.858   2.512  0.1874 -0.3381  0.3893
 4533SOL    HW116553   4.849   7.910   2.491  0.4093  0.4044  1.3478
 4533SOL    HW216554   4.982   7.866   2.434  0.1237  0.7138  0.4376
 4534SOL     OW16555   6.295   1.518   4.430 -0.3178 -0.4530  0.3677
 4534SOL    HW116556   6.382   1.511   4.468 -0.2292 -1.0823  0.0711
 4534SOL    HW216557   6.254   1.590   4.476  0.5142  0.1377  0.2139
 4535SOL     OW16558   6.771   6.469   0.406 -0.1761 -0.5539  0.8755
 4535SOL    HW116559   6.743   6.417   0.330 -0.5275  0.9975 -0.0906
 4535SOL    HW216560   6.853   6.510   0.378 -0.4572  0.2616  1.2353
 4536SOL     OW16561   3.390   3.953   4.847 -0.6128  0.0543 -0.7830
 4536SOL    HW116562   3.327   3.885   4.822 -2.0139  0.1674  2.0473
 4536SOL    HW216563   3.337   4.032   4.856  0.3750  0.7091 -0.6234
 4537SOL     OW16564   1.848   3.581   3.378  0.6474  0.0392 -0.3944
 4537SOL    HW116565   1.861   3.662   3.329  0.2728  0.6109  0.4164
 4537SOL    HW216566   1.911   3.520   3.341  0.6592  0.5774 -1.2981
 4538SOL     OW16567   7.918   5.504   2.122  0.2048 -0.7226 -0.5223
 4538SOL    HW116568   7.941   5.412   2.109  0.7357 -0.7279  0.4384
 4538SOL    HW216569   7.866   5.505   2.202 -0.1096 -0.2218 -0.7253
 4539SOL     OW16570   6.256   4.441   5.607  0.6722 -0.0777 -0.1284
 4539SOL    HW116571   6.240   4.364   5.554  0.3201 -0.8003  0.9959
 4539SOL    HW216572   6.285   4.508   5.545 -3.5191  0.3757 -1.9243
 4540SOL     OW16573   4.173   1.897   2.431 -0.4123  0.7607 -0.8804
 4540SOL    HW116574   4.089   1.881   2.389  0.5653 -1.0349 -2.3132
 4540SOL    HW216575   4.236   1.901   2.359  1.5148 -3.5017  0.2374
 4541SOL     OW16576   4.490   3.824   2.539 -0.0452  0.4900  0.1167
 4541SOL    HW116577   4.426   3.819   2.468 -0.5160  0.0096  0.5614
 4541SOL    HW216578   4.560   3.765   2.513  0.1465  0.9022 -0.3037
 4542SOL     OW16579   3.798   5.701   0.916 -0.1024  0.7127  0.1806
 4542SOL    HW116580   3.734   5.772   0.919 -1.5059 -0.4822 -0.1424
 4542SOL    HW216581   3.746   5.622   0.901  1.4619 -0.3187 -0.1215
 4543SOL     OW16582   7.978   6.846   7.874 -0.5269 -0.2235 -0.2667
 4543SOL    HW116583   7.985   6.858   7.968  0.4755 -0.5667 -0.2858
 4543SOL    HW216584   7.884   6.847   7.856 -0.7247 -0.2756  0.7446
 4544SOL     OW16585   6.264   7.492   0.344 -0.2943  0.1304 -0.2272
 4544SOL    HW116586   6.331   7.425   0.360 -0.3490 -0.5455 -2.5304
 4544SOL    HW216587   6.312   7.564   0.303 -1.0978 -1.0223 -3.4751
 4545SOL     OW16588   8.005   1.145   6.103  0.3292 -0.4166 -0.8055
 4545SOL    HW116589   8.049   1.095   6.172  0.4920 -0.0720 -0.6530
 4545SOL    HW216590   7.914   1.150   6.132  0.3968 -0.2736 -0.6102
 4546SOL     OW16591   7.565   4.041   3.272 -0.3169  0.0895 -0.2459
 4546SOL    HW116592   7.473   4.060   3.258 -1.1395 -3.2783 -0.1535
 4546SOL    HW216593   7.599   4.118   3.319 -3.2785  0.9877  0.5995
 4547SOL     OW16594   3.103   2.231   4.166  0.3469 -0.0082  0.0844
 4547SOL    HW116595   3.069   2.305   4.216  1.2114 -0.5615  1.5274
 4547SOL    HW216596   3.148   2.176   4.230 -0.0433 -1.6690 -0.9843
 4548SOL     OW16597   4.602   1.778   1.137  0.4809 -0.2841  0.3387
 4548SOL    HW116598   4.689   1.799   1.172 -0.5862  3.1598  1.2958
 4548SOL    HW216599   4.573   1.859   1.096 -2.7853 -0.9369  1.1300
 4549SOL     OW16600   4.533   8.065   3.016  0.3672 -0.4871  0.1259
 4549SOL    HW116601   4.595   8.055   2.943 -0.5996 -0.1805 -0.7580
 4549SOL    HW216602   4.508   7.975   3.038  0.1818 -0.5575 -0.3506
 4550SOL     OW16603   4.196   5.026   4.496 -0.0896  0.1914  0.4266
 4550SOL    HW116604   4.135   4.976   4.551 -2.1034  2.5487  0.5175
 4550SOL    HW216605   4.266   5.052   4.555  1.4411 -2.9639  0.2213
 4551SOL     OW16606   6.703   6.666   0.148  0.5607 -0.6720  0.2072
 4551SOL    HW116607   6.663   6.580   0.134 -1.0640 -0.3816  2.4733
 4551SOL    HW216608   6.765   6.653   0.219  0.8199 -0.0941  0.0910
 4552SOL     OW16609   2.082   7.367   8.058  0.0436  0.2412 -0.6267
 4552SOL    HW116610   2.007   7.336   8.008 -0.7725  0.6117  0.3292
 4552SOL    HW216611   2.106   7.291   8.112 -1.1542  0.8122  0.7830
 4553SOL     OW16612   7.439   0.877   1.086 -0.4020 -0.7130  0.0376
 4553SOL    HW116613   7.435   0.912   1.175  0.3712  0.1768 -0.2523
 4553SOL    HW216614   7.369   0.921   1.039 -0.4503 -0.7568  0.0691
 4554SOL     OW16615   2.272   4.580   5.502 -0.6112  0.9948  0.0196
 4554SOL    HW116616   2.243   4.552   5.589 -1.6697  3.2680  0.4824
 4554SOL    HW216617   2.367   4.578   5.507 -0.6220 -1.1088  0.4093
 4555SOL     OW16618   3.677   5.777   5.181  0.4147 -0.5945  0.0125
 4555SOL    HW116619   3.611   5.831   5.138 -2.1225 -1.0264  3.0145
 4555SOL    HW216620   3.742   5.839   5.213  1.7047 -0.1719 -3.0984
 4556SOL     OW16621   0.684   0.585   2.650  0.5613  0.5365 -0.1871
 4556SOL    HW116622   0.683   0.490   2.639  2.7776  0.5357 -0.9145
 4556SOL    HW216623   0.724   0.598   2.736  1.3411  0.8003 -0.5808
 4557SOL     OW16624   6.676   4.566   5.565 -0.5256 -0.5027  0.1103
 4557SOL    HW116625   6.617   4.640   5.551 -0.9166 -0.8637 -0.1583
 4557SOL    HW216626   6.671   4.548   5.659  0.5111  0.5932  0.4030
 4558SOL     OW16627   5.270   6.941   6.725  0.4435  0.3521 -0.5037
 4558SOL    HW116628   5.284   7.034   6.709  0.1663  0.4755 -0.0302
 4558SOL    HW216629   5.181   6.925   6.695 -0.7815  0.9815  2.5296
 4559SOL     OW16630   7.131   7.514   8.026  0.0510 -0.2373  0.7226
 4559SOL    HW116631   7.176   7.524   7.942 -1.1855  0.2117  0.0964
 4559SOL    HW216632   7.171   7.581   8.082 -0.7639  1.1324 -0.2564
 4560SOL     OW16633   5.947   6.839   7.175 -0.2424 -0.0247 -0.3009
 4560SOL    HW116634   6.022   6.878   7.129 -0.0834 -0.4151 -0.3754
 4560SOL    HW216635   5.973   6.839   7.267 -0.0656 -0.3374 -0.3475
 4561SOL     OW16636   6.074   1.175   0.319 -0.2179  0.3047  0.2181
 4561SOL    HW116637   6.053   1.127   0.399 -2.7522  1.9381  0.6766
 4561SOL    HW216638   6.121   1.112   0.264  0.2359 -1.3335  2.3579
 4562SOL     OW16639   3.364   0.694   5.178  0.1682 -0.4559  0.2643
 4562SOL    HW116640   3.457   0.702   5.158  0.6086 -0.0272  2.2605
 4562SOL    HW216641   3.360   0.633   5.252 -1.0233  0.3471  0.9048
 4563SOL     OW16642   6.018   2.889   8.010 -0.0174  0.2884 -0.4789
 4563SOL    HW116643   5.934   2.932   7.993 -0.6239 -1.1099 -1.1908
 4563SOL    HW216644   6.075   2.923   7.941 -0.1063  0.9087 -0.2611
 4564SOL     OW16645   5.126   4.884   6.135 -0.5988  0.3290  0.0651
 4564SOL    HW116646   5.185   4.834   6.078 -0.0114  0.4227  0.5813
 4564SOL    HW216647   5.041   4.841   6.125  0.0596 -1.3110  1.1128
 4565SOL     OW16648   3.489   1.128   2.285 -0.2716 -0.1302 -0.0504
 4565SOL    HW116649   3.575   1.110   2.322  0.6365  0.8466 -1.5906
 4565SOL    HW216650   3.442   1.044   2.291 -0.2776 -0.0204  3.3503
 4566SOL     OW16651   0.098   4.382   0.398  0.1811 -0.3567 -0.1374
 4566SOL    HW116652   0.172   4.347   0.447 -0.6258  0.8351  2.0672
 4566SOL    HW216653   0.127   4.468   0.368 -0.0908 -0.1172  0.2665
 4567SOL     OW16654   7.121   2.694   7.102 -0.7475 -0.5936 -0.1380
 4567SOL    HW116655   7.124   2.609   7.058 -2.1941  0.0821 -1.6502
 4567SOL    HW216656   7.030   2.703   7.130 -0.4770  0.2353  0.5132
 4568SOL     OW16657   2.866   0.292   5.211 -0.2083 -0.3027  0.0498
 4568SOL    HW116658   2.817   0.220   5.172 -0.3873 -1.2154  1.8223
 4568SOL    HW216659   2.954   0.285   5.174 -1.0651  0.7126 -2.3761
 4569SOL     OW16660   0.460   2.793   5.589  0.0492 -0.6150  0.3040
 4569SOL    HW116661   0.397   2.737   5.542  0.1886  0.2950 -1.0076
 4569SOL    HW216662   0.432   2.882   5.570 -0.1554 -0.1987  2.3664
 4570SOL     OW16663   4.820   7.133   6.890  0.1059 -0.0336 -0.4644
 4570SOL    HW116664   4.762   7.207   6.912  0.8476  0.5815 -0.5408
 4570SOL    HW216665   4.896   7.144   6.948  1.5902  0.9891 -2.4857
 4571SOL     OW16666   4.246   1.795   4.332 -0.2098 -0.0622  0.4034
 4571SOL    HW116667   4.224   1.888   4.336 -0.7760 -0.2224  1.3609
 4571SOL    HW216668   4.336   1.793   4.300 -1.1787  0.6669 -2.7450
 4572SOL     OW16669   6.807   2.345   3.193  0.0411 -0.1224  0.1459
 4572SOL    HW116670   6.854   2.263   3.206 -0.4859 -0.3597  0.6129
 4572SOL    HW216671   6.729   2.321   3.143 -0.7374 -0.1207  1.3324
 4573SOL     OW16672   4.251   4.070   5.033 -0.1508  0.1256  0.2353
 4573SOL    HW116673   4.250   4.001   4.966 -0.5947 -0.5150  0.8982
 4573SOL    HW216674   4.169   4.118   5.020 -0.2656 -0.0372  0.3577
 4574SOL     OW16675   4.148   7.035   2.086 -0.2115  0.0094 -0.0259
 4574SOL    HW116676   4.100   6.968   2.036  0.5283  1.0293 -2.1821
 4574SOL    HW216677   4.229   7.047   2.038  0.4807  1.1572  1.3800
 4575SOL     OW16678   4.421   3.851   1.123 -0.8513  0.4788  0.0815
 4575SOL    HW116679   4.439   3.932   1.076 -1.2117 -0.4474 -1.7497
 4575SOL    HW216680   4.506   3.825   1.159 -0.2392  0.5498 -1.2267
 4576SOL     OW16681   0.124   2.686   7.820 -0.1343 -0.3183 -0.2159
 4576SOL    HW116682   0.115   2.613   7.758  0.4961 -0.1003 -0.5736
 4576SOL    HW216683   0.210   2.673   7.860 -0.2111 -0.0178  0.0537
 4577SOL     OW16684   1.036   8.122   2.953  0.7588  0.5361 -0.9076
 4577SOL    HW116685   0.978   8.051   2.925  1.5798 -0.7264  0.4458
 4577SOL    HW216686   0.979   8.199   2.956 -0.5284 -0.3738 -0.9160
 4578SOL     OW16687   2.063   6.470   4.605  0.7296 -0.2295  0.1877
 4578SOL    HW116688   1.996   6.536   4.586 -1.0444 -1.9334  0.1747
 4578SOL    HW216689   2.143   6.520   4.617 -0.1214  1.7718 -1.7210
 4579SOL     OW16690   4.695   5.019   4.018 -0.3969  0.0330 -0.0702
 4579SOL    HW116691   4.732   5.083   4.078 -0.3536  0.3736 -0.4525
 4579SOL    HW216692   4.676   5.069   3.938 -0.0320 -0.4999 -0.5015
 4580SOL     OW16693   5.152   5.390   7.885  0.0884 -0.4771 -0.4986
 4580SOL    HW116694   5.073   5.431   7.850  0.5384  1.4163  0.6028
 4580SOL    HW216695   5.141   5.394   7.980  0.4615 -2.3736 -0.3269
 4581SOL     OW16696   6.609   6.458   4.039  0.1229  0.1728 -0.1874
 4581SOL    HW116697   6.584   6.401   4.112 -0.5937  0.4783 -0.1861
 4581SOL    HW216698   6.693   6.495   4.065 -0.8885  1.5927  1.2863
 4582SOL     OW16699   6.856   6.534   2.256 -0.4494 -0.3327 -0.3001
 4582SOL    HW116700   6.936   6.539   2.307 -1.3288  0.5529  1.0454
 4582SOL    HW216701   6.816   6.450   2.282 -0.1037 -0.6523 -0.7794
 4583SOL     OW16702   4.019   6.477   0.779 -0.1682  0.3028  0.2361
 4583SOL    HW116703   4.076   6.408   0.811 -0.4840 -1.1428 -2.1023
 4583SOL    HW216704   4.061   6.508   0.698 -1.3275  1.0751 -0.1039
 4584SOL     OW16705   1.924   6.456   0.880 -0.0696  0.1056  0.4769
 4584SOL    HW116706   1.884   6.514   0.815 -0.9804 -1.9404 -0.8961
 4584SOL    HW216707   2.011   6.436   0.845 -0.3318 -0.5224  0.1672
 4585SOL     OW16708   7.218   1.632   3.607 -0.0832  0.0196  0.1398
 4585SOL    HW116709   7.313   1.635   3.618 -0.1941  0.8257  1.0198
 4585SOL    HW216710   7.185   1.609   3.694 -0.6956 -0.2974 -0.1706
 4586SOL     OW16711   5.700   7.164   2.520  0.3124 -0.1390  0.3734
 4586SOL    HW116712   5.641   7.238   2.537 -0.6793 -0.3177 -1.8722
 4586SOL    HW216713   5.756   7.194   2.449  1.0841 -0.9629  0.6162
 4587SOL     OW16714   3.196   2.350   0.899 -0.3241 -0.7849  0.0127
 4587SOL    HW116715   3.235   2.388   0.821  1.5394  1.0605  1.7356
 4587SOL    HW216716   3.120   2.301   0.866  0.0940  0.2984 -2.8514
 4588SOL     OW16717   1.351   3.590   5.532  0.1320 -0.2931  0.4735
 4588SOL    HW116718   1.427   3.632   5.492 -0.2280  0.3462  0.4504
 4588SOL    HW216719   1.384   3.505   5.562  0.5416 -0.5859 -0.7283
 4589SOL     OW16720   0.300   5.649   7.554 -0.0838 -0.8070 -0.3593
 4589SOL    HW116721   0.359   5.575   7.542 -0.3918 -1.3888  1.3810
 4589SOL    HW216722   0.212   5.612   7.549 -0.2704 -0.3406 -0.6552
 4590SOL     OW16723   7.782   2.311   7.333  0.0693 -0.6663 -0.0594
 4590SOL    HW116724   7.857   2.251   7.332 -0.0367 -0.8054 -1.5642
 4590SOL    HW216725   7.706   2.255   7.351 -0.2811 -1.4030 -3.1627
 4591SOL     OW16726   5.995   1.989   6.148 -0.5558 -0.2808 -0.0968
 4591SOL    HW116727   6.067   1.996   6.210  0.3729 -2.0700 -0.9002
 4591SOL    HW216728   5.961   1.900   6.161 -3.3707  0.8387  1.0123
 4592SOL     OW16729   1.528   4.085   4.465  0.0850  0.0609  0.1679
 4592SOL    HW116730   1.552   4.157   4.407 -0.2453  0.3535  0.3949
 4592SOL    HW216731   1.589   4.093   4.538  1.2299 -0.9612 -0.6327
 4593SOL     OW16732   2.885   7.146   4.857 -0.1812  0.0949  0.0240
 4593SOL    HW116733   2.962   7.199   4.835  0.1635  1.0183  2.9246
 4593SOL    HW216734   2.920   7.077   4.914 -1.4501  0.5107  1.3684
 4594SOL     OW16735   2.556   1.972   7.443 -0.0570  0.3789 -0.0905
 4594SOL    HW116736   2.573   2.067   7.449  1.1901  0.1592  0.2123
 4594SOL    HW216737   2.478   1.958   7.496  0.7545  1.0098  1.3252
 4595SOL     OW16738   7.460   4.310   5.310 -0.4077  0.0682 -0.2901
 4595SOL    HW116739   7.424   4.281   5.394 -0.8945 -0.1271 -0.5615
 4595SOL    HW216740   7.398   4.277   5.245  1.7894 -2.9820 -1.0457
 4596SOL     OW16741   5.312   6.653   7.308 -0.1271 -0.0006  0.6287
 4596SOL    HW116742   5.316   6.730   7.251 -0.0057 -0.1168  0.4789
 4596SOL    HW216743   5.403   6.623   7.315 -0.1920 -0.2132  0.5711
 4597SOL     OW16744   5.865   0.812   2.780 -0.3388 -0.1035  0.0217
 4597SOL    HW116745   5.855   0.736   2.724  0.8135 -0.9621  0.9232
 4597SOL    HW216746   5.865   0.887   2.720 -2.1509 -0.7179 -0.8233
 4598SOL     OW16747   3.668   6.698   0.657 -0.3601 -0.9084  0.6205
 4598SOL    HW116748   3.586   6.726   0.696 -0.3066  0.8442 -0.4354
 4598SOL    HW216749   3.671   6.741   0.572  0.5984 -2.7576 -0.3635
 4599SOL     OW16750   6.231   3.509   4.849  0.4278 -0.2500 -0.0513
 4599SOL    HW116751   6.322   3.540   4.842  0.2387  0.4643  0.5961
 4599SOL    HW216752   6.203   3.535   4.936 -1.3548  2.1555 -1.2399
 4600SOL     OW16753   1.605   6.861   2.156 -0.2153  0.4890 -0.3316
 4600SOL    HW116754   1.686   6.854   2.206 -0.5834  0.5292  0.2827
 4600SOL    HW216755   1.618   6.803   2.081  0.1268 -0.0382  0.1227
 4601SOL     OW16756   8.100   2.459   1.688 -0.5144  0.5293  0.0428
 4601SOL    HW116757   8.160   2.496   1.624  1.4473  0.2661  1.6456
 4601SOL    HW216758   8.092   2.366   1.664  0.0610  0.4742  0.0648
 4602SOL     OW16759   3.787   3.486   4.307  0.0299 -0.1568  0.5475
 4602SOL    HW116760   3.850   3.444   4.249 -1.0687  0.5865 -1.2377
 4602SOL    HW216761   3.701   3.462   4.272 -0.6608  2.2030  0.4311
 4603SOL     OW16762   2.392   4.003   0.037 -0.0917 -0.3459  0.2577
 4603SOL    HW116763   2.303   4.004   0.001 -0.4805 -1.1646  1.1501
 4603SOL    HW216764   2.442   3.949  -0.025 -0.2446  0.0225 -0.1863
 4604SOL     OW16765   3.448   2.450   1.775  0.0090  0.0178  0.3183
 4604SOL    HW116766   3.491   2.365   1.767 -1.0338 -0.5844  0.9100
 4604SOL    HW216767   3.469   2.480   1.863  0.2666  0.3273  0.1566
 4605SOL     OW16768   0.308   4.464   7.958  0.0801 -0.2066 -0.3730
 4605SOL    HW116769   0.231   4.520   7.970 -0.8922 -1.3460 -0.9352
 4605SOL    HW216770   0.346   4.456   8.045 -1.6859 -1.2801  0.3716
 4606SOL     OW16771   6.414   5.051   0.164  0.1201  0.1827  0.1518
 4606SOL    HW116772   6.400   5.139   0.131  1.1178  0.5549  0.6562
 4606SOL    HW216773   6.422   4.997   0.086  0.1180  0.6460 -0.1736
 4607SOL     OW16774   1.625   2.892   1.797 -0.0455  0.0350  0.3050
 4607SOL    HW116775   1.696   2.892   1.862 -0.3328  1.2550  0.6503
 4607SOL    HW216776   1.655   2.833   1.729  0.9275 -0.1380  0.8605
 4608SOL     OW16777   5.357   4.756   7.527 -0.1895  0.1209 -0.2971
 4608SOL    HW116778   5.265   4.740   7.543  0.2952 -0.0847  2.8655
 4608SOL    HW216779   5.382   4.691   7.461 -2.2176  0.0982 -1.1105
 4609SOL     OW16780   0.957   2.965   1.027  0.0920 -0.2178  0.2337
 4609SOL    HW116781   0.948   2.947   1.121  0.2004 -0.5470  0.1829
 4609SOL    HW216782   0.937   3.058   1.018 -1.1534 -0.4519  0.4087
 4610SOL     OW16783   4.341   6.489   1.883 -0.2578  0.2340  0.0911
 4610SOL    HW116784   4.298   6.418   1.835  0.1516  0.2634 -0.3184
 4610SOL    HW216785   4.420   6.449   1.919 -0.6756  0.1476  0.9465
 4611SOL     OW16786   5.478   1.094   1.910  0.1387  0.1367  0.9507
 4611SOL    HW116787   5.573   1.101   1.903  0.2483 -1.2630  0.7154
 4611SOL    HW216788   5.458   1.121   2.000  0.4696  2.6699  0.3539
 4612SOL     OW16789   3.738   6.780   0.216 -0.6937  0.2647 -0.3131
 4612SOL    HW116790   3.812   6.811   0.164 -0.2476 -1.4822 -0.7753
 4612SOL    HW216791   3.660   6.810   0.169 -0.2999 -1.0680 -1.8894
 4613SOL     OW16792   2.516   2.731   2.444  0.3884  0.7272 -0.3758
 4613SOL    HW116793   2.609   2.711   2.447  0.3392 -0.1004 -2.4495
 4613SOL    HW216794   2.492   2.719   2.352 -2.4195 -2.0944  0.5381
 4614SOL     OW16795   2.484   2.652   2.160  0.2093  0.9003  0.0999
 4614SOL    HW116796   2.547   2.592   2.120  0.2493  1.1918 -0.2715
 4614SOL    HW216797   2.400   2.605   2.155  0.1378  1.1082 -0.7054
 4615SOL     OW16798   4.052   5.883   6.623 -0.3194 -0.1818 -0.0695
 4615SOL    HW116799   3.978   5.825   6.607 -1.4233  0.3885  2.4324
 4615SOL    HW216800   4.096   5.846   6.700  1.6152 -0.1027 -1.0611
 4616SOL     OW16801   4.904   3.034   7.343 -0.0307  0.1627  0.4341
 4616SOL    HW116802   4.967   2.971   7.379 -0.1840 -0.5417 -0.4777
 4616SOL    HW216803   4.831   2.979   7.312 -1.4619  1.0108  2.1353
 4617SOL     OW16804   7.997   4.621   2.596  0.1270  0.2231 -0.1618
 4617SOL    HW116805   7.922   4.608   2.538 -0.0465  2.1837 -0.4384
 4617SOL    HW216806   7.970   4.580   2.679 -1.3154  0.9805 -0.2195
 4618SOL     OW16807   0.323   2.475   2.402 -0.2723  0.1231 -1.0264
 4618SOL    HW116808   0.305   2.411   2.470 -1.3318  0.1083 -1.2856
 4618SOL    HW216809   0.294   2.432   2.321 -0.6029  0.7558 -1.2550
 4619SOL     OW16810   7.742   6.640   7.979 -0.0288 -0.3064 -0.1753
 4619SOL    HW116811   7.762   6.577   8.049 -3.1015 -0.4893  0.6754
 4619SOL    HW216812   7.768   6.725   8.016  3.0944 -0.8289 -0.8997
 4620SOL     OW16813   7.796   7.577   0.435  0.3208  0.0861  0.1084
 4620SOL    HW116814   7.776   7.546   0.523 -0.7970 -2.8399 -1.0695
 4620SOL    HW216815   7.715   7.617   0.404  0.0326 -0.8235 -0.3339
 4621SOL     OW16816   0.831   7.800   1.952  0.1725  0.3308 -0.0098
 4621SOL    HW116817   0.848   7.709   1.929 -1.5733  0.5960 -2.9060
 4621SOL    HW216818   0.908   7.827   2.003  1.5696 -2.2205 -0.5977
 4622SOL     OW16819   7.955   0.075   3.485  0.0240  0.3979 -0.0566
 4622SOL    HW116820   7.932   0.078   3.392 -0.0929  0.0156 -0.0421
 4622SOL    HW216821   8.050   0.069   3.487 -0.0467 -1.4028 -0.2051
 4623SOL     OW16822   3.082   4.057   2.245  0.4497  0.3611 -0.0344
 4623SOL    HW116823   3.100   4.069   2.338  2.8812 -1.6620 -0.1509
 4623SOL    HW216824   3.129   3.977   2.221 -2.8139 -1.1187 -2.2884
 4624SOL     OW16825   2.168   3.807   4.197 -0.3744 -0.7098 -0.4350
 4624SOL    HW116826   2.106   3.834   4.264  0.3426 -0.2431  0.0540
 4624SOL    HW216827   2.232   3.753   4.244 -0.6526 -1.5743 -1.0205
 4625SOL     OW16828   1.142   2.661   7.877 -0.1394 -0.0625 -0.1607
 4625SOL    HW116829   1.216   2.604   7.898  0.2256  0.5839  0.3771
 4625SOL    HW216830   1.087   2.659   7.955  1.3532  2.5585  1.1062
 4626SOL     OW16831   7.464   0.308   0.424  0.6515 -0.2353  0.3451
 4626SOL    HW116832   7.551   0.290   0.461  0.6543 -0.6158  0.1642
 4626SOL    HW216833   7.463   0.402   0.411  1.5794 -0.3763 -0.9589
 4627SOL     OW16834   2.341   5.218   3.567  0.0443  0.6625  0.3741
 4627SOL    HW116835   2.377   5.139   3.527 -0.9678  0.0482  0.6450
 4627SOL    HW216836   2.412   5.282   3.561  0.0428  0.4978 -2.0509
 4628SOL     OW16837   6.190   1.227   4.607 -0.3333 -0.1122 -0.0687
 4628SOL    HW116838   6.221   1.302   4.557  1.7355  0.5660  2.0576
 4628SOL    HW216839   6.108   1.257   4.648 -1.2659 -0.1982 -1.7788
 4629SOL     OW16840   1.838   2.589   2.142 -0.0941  0.5254  0.6060
 4629SOL    HW116841   1.822   2.516   2.082  1.9069  0.7137 -0.2369
 4629SOL    HW216842   1.905   2.557   2.202  0.3032  1.4203  0.6623
 4630SOL     OW16843   0.075   0.605   5.816  0.1203 -0.5158 -0.2505
 4630SOL    HW116844   0.127   0.554   5.754  0.2603  0.0701 -0.6145
 4630SOL    HW216845   0.134   0.674   5.846  0.2667 -1.1638  1.0284
 4631SOL     OW16846   4.421   2.895   6.516 -0.1571 -0.1371 -0.1118
 4631SOL    HW116847   4.485   2.925   6.581  1.7482  2.2467 -2.8105
 4631SOL    HW216848   4.367   2.972   6.499 -0.1084 -0.4261 -1.8073
 4632SOL     OW16849   6.626   0.110   4.546  0.0870  0.2545  0.1372
 4632SOL    HW116850   6.660   0.199   4.560 -1.3088  0.9855 -0.8095
 4632SOL    HW216851   6.545   0.123   4.497 -0.2136 -1.5568  0.0757
 4633SOL     OW16852   3.230   3.000   0.317 -0.1407 -0.8374  0.5166
 4633SOL    HW116853   3.238   3.084   0.272  0.0500 -1.3166 -0.3692
 4633SOL    HW216854   3.318   2.964   0.319 -0.1316 -0.7882  1.3641
 4634SOL     OW16855   3.649   1.170   0.181 -0.1255 -0.2857 -0.2154
 4634SOL    HW116856   3.631   1.079   0.159  0.6963 -0.6166  0.4348
 4634SOL    HW216857   3.744   1.178   0.178 -0.1614  0.4365  0.1623
 4635SOL     OW16858   2.007   1.643   4.072  0.0783 -0.3277 -0.3777
 4635SOL    HW116859   1.963   1.614   3.992  0.1047 -0.1412 -0.4607
 4635SOL    HW216860   1.960   1.723   4.097 -0.0359 -0.4757 -0.1154
 4636SOL     OW16861   2.654   6.460   0.435 -0.0932  0.1551 -0.1592
 4636SOL    HW116862   2.607   6.511   0.369 -1.2003 -1.1523 -0.4124
 4636SOL    HW216863   2.617   6.372   0.429  1.1178 -0.4617  0.9116
 4637SOL     OW16864   3.891   1.683   0.443  0.1061 -0.4438  0.2205
 4637SOL    HW116865   3.887   1.595   0.480  0.8344 -0.9534 -0.8573
 4637SOL    HW216866   3.800   1.714   0.446 -0.0682 -0.9990  1.1227
 4638SOL     OW16867   7.773   3.331   6.311  0.4589  0.4449  0.1645
 4638SOL    HW116868   7.815   3.281   6.380 -0.2885  0.4359  0.6250
 4638SOL    HW216869   7.683   3.298   6.308  0.7137 -0.2166 -1.4464
 4639SOL     OW16870   3.061   0.940   3.222 -0.9876  0.3093  0.1676
 4639SOL    HW116871   2.985   0.890   3.191 -0.8320  0.9061 -1.2539
 4639SOL    HW216872   3.135   0.904   3.174 -0.7448  1.3080 -0.2491
 4640SOL     OW16873   4.575   4.356   0.726 -0.1943  0.6449 -0.2777
 4640SOL    HW116874   4.654   4.380   0.775  0.5777 -0.0343 -1.1542
 4640SOL    HW216875   4.598   4.273   0.684 -1.0313  0.9424 -1.3477
 4641SOL     OW16876   3.259   3.241   0.150 -0.7710 -0.2973 -0.0217
 4641SOL    HW116877   3.184   3.296   0.173 -0.4754  0.6071 -1.1352
 4641SOL    HW216878   3.252   3.230   0.055  0.0990 -0.8103 -0.0315
 4642SOL     OW16879   4.474   2.164   1.358 -0.2350 -0.1784 -1.1193
 4642SOL    HW116880   4.454   2.230   1.291 -0.7170 -0.4690 -1.2668
 4642SOL    HW216881   4.457   2.208   1.441 -2.5921 -0.7181 -1.2393
 4643SOL     OW16882   2.737   3.706   0.686  0.0651 -0.1358 -0.4148
 4643SOL    HW116883   2.697   3.719   0.772 -0.6586 -1.3296 -0.5434
 4643SOL    HW216884   2.831   3.714   0.702  0.0767 -2.0273  0.8791
 4644SOL     OW16885   4.408   6.696   2.496  0.0521  0.3346 -0.0453
 4644SOL    HW116886   4.414   6.761   2.426 -2.1820 -0.1623 -0.7792
 4644SOL    HW216887   4.495   6.655   2.499  0.4980  1.0776 -1.8040
 4645SOL     OW16888   7.550   4.434   1.343 -0.4674  0.0974 -0.1334
 4645SOL    HW116889   7.458   4.433   1.317 -0.3168  1.3384 -0.7397
 4645SOL    HW216890   7.551   4.483   1.425 -0.1154  1.8621 -1.1463
 4646SOL     OW16891   7.681   1.199   1.138 -0.2993 -0.2840  0.2903
 4646SOL    HW116892   7.736   1.276   1.127  0.6219 -1.0591 -0.7447
 4646SOL    HW216893   7.599   1.233   1.174  0.3758  1.0617  0.6162
 4647SOL     OW16894   4.010   0.468   0.786 -0.1403 -0.0659  0.0993
 4647SOL    HW116895   3.937   0.509   0.738  0.2759  1.7934  0.9465
 4647SOL    HW216896   4.081   0.532   0.781  1.4154 -1.7626 -0.5494
 4648SOL     OW16897   3.118   0.856   2.814  0.2235 -0.3381  0.0811
 4648SOL    HW116898   3.114   0.850   2.909  0.9097 -0.4275  0.1065
 4648SOL    HW216899   3.155   0.942   2.796  0.6326 -0.5504 -0.0961
 4649SOL     OW16900   4.303   6.107   2.938  0.4571  0.4168 -0.4538
 4649SOL    HW116901   4.348   6.027   2.964  0.1431  0.2510 -0.4183
 4649SOL    HW216902   4.354   6.178   2.979 -0.1127  0.1542  0.7429
 4650SOL     OW16903   4.632   4.153   3.598  0.5791  0.6334  0.1168
 4650SOL    HW116904   4.621   4.099   3.520  0.3107  0.3342  0.3546
 4650SOL    HW216905   4.581   4.232   3.581 -0.6291 -0.0270  0.5400
 4651SOL     OW16906   2.359   6.022   7.838 -0.5112 -0.1192  0.2071
 4651SOL    HW116907   2.452   6.003   7.826 -0.5674  0.3472 -1.1592
 4651SOL    HW216908   2.356   6.089   7.906  0.0438 -1.1271  1.2518
 4652SOL     OW16909   4.980   3.257   4.293  0.2663  0.3992  0.1051
 4652SOL    HW116910   4.933   3.227   4.371 -1.2833 -0.1495 -1.0110
 4652SOL    HW216911   5.049   3.192   4.280 -0.6858 -0.5998 -0.0835
 4653SOL     OW16912   3.716   5.674   2.974 -0.2424 -0.7965 -0.7309
 4653SOL    HW116913   3.805   5.703   2.992 -0.9553  1.5443 -0.6715
 4653SOL    HW216914   3.684   5.638   3.057 -1.6403  4.8698  1.6875
 4654SOL     OW16915   1.284   4.554   3.359 -0.8788  0.0435 -0.3320
 4654SOL    HW116916   1.302   4.465   3.330 -2.1923 -0.3742  0.0285
 4654SOL    HW216917   1.263   4.602   3.279 -0.6635 -0.0956 -0.4734
 4655SOL     OW16918   1.023   4.017   3.308 -0.2905 -0.2687  0.0064
 4655SOL    HW116919   0.932   4.034   3.332 -0.0459  1.1684  0.0017
 4655SOL    HW216920   1.072   4.033   3.388 -0.0725 -1.5967  0.1641
 4656SOL     OW16921   6.739   4.524   1.303 -0.0474 -0.1099  0.5102
 4656SOL    HW116922   6.737   4.518   1.399 -0.9872 -2.0898  0.4207
 4656SOL    HW216923   6.687   4.602   1.283 -0.8600 -0.3535  1.5941
 4657SOL     OW16924   2.507   0.355   5.784 -0.1416 -0.4264 -0.3558
 4657SOL    HW116925   2.590   0.309   5.781 -0.5347 -1.1402 -0.6634
 4657SOL    HW216926   2.458   0.311   5.854  0.3106  1.0106  0.9057
 4658SOL     OW16927   7.442   6.454   3.741 -0.3729 -0.5135 -0.7954
 4658SOL    HW116928   7.424   6.371   3.784  0.1629 -0.0349  0.4103
 4658SOL    HW216929   7.531   6.445   3.706  1.0025  0.5540  2.0710
 4659SOL     OW16930   1.481   7.046   6.138  0.3512  0.0479 -0.2567
 4659SOL    HW116931   1.573   7.064   6.115 -0.4393  2.5226 -1.9126
 4659SOL    HW216932   1.442   7.133   6.145 -2.1095 -0.9721 -0.5578
 4660SOL     OW16933   0.153   2.057   7.060 -0.0851 -0.5185 -0.8446
 4660SOL    HW116934   0.191   2.117   6.996  0.8493 -0.7307 -0.5048
 4660SOL    HW216935   0.224   1.998   7.084 -0.7649 -1.2579 -0.5634
 4661SOL     OW16936   3.951   4.134   6.148  0.0478 -0.1497 -0.4980
 4661SOL    HW116937   3.899   4.213   6.131 -0.5859 -0.5366 -0.3767
 4661SOL    HW216938   4.041   4.167   6.157 -0.1389  0.5020 -0.9057
 4662SOL     OW16939   0.861   3.983   4.626  0.3034 -0.0104  0.2910
 4662SOL    HW116940   0.921   3.949   4.560  1.2239  0.4677  0.8443
 4662SOL    HW216941   0.866   4.078   4.615 -2.1232  0.0151 -1.1546
 4663SOL     OW16942   0.958   6.638   5.832 -0.1050  0.0079  0.2206
 4663SOL    HW116943   0.982   6.625   5.740 -0.7365  0.0834  0.0369
 4663SOL    HW216944   0.862   6.632   5.832 -0.0949 -0.1829  0.9065
 4664SOL     OW16945   7.859   2.167   2.207 -0.5349  0.4915  0.0909
 4664SOL    HW116946   7.933   2.136   2.259 -0.4201 -0.0066 -0.3588
 4664SOL    HW216947   7.782   2.145   2.259 -0.4021  0.3419  0.2226
 4665SOL     OW16948   3.012   6.637   1.215  0.5484  0.5966 -0.1455
 4665SOL    HW116949   2.928   6.595   1.200  0.2080  1.0694  0.4178
 4665SOL    HW216950   3.057   6.631   1.131  1.2187 -2.4193  0.3295
 4666SOL     OW16951   4.299   1.514   0.152  0.0760 -0.2272  0.5181
 4666SOL    HW116952   4.244   1.439   0.178  0.1321 -0.4085  0.1221
 4666SOL    HW216953   4.374   1.474   0.108 -0.6773  0.1196 -1.1528
 4667SOL     OW16954   2.386   3.927   4.670 -0.3642 -0.8020  0.0282
 4667SOL    HW116955   2.460   3.903   4.725 -0.0147  1.0264  0.4311
 4667SOL    HW216956   2.423   3.934   4.582  0.1347  0.6849  0.3179
 4668SOL     OW16957   4.557   5.710   1.294 -0.0491 -0.4486  0.1738
 4668SOL    HW116958   4.487   5.661   1.251 -1.0258  0.0281  1.1418
 4668SOL    HW216959   4.510   5.771   1.352  1.1675  0.2666  0.4388
 4669SOL     OW16960   5.561   7.877   3.549 -0.1301  0.0130  0.4304
 4669SOL    HW116961   5.553   7.905   3.640 -0.3256 -1.8764  1.0297
 4669SOL    HW216962   5.477   7.837   3.528  0.8765 -2.2258  0.4105
 4670SOL     OW16963   2.778   2.515   7.174  0.3419  0.1213  0.0745
 4670SOL    HW116964   2.824   2.511   7.090  0.7273 -0.9083  0.3205
 4670SOL    HW216965   2.829   2.459   7.232 -0.0697  0.6114  0.9326
 4671SOL     OW16966   5.237   0.383   4.882  0.1323 -0.5774 -0.0332
 4671SOL    HW116967   5.287   0.396   4.801 -0.2650 -0.6750 -0.3001
 4671SOL    HW216968   5.215   0.472   4.910  0.6159 -0.5277  0.1885
 4672SOL     OW16969   0.380   4.641   1.251 -0.0238 -0.0230  0.0426
 4672SOL    HW116970   0.449   4.705   1.237 -0.4131  0.2687 -0.6544
 4672SOL    HW216971   0.418   4.557   1.224 -0.2842  0.3121 -1.4848
 4673SOL     OW16972   2.822   2.831   2.116  0.3304 -0.9339 -0.1730
 4673SOL    HW116973   2.849   2.817   2.025  1.8679  1.0676 -0.0900
 4673SOL    HW216974   2.731   2.858   2.110  0.6336 -0.0606 -1.2178
 4674SOL     OW16975   2.995   5.451   3.600 -0.6612 -0.5414  0.1299
 4674SOL    HW116976   2.922   5.490   3.647 -1.1577 -0.8975 -0.3337
 4674SOL    HW216977   3.068   5.511   3.616 -0.3885 -1.4353  2.6266
 4675SOL     OW16978   3.142   3.062   3.784 -0.3575  0.3126  0.2936
 4675SOL    HW116979   3.087   3.056   3.862 -1.9923 -1.3263 -0.8754
 4675SOL    HW216980   3.117   3.145   3.743  0.2761  1.0205  1.3088
 4676SOL     OW16981   3.229   1.108   7.780 -0.1866  0.7454 -0.3755
 4676SOL    HW116982   3.140   1.127   7.808  0.7513  0.9344  2.8022
 4676SOL    HW216983   3.237   1.013   7.786 -0.3624  0.6581 -1.3809
 4677SOL     OW16984   3.850   3.870   4.671  0.0110  0.3664 -0.0751
 4677SOL    HW116985   3.883   3.886   4.583  1.0499 -1.9584 -0.1680
 4677SOL    HW216986   3.758   3.898   4.667 -0.1854 -0.4114 -2.1239
 4678SOL     OW16987   5.078   4.987   3.840  0.6835  0.2589  0.4858
 4678SOL    HW116988   5.082   5.081   3.861  1.3671  0.1035  1.0902
 4678SOL    HW216989   5.104   4.943   3.921  1.1461 -0.4273 -0.0212
 4679SOL     OW16990   4.792   6.771   3.596 -0.2790  0.7989 -0.3290
 4679SOL    HW116991   4.860   6.713   3.563  0.0948  1.3352 -0.5092
 4679SOL    HW216992   4.725   6.772   3.528 -0.8834 -0.4068  0.2182
 4680SOL     OW16993   1.657   6.466   1.880 -0.0747 -0.5687 -0.8643
 4680SOL    HW116994   1.579   6.448   1.829  0.0407 -0.4430 -1.0840
 4680SOL    HW216995   1.679   6.557   1.860 -0.1779 -0.4373 -0.3964
 4681SOL     OW16996   1.111   5.862   4.288  0.2129  0.3403  0.1824
 4681SOL    HW116997   1.120   5.867   4.383  0.3158  2.4997  0.1123
 4681SOL    HW216998   1.148   5.778   4.264  0.0944 -0.2840  2.0599
 4682SOL     OW16999   7.951   1.564   4.412  0.2406 -0.3729 -0.1282
 4682SOL    HW117000   8.033   1.557   4.364 -0.0049  0.5921 -0.7108
 4682SOL    HW217001   7.922   1.474   4.424  1.8932 -0.8022  0.9841
 4683SOL     OW17002   7.638   3.273   0.706 -0.3654 -0.0957  0.3059
 4683SOL    HW117003   7.554   3.265   0.752 -0.8579  3.1561  0.2043
 4683SOL    HW217004   7.616   3.257   0.614 -0.6205 -0.4414  0.4238
 4684SOL     OW17005   4.307   4.057   6.378  0.2969 -0.1251  0.1173
 4684SOL    HW117006   4.228   4.046   6.430  0.9021  1.6403  1.5255
 4684SOL    HW217007   4.278   4.052   6.287 -1.2862 -0.3510  0.6156
 4685SOL     OW17008   0.480   8.095   4.604  0.3299 -0.2896 -0.1926
 4685SOL    HW117009   0.562   8.124   4.644  0.8522 -0.8194 -0.8521
 4685SOL    HW217010   0.472   8.147   4.524  0.6777 -1.1104 -0.7779
 4686SOL     OW17011   6.499   2.958   6.458 -0.0311  0.0839  0.0097
 4686SOL    HW117012   6.502   3.011   6.378  0.0397 -0.4354 -0.3383
 4686SOL    HW217013   6.505   3.022   6.529  1.0245  0.4798 -0.4074
 4687SOL     OW17014   0.783   0.312   6.274  0.2557  0.8056 -0.1017
 4687SOL    HW117015   0.844   0.239   6.283  0.0331  0.1193 -3.0148
 4687SOL    HW217016   0.837   0.387   6.249  0.3761  1.4825  1.9988
 4688SOL     OW17017   7.647   4.554   2.798 -0.4378  0.3775  0.6851
 4688SOL    HW117018   7.669   4.566   2.705  0.2704  0.1667  0.8195
 4688SOL    HW217019   7.730   4.531   2.839 -1.0535 -1.3950  1.0578
 4689SOL     OW17020   1.500   8.060   7.323 -0.2385 -0.0884 -0.0242
 4689SOL    HW117021   1.550   8.077   7.402  2.0309 -2.6822 -0.7523
 4689SOL    HW217022   1.514   8.138   7.268 -1.0688  1.3130  1.6685
 4690SOL     OW17023   4.800   3.409   5.780  0.8013 -0.0467  0.1080
 4690SOL    HW117024   4.821   3.328   5.826  0.5825  0.4623  1.1198
 4690SOL    HW217025   4.740   3.381   5.711  1.4726 -0.8806 -0.1728
 4691SOL     OW17026   2.949   3.940   5.398  0.0190  0.3335 -0.1165
 4691SOL    HW117027   3.043   3.945   5.416 -0.2187  0.3563  1.2190
 4691SOL    HW217028   2.943   3.931   5.303  1.3362  1.1098 -0.2928
 4692SOL     OW17029   5.560   3.485   0.670 -0.1514  0.0678  0.4553
 4692SOL    HW117030   5.596   3.432   0.742 -1.5041 -0.0326  1.0849
 4692SOL    HW217031   5.585   3.575   0.691  0.0345 -0.0372  0.6891
 4693SOL     OW17032   0.116   0.533   5.082 -0.2210  0.1920 -0.0331
 4693SOL    HW117033   0.021   0.526   5.084 -0.2066  0.0390  0.0982
 4693SOL    HW217034   0.133   0.606   5.022 -0.4165  0.1341 -0.1615
 4694SOL     OW17035   3.228   0.112   6.355 -0.7126 -0.1060  0.6212
 4694SOL    HW117036   3.249   0.201   6.328 -1.8869  0.0065  0.0227
 4694SOL    HW217037   3.294   0.058   6.311 -2.0969  0.1417 -1.9779
 4695SOL     OW17038   2.305   5.477   7.297 -0.5337 -0.2655 -0.5881
 4695SOL    HW117039   2.387   5.484   7.249 -0.6198 -0.7682 -0.8168
 4695SOL    HW217040   2.332   5.474   7.389 -0.3765  0.7779 -0.5954
 4696SOL     OW17041   5.234   1.927   4.410  0.0699 -0.0937 -0.1525
 4696SOL    HW117042   5.249   2.017   4.437  1.2581 -0.3226 -0.0068
 4696SOL    HW217043   5.138   1.919   4.406 -0.0510  1.5124 -1.3492
 4697SOL     OW17044   4.978   2.148   4.301 -0.2596  0.0960  0.1565
 4697SOL    HW117045   4.926   2.068   4.295 -1.9277  1.0341  1.3009
 4697SOL    HW217046   4.947   2.202   4.228 -2.0652  1.2629  1.7188
 4698SOL     OW17047   0.692   7.710   4.941 -0.2822  0.1358  0.5048
 4698SOL    HW117048   0.754   7.646   4.906  0.7619  0.3902  1.8121
 4698SOL    HW217049   0.623   7.715   4.874  0.7119 -0.7112 -0.6416
 4699SOL     OW17050   4.440   3.144   2.458  0.4991  0.0966  0.0903
 4699SOL    HW117051   4.467   3.236   2.451  1.4993 -0.2740 -1.2705
 4699SOL    HW217052   4.491   3.110   2.532  1.5400  0.1893 -0.5569
 4700SOL     OW17053   7.582   3.558   0.397 -0.2830  0.5052 -0.3388
 4700SOL    HW117054   7.574   3.653   0.397 -1.9241  0.4066  1.1984
 4700SOL    HW217055   7.656   3.540   0.455 -1.2156  0.8048  0.9826
 4701SOL     OW17056   3.925   8.052   5.143  0.6346  0.5788 -0.0474
 4701SOL    HW117057   3.916   8.091   5.230 -0.1516  1.2130 -0.4042
 4701SOL    HW217058   3.924   7.957   5.159  0.3660  0.6868  0.6206
 4702SOL     OW17059   4.389   3.917   4.184 -0.5359 -0.1089 -0.7704
 4702SOL    HW117060   4.334   3.867   4.245 -0.4622 -0.7656 -1.2338
 4702SOL    HW217061   4.476   3.877   4.193 -0.7003 -0.7312 -1.8878
 4703SOL     OW17062   0.951   3.414   4.079 -0.3059  0.2480 -0.4323
 4703SOL    HW117063   1.026   3.418   4.019  0.7456 -3.4073  0.3495
 4703SOL    HW217064   0.989   3.432   4.166 -0.9163  1.0631 -0.3267
 4704SOL     OW17065   2.976   7.916   0.939 -0.0463 -0.6632 -0.2896
 4704SOL    HW117066   2.905   7.953   0.886  0.1434  1.8701  1.0901
 4704SOL    HW217067   2.937   7.840   0.982 -2.1088  0.9375  0.8075
 4705SOL     OW17068   5.902   2.596   0.214 -0.1958 -0.4114  0.1861
 4705SOL    HW117069   5.866   2.672   0.260  1.6583  1.7311 -1.7005
 4705SOL    HW217070   5.848   2.523   0.245 -3.1873  1.8653  0.8665
 4706SOL     OW17071   2.766   2.400   7.528  0.8634 -0.3387  0.1823
 4706SOL    HW117072   2.757   2.384   7.622  0.9053 -1.7968 -0.0398
 4706SOL    HW217073   2.730   2.487   7.515 -0.1346 -0.5382  1.4015
 4707SOL     OW17074   2.009   3.941   5.085 -0.0049  0.1575 -0.2759
 4707SOL    HW117075   2.022   4.022   5.035  0.5303  0.8003  0.8635
 4707SOL    HW217076   2.086   3.936   5.141  0.2999 -1.5145 -0.8044
 4708SOL     OW17077   1.283   0.514   2.728 -0.2979  0.5900  0.2850
 4708SOL    HW117078   1.239   0.491   2.810 -1.8317  1.3918 -0.2774
 4708SOL    HW217079   1.292   0.609   2.731 -1.1354  0.7254 -0.8275
 4709SOL     OW17080   5.969   7.610   6.785  0.1443 -0.1932  0.2451
 4709SOL    HW117081   5.963   7.702   6.812 -0.6551  0.1472 -1.0036
 4709SOL    HW217082   5.891   7.596   6.732  1.1441 -1.0806 -1.0581
 4710SOL     OW17083   0.464   5.602   7.009  0.2595 -0.1033  0.0366
 4710SOL    HW117084   0.421   5.601   6.923 -0.7834 -0.1762  0.5386
 4710SOL    HW217085   0.517   5.682   7.009  0.4182 -0.1999 -0.7356
 4711SOL     OW17086   3.325   6.536   4.234  0.2117  0.5213 -0.2064
 4711SOL    HW117087   3.323   6.440   4.235 -0.9217  0.4612 -2.1391
 4711SOL    HW217088   3.386   6.558   4.163 -0.8848  1.1475 -0.9959
 4712SOL     OW17089   0.973   4.355   0.664 -0.2102  0.3255  0.0861
 4712SOL    HW117090   1.019   4.271   0.667 -2.3634 -1.1055 -2.4293
 4712SOL    HW217091   0.897   4.343   0.721  1.0007  1.7133  2.0913
 4713SOL     OW17092   2.073   6.877   4.886 -0.1350 -0.3748  0.9379
 4713SOL    HW117093   2.119   6.796   4.911 -0.6642 -0.4497  1.7286
 4713SOL    HW217094   2.143   6.941   4.873  0.3319 -1.1037 -0.3164
 4714SOL     OW17095   4.911   4.713   2.357  0.0124  0.2140  0.3456
 4714SOL    HW117096   4.879   4.724   2.447  1.2399  2.8246  0.5493
 4714SOL    HW217097   4.920   4.802   2.324 -1.2826 -0.6777 -2.7456
 4715SOL     OW17098   7.373   4.736   5.291  0.3860 -0.2821  0.3813
 4715SOL    HW117099   7.304   4.692   5.341  0.4057 -1.3367 -0.4744
 4715SOL    HW217100   7.449   4.680   5.303  1.2790  1.1326  1.7307
 4716SOL     OW17101   7.652   2.871   2.529  0.3991 -0.3914  0.1461
 4716SOL    HW117102   7.643   2.831   2.616 -0.2377  1.3959  0.9406
 4716SOL    HW217103   7.636   2.964   2.543 -0.6721 -0.1817 -2.0697
 4717SOL     OW17104   4.212   2.734   5.539  0.6579 -0.1174 -0.3607
 4717SOL    HW117105   4.234   2.827   5.534 -1.4746  0.4621 -0.0016
 4717SOL    HW217106   4.281   2.690   5.489  2.2567  1.5338  0.2651
 4718SOL     OW17107   3.991   0.963   3.315 -0.2321  0.3705 -0.2137
 4718SOL    HW117108   4.023   1.052   3.296  0.5798 -0.4628 -3.4126
 4718SOL    HW217109   4.070   0.913   3.333 -0.6709  0.2080  1.3431
 4719SOL     OW17110   5.285   7.860   7.045 -0.3181  0.3576 -0.1493
 4719SOL    HW117111   5.282   7.885   7.138 -1.1580  0.1687 -0.1133
 4719SOL    HW217112   5.238   7.777   7.041  0.6247 -0.1601 -0.5953
 4720SOL     OW17113   7.823   2.321   5.569 -0.0740 -0.0410 -0.1234
 4720SOL    HW117114   7.913   2.306   5.599  0.0100 -0.0040 -0.3539
 4720SOL    HW217115   7.827   2.307   5.474  0.3477  2.8372 -0.6324
 4721SOL     OW17116   1.365   0.802   4.742  0.0923  0.0279  0.7897
 4721SOL    HW117117   1.323   0.833   4.822  0.4215 -1.3524  1.5325
 4721SOL    HW217118   1.325   0.716   4.726 -0.9657  0.8269 -1.3217
 4722SOL     OW17119   3.506   3.406   0.236 -0.3467 -0.6920 -0.5452
 4722SOL    HW117120   3.432   3.466   0.235  0.0513 -0.1873 -1.1425
 4722SOL    HW217121   3.485   3.342   0.304 -0.1287  0.9571  1.1602
 4723SOL     OW17122   7.554   5.424   7.337  0.1028 -0.6489  0.3915
 4723SOL    HW117123   7.463   5.406   7.315 -0.1900 -0.7925  1.6509
 4723SOL    HW217124   7.579   5.354   7.397  1.6533 -1.7171 -1.3865
 4724SOL     OW17125   6.113   3.269   7.094 -0.3244  0.6220 -0.4602
 4724SOL    HW117126   6.131   3.363   7.084  0.5096  0.4211 -0.9954
 4724SOL    HW217127   6.187   3.236   7.144 -0.3001  0.1402 -0.8158
 4725SOL     OW17128   3.754   1.762   8.064 -0.3385  0.0781  0.0443
 4725SOL    HW117129   3.661   1.780   8.074 -0.5697 -1.8606  2.4351
 4725SOL    HW217130   3.763   1.670   8.089  2.3048  0.3876  0.4845
 4726SOL     OW17131   3.263   5.344   7.751 -0.0255  0.0512 -0.0541
 4726SOL    HW117132   3.223   5.339   7.663 -0.1798  0.0712  0.0143
 4726SOL    HW217133   3.221   5.273   7.800  0.6934 -0.5173 -0.2483
 4727SOL     OW17134   5.840   2.271   0.076 -0.4460 -0.6957  0.0726
 4727SOL    HW117135   5.818   2.184   0.109  0.1272 -1.3457 -1.1704
 4727SOL    HW217136   5.758   2.307   0.044 -0.7304 -0.6634  0.8185
 4728SOL     OW17137   4.594   7.250   3.607 -0.0065 -0.7824  0.6920
 4728SOL    HW117138   4.584   7.195   3.529 -2.7025  1.0873 -0.4253
 4728SOL    HW217139   4.572   7.192   3.680  0.1897 -1.9495 -0.1418
 4729SOL     OW17140   4.208   7.224   5.736  0.5666 -0.1214 -0.2548
 4729SOL    HW117141   4.211   7.137   5.696  0.7021 -0.1626 -0.1554
 4729SOL    HW217142   4.153   7.276   5.678 -1.0382 -0.7678  0.6466
 4730SOL     OW17143   3.361   0.302   2.627  0.6231  0.1772 -0.1278
 4730SOL    HW117144   3.303   0.232   2.597 -1.5844  1.3265  1.1511
 4730SOL    HW217145   3.370   0.286   2.721  0.0188  1.6204  0.1931
 4731SOL     OW17146   4.689   2.649   0.681  0.2445 -0.0831  0.1213
 4731SOL    HW117147   4.750   2.595   0.632  0.0009 -0.4831  0.2558
 4731SOL    HW217148   4.675   2.602   0.764 -0.4714 -0.1571 -0.0314
 4732SOL     OW17149   3.125   5.424   1.621  0.4714  0.3299  0.0558
 4732SOL    HW117150   3.104   5.517   1.632  0.6848  0.7064 -2.2578
 4732SOL    HW217151   3.129   5.411   1.526  1.2664 -1.8700  0.3302
 4733SOL     OW17152   1.732   3.636   1.013  0.1791  0.2511 -0.1414
 4733SOL    HW117153   1.766   3.561   1.063  0.5453  1.4782  1.5786
 4733SOL    HW217154   1.661   3.601   0.961  1.8454 -1.7470 -1.2121
 4734SOL     OW17155   3.718   7.479   7.161  0.2359 -0.1549  0.2127
 4734SOL    HW117156   3.768   7.434   7.093 -0.7034 -1.6216  0.4545
 4734SOL    HW217157   3.732   7.572   7.143  0.0430 -0.5027 -1.9830
 4735SOL     OW17158   5.677   6.899   1.830 -0.2970 -0.3297  0.5073
 4735SOL    HW117159   5.766   6.912   1.796 -0.4122 -0.2499  0.2310
 4735SOL    HW217160   5.682   6.929   1.921  0.0230 -0.5707  0.5721
 4736SOL     OW17161   2.308   7.733   6.231 -0.9477  0.2137  0.1733
 4736SOL    HW117162   2.364   7.665   6.193  0.9884  1.7323  0.1708
 4736SOL    HW217163   2.306   7.802   6.165 -0.4804  1.3768  1.3415
 4737SOL     OW17164   0.914   2.473   4.853 -0.3008  0.0613  0.1364
 4737SOL    HW117165   0.839   2.479   4.793  1.0489  2.8499 -1.4988
 4737SOL    HW217166   0.886   2.518   4.932 -0.1069  2.0104 -0.8519
 4738SOL     OW17167   6.684   4.295   5.137  0.7276  0.0853  0.0121
 4738SOL    HW117168   6.652   4.318   5.224 -2.0098  0.3511 -0.9549
 4738SOL    HW217169   6.689   4.379   5.090  1.7954 -0.0990 -0.2473
 4739SOL     OW17170   5.703   2.107   3.497 -0.4557 -0.0619  0.3477
 4739SOL    HW117171   5.694   2.021   3.538  0.4138 -0.6202 -0.5792
 4739SOL    HW217172   5.613   2.140   3.491 -0.5674  0.5617  3.6465
 4740SOL     OW17173   0.359   4.455   7.690 -0.3886 -0.0459  0.1353
 4740SOL    HW117174   0.330   4.458   7.781 -0.2912  0.9151  0.1416
 4740SOL    HW217175   0.299   4.514   7.643 -1.1839 -1.4228 -0.6439
 4741SOL     OW17176   2.135   7.358   6.448 -0.5069  0.0448 -0.6971
 4741SOL    HW117177   2.162   7.433   6.500 -1.5412 -0.2625  0.3184
 4741SOL    HW217178   2.199   7.354   6.377 -0.0041  1.4351 -0.3583
 4742SOL     OW17179   4.949   2.142   2.260  0.4300  0.0654 -0.2206
 4742SOL    HW117180   5.020   2.132   2.324  0.4981  1.2329 -0.0876
 4742SOL    HW217181   4.986   2.112   2.178  0.4877 -1.0334  0.1860
 4743SOL     OW17182   7.463   3.797   6.171 -0.5224 -0.7192  0.7600
 4743SOL    HW117183   7.405   3.777   6.097  1.3709  1.8104 -1.5749
 4743SOL    HW217184   7.550   3.769   6.143  0.2379  0.1957  2.0712
 4744SOL     OW17185   3.664   7.771   8.051 -0.3313 -0.0792  0.0843
 4744SOL    HW117186   3.670   7.717   8.129  1.5676  1.1872  0.8969
 4744SOL    HW217187   3.748   7.760   8.007 -0.5048  0.9580 -0.5599
 4745SOL     OW17188   4.227   3.139   3.097  0.1300  0.4833 -0.0530
 4745SOL    HW117189   4.187   3.066   3.144  0.1074  0.7317  0.3150
 4745SOL    HW217190   4.218   3.116   3.005 -2.4099  1.3409 -0.0827
 4746SOL     OW17191   5.554   3.362   5.587  0.4778  0.2121 -0.0341
 4746SOL    HW117192   5.620   3.349   5.655  1.6814  1.8945 -0.7919
 4746SOL    HW217193   5.520   3.275   5.569  0.5498 -0.3549  2.2745
 4747SOL     OW17194   3.480   6.137   5.662 -0.3277  0.2679 -0.4973
 4747SOL    HW117195   3.487   6.075   5.590  0.7414  0.6151 -0.7161
 4747SOL    HW217196   3.519   6.092   5.737  1.8286  1.1699 -1.0127
 4748SOL     OW17197   2.710   1.244   6.168  0.6235 -0.2254 -0.0756
 4748SOL    HW117198   2.627   1.217   6.207  0.3663  0.8685  0.1553
 4748SOL    HW217199   2.776   1.197   6.218  0.1757 -0.6778  0.1034
 4749SOL     OW17200   2.542   0.632   1.804 -0.7784  0.8718  0.1075
 4749SOL    HW117201   2.601   0.676   1.865 -1.2928 -0.1935  1.4385
 4749SOL    HW217202   2.491   0.703   1.765 -0.2227  1.6174  0.6926
 4750SOL     OW17203   4.909   7.423   1.371  0.3744  0.5682  0.3525
 4750SOL    HW117204   4.827   7.430   1.420 -0.3820  1.2036 -0.9644
 4750SOL    HW217205   4.882   7.411   1.280  1.7490  0.7905 -0.1078
 4751SOL     OW17206   5.286   2.671   5.467  1.1542 -0.3283  1.0289
 4751SOL    HW117207   5.339   2.651   5.544 -0.6964 -0.0495  2.4607
 4751SOL    HW217208   5.247   2.587   5.442  2.3940 -0.5839 -0.1807
 4752SOL     OW17209   1.029   5.233   8.111 -0.1112 -0.0555 -0.3127
 4752SOL    HW117210   0.959   5.176   8.079  0.7095 -0.2432 -1.8798
 4752SOL    HW217211   1.034   5.303   8.046  0.5361  0.4709  0.2933
 4753SOL     OW17212   6.948   2.909   7.485  0.4171 -0.4539  0.3635
 4753SOL    HW117213   7.035   2.907   7.526  0.9497 -0.0486 -0.7063
 4753SOL    HW217214   6.924   2.817   7.474 -0.2388 -0.6079  2.5450
 4754SOL     OW17215   1.000   1.464   5.717 -0.8646 -0.0116  0.5454
 4754SOL    HW117216   0.998   1.477   5.812 -1.9450  0.0570  0.5267
 4754SOL    HW217217   1.090   1.486   5.691  0.3867 -2.9853  1.9383
 4755SOL     OW17218   4.600   2.202   1.926 -0.1204 -0.3392  0.3806
 4755SOL    HW117219   4.595   2.289   1.965 -2.4879 -1.1713  2.1799
 4755SOL    HW217220   4.596   2.142   2.001  0.0293 -2.0081 -0.8982
 4756SOL     OW17221   3.277   3.876   1.378 -0.0778  0.4070 -0.2273
 4756SOL    HW117222   3.258   3.844   1.290 -0.9046  0.2581 -0.0109
 4756SOL    HW217223   3.355   3.828   1.405  0.2355  0.5276 -0.9158
 4757SOL     OW17224   3.297   3.974   7.639  0.5754  0.3096  0.1055
 4757SOL    HW117225   3.257   3.957   7.724 -0.0170  1.7935  0.1536
 4757SOL    HW217226   3.391   3.969   7.655  0.4923  1.4100  1.0491
 4758SOL     OW17227   2.152   1.724   3.640 -0.0900 -0.2109 -0.8121
 4758SOL    HW117228   2.144   1.653   3.577  1.7692  0.3675 -1.7762
 4758SOL    HW217229   2.198   1.686   3.715 -0.5203 -0.4020 -0.6413
 4759SOL     OW17230   5.091   4.457   6.626  0.0551  0.5490  1.0705
 4759SOL    HW117231   5.061   4.447   6.536 -1.5664  1.1432  1.4981
 4759SOL    HW217232   5.183   4.483   6.619 -0.0367  0.5289 -0.3991
 4760SOL     OW17233   5.910   2.650   5.650 -0.4557  0.3295  0.0339
 4760SOL    HW117234   5.913   2.693   5.565  0.6583 -0.0633 -0.1433
 4760SOL    HW217235   6.000   2.654   5.682 -0.7812  0.1142  1.0142
 4761SOL     OW17236   0.630   5.272   1.798  0.1167 -0.2408 -0.0001
 4761SOL    HW117237   0.690   5.344   1.815  1.6607 -1.6296  0.7583
 4761SOL    HW217238   0.586   5.296   1.717  4.8584 -0.9822 -3.2013
 4762SOL     OW17239   2.190   4.231   2.219  0.6731  0.2712  0.2513
 4762SOL    HW117240   2.249   4.185   2.278  0.3562 -0.4951 -0.0175
 4762SOL    HW217241   2.243   4.303   2.184  1.4722 -0.4351 -0.0307
 4763SOL     OW17242   5.637   2.810   6.355 -0.4193 -0.1222  0.0597
 4763SOL    HW117243   5.720   2.762   6.361 -0.4017  0.0255  1.2696
 4763SOL    HW217244   5.615   2.808   6.262 -0.2104 -2.1348 -0.0009
 4764SOL     OW17245   2.048   2.896   6.580 -0.0263  0.1528  0.1173
 4764SOL    HW117246   2.142   2.912   6.586  0.3749 -1.5501 -0.9273
 4764SOL    HW217247   2.023   2.932   6.495  0.5272 -2.7477 -1.4088
 4765SOL     OW17248   4.744   5.238   7.857  0.4642  0.1308 -0.4161
 4765SOL    HW117249   4.651   5.259   7.859  0.5868  0.9247 -1.6895
 4765SOL    HW217250   4.756   5.172   7.926 -1.3513 -1.2698 -1.3683
 4766SOL     OW17251   7.438   0.032   8.063 -0.2550 -0.2660  0.3682
 4766SOL    HW117252   7.385   0.059   8.139 -0.1289 -1.6758  0.9899
 4766SOL    HW217253   7.495  -0.038   8.097 -0.6604 -1.3990 -1.1859
 4767SOL     OW17254   6.853   7.051   5.379 -0.3704 -0.5492 -0.3916
 4767SOL    HW117255   6.770   7.026   5.421  0.7861 -1.0241  1.7407
 4767SOL    HW217256   6.850   7.147   5.376 -0.5589 -0.5059  0.6992
 4768SOL     OW17257   3.536   2.247   6.257  0.4390  0.1527 -0.0201
 4768SOL    HW117258   3.467   2.293   6.306 -0.6718 -1.3064 -0.1358
 4768SOL    HW217259   3.523   2.155   6.278  1.2190 -0.3255 -1.4786
 4769SOL     OW17260   5.211   4.070   4.085  0.1672  0.3540  0.0223
 4769SOL    HW117261   5.223   4.083   3.991 -1.0132  1.1762 -0.0368
 4769SOL    HW217262   5.264   3.993   4.105 -0.5246 -0.6074 -1.5560
 4770SOL     OW17263   4.593   2.710   3.638 -0.1088  0.2477 -0.3064
 4770SOL    HW117264   4.500   2.731   3.628  0.1185  0.9976 -0.9657
 4770SOL    HW217265   4.631   2.727   3.552  0.4061 -1.3599 -0.4364
 4771SOL     OW17266   1.541   1.116   8.060  0.4270 -0.3011 -0.4265
 4771SOL    HW117267   1.632   1.099   8.084  0.6010 -0.4730 -1.1801
 4771SOL    HW217268   1.497   1.136   8.143  0.8205 -1.6834  0.1277
 4772SOL     OW17269   3.620   6.241   7.808  0.2709  0.4868  0.1163
 4772SOL    HW117270   3.684   6.311   7.818  0.1763  1.2296 -3.1674
 4772SOL    HW217271   3.561   6.251   7.882  2.0331  1.8919  1.4153
 4773SOL     OW17272   8.129   4.862   7.522  0.1111 -0.1131 -0.6667
 4773SOL    HW117273   8.169   4.780   7.494 -0.2939 -1.5752  2.5721
 4773SOL    HW217274   8.037   4.841   7.534 -0.4691  1.4983 -1.9493
 4774SOL     OW17275   4.831   4.173   4.630  0.3586 -0.4413 -0.1555
 4774SOL    HW117276   4.759   4.132   4.583  0.0710  0.0242 -0.1283
 4774SOL    HW217277   4.909   4.129   4.596  0.1278 -0.3742 -0.7933
 4775SOL     OW17278   7.708   0.345   2.007  0.1237 -0.4217 -0.0220
 4775SOL    HW117279   7.775   0.304   1.954  0.0695 -0.8620  0.2426
 4775SOL    HW217280   7.647   0.384   1.944  0.6787  0.0705 -0.2584
 4776SOL     OW17281   3.434   5.953   1.777 -0.0811 -0.1016  0.0843
 4776SOL    HW117282   3.393   5.942   1.863  1.0714 -0.4940  0.6015
 4776SOL    HW217283   3.366   5.994   1.724 -0.6232  0.7168  1.3453
 4777SOL     OW17284   4.357   0.459   5.769 -0.0780  0.1829  0.1381
 4777SOL    HW117285   4.436   0.511   5.779 -0.0165  0.0394  0.3770
 4777SOL    HW217286   4.358   0.397   5.842 -0.5875  0.4147  0.3475
 4778SOL     OW17287   3.010   5.481   7.060  0.2002  0.0933  0.0088
 4778SOL    HW117288   3.065   5.470   6.982  0.5759  0.8246  0.1558
 4778SOL    HW217289   2.964   5.398   7.069  0.2729 -0.0583 -0.8995
 4779SOL     OW17290   7.779   8.030   1.139  0.1618 -0.0176 -0.4346
 4779SOL    HW117291   7.747   8.106   1.188 -0.1730  0.7699 -1.8260
 4779SOL    HW217292   7.780   8.059   1.048  0.0682 -1.6751 -0.9953
 4780SOL     OW17293   6.406   2.038   1.077 -0.0237 -0.6645  0.1740
 4780SOL    HW117294   6.372   2.124   1.103  0.0029 -0.2924 -0.9678
 4780SOL    HW217295   6.342   1.976   1.112 -0.4808 -0.1221  0.3164
 4781SOL     OW17296   6.121   4.030   6.404  0.5282  0.1294 -0.4227
 4781SOL    HW117297   6.120   4.126   6.400 -0.8814  0.1148 -1.6841
 4781SOL    HW217298   6.033   4.005   6.375  0.1577 -1.5039  1.8957
 4782SOL     OW17299   0.979   6.255   1.259  0.0294  0.1805  0.6608
 4782SOL    HW117300   0.975   6.162   1.237 -1.5430  0.1458  1.0212
 4782SOL    HW217301   0.993   6.299   1.175  1.7066 -0.4038  0.5937
 4783SOL     OW17302   1.690   5.751   7.406  0.3538 -0.6267  0.0951
 4783SOL    HW117303   1.631   5.692   7.360 -0.2458 -0.3678  0.5198
 4783SOL    HW217304   1.717   5.815   7.339 -0.8474 -0.0021  0.1881
 4784SOL     OW17305   7.100   7.474   7.456  0.3289 -0.4780 -0.3238
 4784SOL    HW117306   7.137   7.432   7.378 -1.7005 -0.9202 -1.1003
 4784SOL    HW217307   7.061   7.402   7.506 -0.4623  0.0943 -0.0965
 4785SOL     OW17308   1.695   0.016   4.055  0.0385 -0.5109  1.1555
 4785SOL    HW117309   1.778   0.058   4.033 -0.2922  0.5536  1.8895
 4785SOL    HW217310   1.683   0.033   4.148 -0.2442 -2.0375  1.4330
 4786SOL     OW17311   2.950   5.314   0.649 -0.2198  0.1403  0.4605
 4786SOL    HW117312   2.967   5.272   0.733 -1.0548 -3.2845 -0.9346
 4786SOL    HW217313   3.012   5.274   0.588 -1.3415  0.6216 -1.0750
 4787SOL     OW17314   0.526   1.820   5.344  0.0005 -0.0150 -0.6419
 4787SOL    HW117315   0.475   1.901   5.339  0.9151  0.7861  1.5363
 4787SOL    HW217316   0.462   1.754   5.371 -0.3666  0.4351 -0.3846
 4788SOL     OW17317   3.081   7.538   2.332  0.3249  0.0251 -0.1246
 4788SOL    HW117318   3.115   7.567   2.417  1.1870  1.3520 -0.8995
 4788SOL    HW217319   3.011   7.601   2.312 -1.7217 -1.8148  0.7673
 4789SOL     OW17320   0.603   1.183   1.351 -0.7628 -0.2998  0.8385
 4789SOL    HW117321   0.667   1.153   1.286 -0.7681  0.6107  0.3952
 4789SOL    HW217322   0.655   1.200   1.430 -0.5717 -0.2643  0.7048
 4790SOL     OW17323   2.411   6.859   4.139 -0.1866  0.1518  0.4105
 4790SOL    HW117324   2.419   6.939   4.192 -0.8245  0.3515  0.2125
 4790SOL    HW217325   2.474   6.798   4.178  1.7651  1.3868 -0.6318
 4791SOL     OW17326   1.229   3.246   0.212  0.2120  1.1040 -0.0575
 4791SOL    HW117327   1.264   3.320   0.161  1.2463 -0.0809 -1.1439
 4791SOL    HW217328   1.143   3.229   0.174  0.2039  1.3965 -0.1732
 4792SOL     OW17329   2.131   6.014   2.332 -0.2428 -0.2523  0.2039
 4792SOL    HW117330   2.187   5.943   2.300  0.6434  0.4483  0.1567
 4792SOL    HW217331   2.109   6.064   2.253  0.6512  0.5686  0.4541
 4793SOL     OW17332   4.466   6.979   3.589  0.3812 -0.2378  0.1012
 4793SOL    HW117333   4.478   6.887   3.610 -0.7574 -0.5249 -0.4518
 4793SOL    HW217334   4.459   7.023   3.673  1.6111 -0.5473  0.3817
 4794SOL     OW17335   6.052   5.936   4.154  0.0122  0.1203  0.3515
 4794SOL    HW117336   5.987   5.865   4.159  1.3368 -1.1767  0.0479
 4794SOL    HW217337   6.008   6.011   4.193 -0.7509 -1.3819  2.5971
 4795SOL     OW17338   6.371   1.475   5.689 -0.7202  0.2057 -0.1674
 4795SOL    HW117339   6.388   1.565   5.716  1.8594 -0.5439  1.0893
 4795SOL    HW217340   6.390   1.474   5.595  1.9321  0.5234  0.2700
 4796SOL     OW17341   7.552   3.412   3.162 -0.7504 -0.6585  0.2885
 4796SOL    HW117342   7.559   3.319   3.140 -0.5430 -0.5341 -0.1884
 4796SOL    HW217343   7.521   3.414   3.252 -1.9198 -1.1899 -0.0875
 4797SOL     OW17344   4.742   0.994   4.773  0.1559 -0.1883  0.9693
 4797SOL    HW117345   4.687   1.061   4.732  0.2250 -1.3711 -1.1862
 4797SOL    HW217346   4.743   1.017   4.866 -3.5583  0.1720  1.0540
 4798SOL     OW17347   5.502   2.775   5.279 -0.1458 -0.2318 -0.0729
 4798SOL    HW117348   5.492   2.835   5.352 -0.2363 -0.2410 -0.0785
 4798SOL    HW217349   5.432   2.711   5.290 -0.4135 -0.0000 -0.3953
 4799SOL     OW17350   6.051   7.815   2.004 -0.0371 -0.3130 -0.1663
 4799SOL    HW117351   6.004   7.734   2.024 -0.0077 -0.0759  0.9684
 4799SOL    HW217352   6.014   7.845   1.921 -0.7594 -0.9555 -0.0921
 4800SOL     OW17353   5.225   1.530   0.838 -0.0058  0.3957 -0.3770
 4800SOL    HW117354   5.244   1.488   0.922 -1.8457  0.6754  0.2394
 4800SOL    HW217355   5.294   1.595   0.827  0.4650  0.1062  0.7500
 4801SOL     OW17356   4.008   8.088   5.894  0.1239  0.3118 -0.5658
 4801SOL    HW117357   3.925   8.043   5.881  0.0376  0.1898  0.3400
 4801SOL    HW217358   4.006   8.117   5.985  1.6921 -0.9584 -0.0890
 4802SOL     OW17359   5.498   5.489   6.328 -0.0900 -0.4546 -0.1292
 4802SOL    HW117360   5.580   5.440   6.319 -0.4506 -1.5206  1.7182
 4802SOL    HW217361   5.435   5.424   6.362 -1.3954  0.6031 -0.4367
 4803SOL     OW17362   3.221   1.423   5.154 -0.0166 -0.0381  0.5969
 4803SOL    HW117363   3.198   1.336   5.123 -0.3773  0.6228 -1.1296
 4803SOL    HW217364   3.315   1.431   5.135  0.1214 -0.2091  1.1881
 4804SOL     OW17365   2.935   5.103   7.264 -0.0772  0.3051 -0.0042
 4804SOL    HW117366   2.870   5.053   7.215 -0.2277  1.9763 -1.6497
 4804SOL    HW217367   2.903   5.193   7.260  1.7124  0.9849  0.1871
 4805SOL     OW17368   2.355   6.494   5.748  0.0617  0.4363 -0.5059
 4805SOL    HW117369   2.436   6.503   5.798 -1.0001  0.7087  1.2307
 4805SOL    HW217370   2.305   6.573   5.768 -0.5604  0.3702 -1.7165
 4806SOL     OW17371   0.473   3.084   2.632 -0.2081  0.7892 -0.2939
 4806SOL    HW117372   0.436   3.140   2.700  1.4609  0.8784  0.5994
 4806SOL    HW217373   0.430   3.112   2.551 -2.7180  0.2360  0.7778
 4807SOL     OW17374   7.211   5.477   3.140  0.5497  0.5810 -0.0825
 4807SOL    HW117375   7.217   5.566   3.174  0.8651  0.8919 -0.9224
 4807SOL    HW217376   7.280   5.472   3.074  0.4033 -0.2218 -0.1844
 4808SOL     OW17377   2.798   5.671   2.005 -0.1411  0.0482  0.1702
 4808SOL    HW117378   2.887   5.636   1.993  0.6051  1.3379  1.6417
 4808SOL    HW217379   2.748   5.634   1.931  1.4780 -1.0922 -0.4228
 4809SOL     OW17380   1.845   3.768   6.787  0.0884  0.0175  0.0630
 4809SOL    HW117381   1.873   3.711   6.858 -0.5420 -1.3395 -0.7440
 4809SOL    HW217382   1.796   3.838   6.831 -0.2383 -0.7554  0.9660
 4810SOL     OW17383   6.381   3.344   6.460  0.2077  0.2588 -0.7695
 4810SOL    HW117384   6.306   3.293   6.493  0.1844  0.5171 -0.4181
 4810SOL    HW217385   6.454   3.317   6.516 -0.3072  2.3889  1.0808
 4811SOL     OW17386   4.839   2.596   2.845  0.1031  0.2960  0.3509
 4811SOL    HW117387   4.929   2.563   2.844  0.2613  0.7262 -0.5557
 4811SOL    HW217388   4.847   2.690   2.825 -0.5568  0.2930  0.0249
 4812SOL     OW17389   4.507   6.605   5.447  0.0430  0.2798  0.5846
 4812SOL    HW117390   4.438   6.655   5.491  0.5195  1.1970  0.2971
 4812SOL    HW217391   4.511   6.523   5.496 -2.6059 -0.6555 -0.5773
 4813SOL     OW17392   1.270   2.081   0.027 -0.0393  0.1143  0.4806
 4813SOL    HW117393   1.259   1.986   0.039 -0.2127  0.1823  0.8524
 4813SOL    HW217394   1.193   2.120   0.068 -0.1476  0.4018  0.0095
 4814SOL     OW17395   3.369   7.641   1.153 -0.2928 -0.1935  0.0554
 4814SOL    HW117396   3.351   7.548   1.139  3.2597 -0.6865 -2.7103
 4814SOL    HW217397   3.305   7.687   1.098 -2.1496 -0.8952  1.5285
 4815SOL     OW17398   3.194   7.298   5.928 -0.5626 -0.2905 -0.2347
 4815SOL    HW117399   3.249   7.222   5.907 -0.1749 -0.1421  0.2333
 4815SOL    HW217400   3.162   7.328   5.843 -2.1163 -2.0055 -0.3155
 4816SOL     OW17401   4.874   7.633   0.389 -0.0149 -0.2670  0.1089
 4816SOL    HW117402   4.915   7.706   0.343  1.5065 -0.5410  0.9684
 4816SOL    HW217403   4.796   7.613   0.337 -0.0233  1.4074 -0.6144
 4817SOL     OW17404   8.007   3.113   7.862  0.1717 -0.2127 -0.4927
 4817SOL    HW117405   8.101   3.093   7.863 -0.1892 -2.1697  0.5411
 4817SOL    HW217406   7.988   3.134   7.771  1.5142 -0.3129 -0.8245
 4818SOL     OW17407   5.380   6.602   2.156 -0.3860  0.3634  0.2920
 4818SOL    HW117408   5.405   6.516   2.124  1.3241  1.0116 -0.2111
 4818SOL    HW217409   5.449   6.626   2.219 -1.3650  0.9613  1.1774
 4819SOL     OW17410   7.824   5.821   7.251  0.0084 -0.3171 -0.2460
 4819SOL    HW117411   7.837   5.727   7.237 -0.8155 -0.2398 -1.7740
 4819SOL    HW217412   7.779   5.827   7.335  0.2853 -1.2690 -0.0176
 4820SOL     OW17413   5.091   6.214   2.265  0.1666 -0.0758  0.1819
 4820SOL    HW117414   5.157   6.152   2.296  0.3932 -0.0481 -0.2390
 4820SOL    HW217415   5.122   6.241   2.178 -0.3919 -0.0565 -0.0166
 4821SOL     OW17416   8.077   7.687   2.280 -0.4044  0.2647 -0.5319
 4821SOL    HW117417   8.034   7.662   2.198 -1.7891 -0.3492  0.3528
 4821SOL    HW217418   8.039   7.629   2.346  0.6942  0.7415  0.5559
 4822SOL     OW17419   5.649   8.006   6.989 -0.0574  0.2409  1.1705
 4822SOL    HW117420   5.728   8.054   6.963  0.1177 -0.8232 -0.4500
 4822SOL    HW217421   5.579   8.071   6.984  0.1694  0.3999 -0.9935
 4823SOL     OW17422   7.225   0.269   4.281 -0.4235  0.0311 -0.4607
 4823SOL    HW117423   7.267   0.191   4.317 -1.4433 -1.3382 -2.1151
 4823SOL    HW217424   7.294   0.311   4.228 -0.9221 -2.1216 -3.0377
 4824SOL     OW17425   6.197   1.323   5.450  0.3533 -0.1802 -0.3131
 4824SOL    HW117426   6.288   1.317   5.420  0.6556 -0.8639  0.6994
 4824SOL    HW217427   6.159   1.237   5.431  0.2242 -0.2451  0.2298
 4825SOL     OW17428   6.564   2.556   7.509 -0.3254 -0.4702  0.5309
 4825SOL    HW117429   6.542   2.602   7.589  1.3695  0.0675  0.7160
 4825SOL    HW217430   6.631   2.493   7.535  1.0733  0.4763 -0.6187
 4826SOL     OW17431   1.773   7.419   7.690 -0.2920 -0.1408  0.5775
 4826SOL    HW117432   1.746   7.369   7.612  0.2154 -0.6203  0.7052
 4826SOL    HW217433   1.861   7.450   7.669 -0.7380  1.0257  0.3545
 4827SOL     OW17434   4.161   2.617   1.203  0.4386 -0.7383  0.5598
 4827SOL    HW117435   4.201   2.554   1.264  0.5468 -1.1891  0.0334
 4827SOL    HW217436   4.095   2.662   1.255  0.7731 -0.8651  1.1085
 4828SOL     OW17437   4.941   3.218   0.787  0.2758 -0.2990 -0.1425
 4828SOL    HW117438   4.971   3.250   0.702  2.6834 -0.4298  0.5744
 4828SOL    HW217439   4.937   3.296   0.843  0.6785 -0.4831  0.1486
 4829SOL     OW17440   2.356   2.799   5.916 -0.3403 -0.2486  0.2074
 4829SOL    HW117441   2.314   2.713   5.915  2.3158 -1.6355 -0.2389
 4829SOL    HW217442   2.412   2.800   5.838  0.5034  1.4771  0.7683
 4830SOL     OW17443   0.800   7.934   2.769 -0.0256 -0.4841 -0.3712
 4830SOL    HW117444   0.804   7.926   2.674 -2.1396 -2.0609 -0.4074
 4830SOL    HW217445   0.736   8.004   2.784  2.3255  1.7350 -0.0228
 4831SOL     OW17446   5.513   3.011   4.443  0.4154 -0.0725  0.0912
 4831SOL    HW117447   5.601   3.035   4.413  0.7609 -0.0340  1.0845
 4831SOL    HW217448   5.509   2.916   4.431  0.3832  0.0004 -0.4831
 4832SOL     OW17449   6.311   6.774   3.078  0.3833 -0.5676 -0.5608
 4832SOL    HW117450   6.303   6.844   3.144 -0.5116 -1.2955  0.1274
 4832SOL    HW217451   6.373   6.809   3.014  0.4062  0.6223  0.0756
 4833SOL     OW17452   5.937   6.525   2.784 -0.3992  0.0392 -0.6746
 4833SOL    HW117453   5.876   6.510   2.856 -0.3274 -1.4652 -0.9016
 4833SOL    HW217454   6.020   6.547   2.827  0.0287 -2.2824 -0.2242
 4834SOL     OW17455   6.602   0.745   7.743  0.0029  0.4765  0.1975
 4834SOL    HW117456   6.653   0.825   7.726 -1.1283  1.3340  0.7202
 4834SOL    HW217457   6.525   0.754   7.688 -1.0310  0.6511  1.6166
 4835SOL     OW17458   3.451   5.191   4.473 -0.6728 -0.6197 -0.0906
 4835SOL    HW117459   3.483   5.220   4.388 -0.9426  0.0934  0.0357
 4835SOL    HW217460   3.358   5.215   4.472 -0.5942 -0.2751  0.5382
 4836SOL     OW17461   4.246   0.693   6.269  0.2377  0.2112  0.4201
 4836SOL    HW117462   4.177   0.627   6.259 -0.8620  1.3603  0.2268
 4836SOL    HW217463   4.220   0.765   6.212  0.9907  1.1613  1.2253
 4837SOL     OW17464   5.819   7.661   7.337  0.5750  0.1562 -0.9281
 4837SOL    HW117465   5.910   7.684   7.320  1.0455 -0.1410  0.9723
 4837SOL    HW217466   5.775   7.674   7.253  2.3553  0.3063 -1.8883
 4838SOL     OW17467   6.831   6.068   4.794 -0.0525 -0.1300 -0.3169
 4838SOL    HW117468   6.819   6.099   4.884  2.8209 -2.2218  0.9544
 4838SOL    HW217469   6.834   6.148   4.741 -1.2334  1.1984  1.5046
 4839SOL     OW17470   2.950   1.852   1.883 -0.2964  0.8772  0.2887
 4839SOL    HW117471   3.004   1.920   1.923  1.7128  1.1586 -2.6276
 4839SOL    HW217472   2.888   1.899   1.828  0.5697  0.4141 -1.1160
 4840SOL     OW17473   2.083   4.159   4.964  0.4277  0.2008  0.3634
 4840SOL    HW117474   2.050   4.220   4.898 -0.9672  0.6172  1.4294
 4840SOL    HW217475   2.179   4.165   4.955  0.2922 -0.0631 -1.8840
 4841SOL     OW17476   0.197   0.323   1.391 -0.2240 -0.0869 -1.5356
 4841SOL    HW117477   0.227   0.236   1.418  0.1891  0.2057 -1.0312
 4841SOL    HW217478   0.138   0.351   1.460  1.2362  0.8824 -0.6126
 4842SOL     OW17479   0.746   5.197   2.677 -0.6819  0.4170 -0.3516
 4842SOL    HW117480   0.757   5.202   2.772 -0.5110 -0.6683 -0.2981
 4842SOL    HW217481   0.784   5.278   2.644  1.4087 -0.2093  0.3509
 4843SOL     OW17482   0.949   3.677   6.134 -0.2829 -0.3496 -0.0022
 4843SOL    HW117483   0.937   3.680   6.229 -3.4162 -0.7607 -0.2782
 4843SOL    HW217484   0.939   3.768   6.106 -2.1108 -0.5338 -0.1043
 4844SOL     OW17485   1.482   7.120   3.792 -0.1926  0.0464 -0.2198
 4844SOL    HW117486   1.464   7.167   3.874  0.3555 -1.8825  1.0796
 4844SOL    HW217487   1.542   7.051   3.817  1.9542  0.8442 -2.7627
 4845SOL     OW17488   3.938   7.076   1.442 -0.3027 -0.0267  0.1091
 4845SOL    HW117489   3.874   7.056   1.511  0.4189  1.6367  1.3296
 4845SOL    HW217490   3.968   7.165   1.463  0.7672  0.0788 -1.7253
 4846SOL     OW17491   0.134   2.516   0.976 -0.2174 -0.0515  0.0970
 4846SOL    HW117492   0.135   2.611   0.964 -0.1195 -0.0653  0.0001
 4846SOL    HW217493   0.114   2.504   1.069 -1.8558  0.0446 -0.2163
 4847SOL     OW17494   6.485   0.781   1.366  0.1811 -0.1477  0.5170
 4847SOL    HW117495   6.523   0.811   1.284  0.6292  0.0646  0.8009
 4847SOL    HW217496   6.394   0.759   1.344 -0.6794  2.8839  0.5874
 4848SOL     OW17497   7.854   2.093   5.197 -0.1031  0.1336 -0.5295
 4848SOL    HW117498   7.869   2.078   5.104  0.7685 -1.3292 -0.1897
 4848SOL    HW217499   7.939   2.075   5.238  0.1560  2.9366  0.3649
 4849SOL     OW17500   7.206   3.245   5.924 -0.3845 -0.4486 -0.4205
 4849SOL    HW117501   7.207   3.152   5.945 -1.3725 -0.6848 -1.3321
 4849SOL    HW217502   7.298   3.271   5.923 -0.1565 -1.1133  1.0725
 4850SOL     OW17503   1.359   3.748   2.124 -0.1027 -0.0594  0.1371
 4850SOL    HW117504   1.277   3.720   2.084 -0.4169  0.6207  0.2845
 4850SOL    HW217505   1.380   3.679   2.186  0.0618 -0.8180 -0.7352
 4851SOL     OW17506   6.022   1.838   5.193  0.1515 -0.5421 -0.3522
 4851SOL    HW117507   5.977   1.921   5.181 -0.3251 -0.6688  0.5095
 4851SOL    HW217508   5.954   1.772   5.183 -0.1814 -0.6905  2.2267
 4852SOL     OW17509   1.779   4.399   3.819  0.3947 -0.4525 -0.4296
 4852SOL    HW117510   1.817   4.315   3.842  0.6156 -1.0074 -2.6120
 4852SOL    HW217511   1.791   4.453   3.898  0.8498 -2.2260  0.7774
 4853SOL     OW17512   1.217   2.573   5.219 -0.7520 -0.2387  0.1717
 4853SOL    HW117513   1.220   2.523   5.301 -0.2123 -0.8205 -0.1922
 4853SOL    HW217514   1.274   2.524   5.159 -0.7809  0.4285 -0.4136
 4854SOL     OW17515   1.041   6.335   1.029  0.4874 -0.5759 -0.5028
 4854SOL    HW117516   0.979   6.390   0.981 -1.1080 -0.4557  1.5741
 4854SOL    HW217517   1.044   6.253   0.979 -2.5780 -1.1723  0.0623
 4855SOL     OW17518   3.546   3.124   4.979  0.5911 -0.0857  0.0133
 4855SOL    HW117519   3.627   3.088   4.941  0.8777  0.7608 -0.1991
 4855SOL    HW217520   3.577   3.186   5.045  0.1056 -1.5477  1.6805
 4856SOL     OW17521   2.389   2.341   4.024 -0.1979  0.8416 -0.3289
 4856SOL    HW117522   2.319   2.332   4.088 -0.7053  1.8127 -0.7283
 4856SOL    HW217523   2.361   2.285   3.951  0.7085 -0.8109  0.5219
 4857SOL     OW17524   5.002   2.119   1.447  0.2529 -0.1709 -0.6179
 4857SOL    HW117525   5.085   2.106   1.494 -0.0052  0.0209 -0.0929
 4857SOL    HW217526   5.003   2.055   1.377  0.5907 -0.5638 -0.2574
 4858SOL     OW17527   3.955   2.791   3.849  0.2931 -0.7926  0.3328
 4858SOL    HW117528   3.933   2.854   3.780 -0.7681 -2.6904 -1.1623
 4858SOL    HW217529   3.911   2.825   3.927 -0.3096  0.2736 -0.4336
 4859SOL     OW17530   0.969   5.536   6.764  0.3346 -0.2075  0.0570
 4859SOL    HW117531   0.991   5.612   6.817  0.7086  0.1440 -0.5853
 4859SOL    HW217532   0.878   5.550   6.738  0.2269 -0.2623  0.4067
 4860SOL     OW17533   7.289   1.447   4.683 -0.0712 -0.3835 -0.3956
 4860SOL    HW117534   7.198   1.442   4.712 -0.1138 -0.1649 -0.4894
 4860SOL    HW217535   7.294   1.529   4.634  0.7475  0.8026  1.5727
 4861SOL     OW17536   0.739   0.006   1.817 -0.0812 -0.3974  0.4018
 4861SOL    HW117537   0.787   0.083   1.785 -0.8808  0.2651  0.7728
 4861SOL    HW217538   0.788  -0.023   1.894 -0.7478  0.8156  1.3095
 4862SOL     OW17539   5.748   1.759   4.352  0.0340  0.0919 -0.3872
 4862SOL    HW117540   5.776   1.692   4.290 -2.5890  0.5600 -2.2303
 4862SOL    HW217541   5.792   1.839   4.323  0.1885 -0.0519 -0.5494
 4863SOL     OW17542   5.595   3.437   5.313 -0.0207 -0.0927 -0.1047
 4863SOL    HW117543   5.585   3.401   5.401  0.3754 -0.4063 -0.1850
 4863SOL    HW217544   5.543   3.379   5.257  0.3847 -0.3662 -0.1939
 4864SOL     OW17545   5.573   6.208   0.606 -0.1160  0.2445  0.4295
 4864SOL    HW117546   5.645   6.154   0.576 -0.1290  0.4309  0.0607
 4864SOL    HW217547   5.614   6.272   0.665 -0.2659 -0.8866  1.8007
 4865SOL     OW17548   0.274   5.872   3.399  0.6425  0.0874  0.8073
 4865SOL    HW117549   0.360   5.836   3.378  2.1405  2.5271  2.2816
 4865SOL    HW217550   0.243   5.819   3.473 -0.0952 -2.0243 -0.9033
 4866SOL     OW17551   3.511   7.764   3.070  0.2829  0.5682  0.1403
 4866SOL    HW117552   3.417   7.780   3.068  0.0567 -0.5561  0.9186
 4866SOL    HW217553   3.539   7.796   3.156  0.5027  0.3672  0.1440
 4867SOL     OW17554   5.797   1.979   1.818 -0.5510 -0.5559 -0.4914
 4867SOL    HW117555   5.752   1.953   1.898 -1.1718  2.2588  0.1576
 4867SOL    HW217556   5.728   2.009   1.760  0.1615  0.4505 -0.8406
 4868SOL     OW17557   1.672   1.892   0.092  0.2219 -0.0134 -0.4169
 4868SOL    HW117558   1.727   1.872   0.168 -0.3967  0.7972  0.2665
 4868SOL    HW217559   1.602   1.947   0.127  0.3510  1.0222 -1.7240
 4869SOL     OW17560   7.841   1.495   6.694  0.1348  0.0321  0.5222
 4869SOL    HW117561   7.758   1.448   6.700 -0.4666  0.9036 -0.5884
 4869SOL    HW217562   7.819   1.577   6.651  1.3836  0.7853  1.2505
 4870SOL     OW17563   4.605   7.084   4.228 -0.6562 -0.5982 -0.2377
 4870SOL    HW117564   4.510   7.094   4.230 -0.4563  1.6500  1.3987
 4870SOL    HW217565   4.638   7.167   4.193  0.7800  0.1094  2.5209
 4871SOL     OW17566   2.960   3.203   5.795  0.9792 -0.2000 -0.0670
 4871SOL    HW117567   2.989   3.276   5.741  0.7889 -0.7774 -0.9637
 4871SOL    HW217568   3.013   3.128   5.766 -1.8109 -1.4846 -2.3367
 4872SOL     OW17569   4.688   7.649   0.840  0.0567 -0.3304  0.1131
 4872SOL    HW117570   4.731   7.729   0.869 -0.8225 -0.1184  0.9004
 4872SOL    HW217571   4.759   7.593   0.808  0.4923  1.6956 -2.9283
 4873SOL     OW17572   8.003   8.106   7.809  0.3155 -0.0691  0.4811
 4873SOL    HW117573   8.015   8.047   7.883  0.2015  1.7245  2.0004
 4873SOL    HW217574   8.067   8.076   7.744  0.8075 -1.3472  1.5182
 4874SOL     OW17575   1.166   1.873   0.615  0.0812  0.3499 -0.3134
 4874SOL    HW117576   1.139   1.961   0.641  0.2601  0.3049  0.0310
 4874SOL    HW217577   1.205   1.836   0.694  0.1555  0.0210 -0.5041
 4875SOL     OW17578   5.178   2.143   4.735  0.0652  0.0063 -0.5112
 4875SOL    HW117579   5.264   2.100   4.731  0.1138  0.1874 -1.4711
 4875SOL    HW217580   5.178   2.187   4.820 -0.2015 -2.3203  0.7819
 4876SOL     OW17581   1.512   7.062   7.735 -0.1576  0.3219  0.2931
 4876SOL    HW117582   1.464   7.081   7.655  0.1978  1.2118  0.2844
 4876SOL    HW217583   1.479   7.126   7.799  0.1602  0.1589  0.6251
 4877SOL     OW17584   3.372   0.099   1.260  0.1729  0.3641  0.2200
 4877SOL    HW117585   3.460   0.099   1.299 -0.2630 -0.2289  1.2679
 4877SOL    HW217586   3.350   0.006   1.253  0.2079  0.4592 -1.4319
 4878SOL     OW17587   5.847   0.766   2.312  0.7916 -0.2100 -0.0433
 4878SOL    HW117588   5.801   0.770   2.395  0.4425  0.6795 -0.2631
 4878SOL    HW217589   5.914   0.698   2.324 -0.9852 -2.0336  0.0576
 4879SOL     OW17590   0.994   4.457   5.968 -0.5887 -0.0478 -0.1754
 4879SOL    HW117591   0.904   4.456   6.001 -1.1716 -1.6952 -1.6225
 4879SOL    HW217592   0.992   4.399   5.892  2.1112 -1.7851  0.8890
 4880SOL     OW17593   7.705   4.779   3.725  0.3262  0.1861 -0.0336
 4880SOL    HW117594   7.779   4.830   3.757  0.7853  0.2756 -1.1736
 4880SOL    HW217595   7.740   4.690   3.715 -0.1671 -0.1238  0.9158
 4881SOL     OW17596   0.791   5.019   3.705  0.7090 -0.3962  0.3287
 4881SOL    HW117597   0.786   5.011   3.800  0.0199 -0.7320  0.2792
 4881SOL    HW217598   0.728   5.088   3.683  1.2644  0.0618  0.1568
 4882SOL     OW17599   5.700   2.103   6.610  0.2049 -0.0708  0.2766
 4882SOL    HW117600   5.609   2.117   6.639  0.1118  0.4629 -0.2387
 4882SOL    HW217601   5.745   2.185   6.633  0.4162 -0.1144  0.0208
 4883SOL     OW17602   7.740   1.641   7.315 -0.1239 -0.2594  0.0504
 4883SOL    HW117603   7.723   1.596   7.233  0.7346  0.4560 -0.5347
 4883SOL    HW217604   7.828   1.613   7.341 -0.6848 -1.0812  1.1348
 4884SOL     OW17605   1.640   0.853   3.184  0.1165 -0.0505  0.1229
 4884SOL    HW117606   1.614   0.945   3.171 -1.9079 -0.8898 -2.7480
 4884SOL    HW217607   1.722   0.858   3.233  0.7122  3.3469 -0.9296
 4885SOL     OW17608   5.693   4.452   5.929  0.8039  0.1764 -0.1415
 4885SOL    HW117609   5.764   4.486   5.874  1.5200 -0.9084  0.0921
 4885SOL    HW217610   5.736   4.418   6.007 -0.0876  0.5250  0.5169
 4886SOL     OW17611   2.071   3.664   2.316  0.2742 -0.0297  0.1497
 4886SOL    HW117612   2.055   3.626   2.229 -1.4352  2.3069 -0.6688
 4886SOL    HW217613   2.021   3.608   2.375 -1.4295  0.3161 -0.8865
 4887SOL     OW17614   6.376   6.801   7.195  0.3509 -0.4830  0.0356
 4887SOL    HW117615   6.381   6.872   7.131 -2.8172  1.0685  1.2912
 4887SOL    HW217616   6.337   6.840   7.272  3.2717 -2.4857  2.7823
 4888SOL     OW17617   0.856   5.727   5.227 -0.1262  0.0008  0.2721
 4888SOL    HW117618   0.926   5.742   5.289  0.3987  1.3818 -0.5877
 4888SOL    HW217619   0.867   5.796   5.161 -0.9205 -1.1264 -1.1095
 4889SOL     OW17620   5.507   8.049   4.591  0.3573  0.6193 -0.6088
 4889SOL    HW117621   5.575   8.037   4.525  1.0691  1.2023  0.0075
 4889SOL    HW217622   5.493   7.961   4.627 -0.2615  0.2323 -1.7235
 4890SOL     OW17623   2.709   2.635   0.711  0.2174 -0.1646  0.4395
 4890SOL    HW117624   2.737   2.567   0.772  1.2977 -0.4093 -0.3001
 4890SOL    HW217625   2.739   2.717   0.751 -1.1309 -0.0830  1.3563
 4891SOL     OW17626   4.846   4.386   4.142 -0.2637 -0.6566  0.0023
 4891SOL    HW117627   4.755   4.359   4.158  0.3374 -3.3896 -0.5882
 4891SOL    HW217628   4.895   4.304   4.143  2.1551  0.7130 -0.1239
 4892SOL     OW17629   3.263   0.494   7.795  0.1517  0.0091  0.3266
 4892SOL    HW117630   3.297   0.407   7.818 -0.2349 -0.1774  0.2033
 4892SOL    HW217631   3.292   0.508   7.705 -1.2181 -0.7323 -0.2631
 4893SOL     OW17632   5.885   2.677   6.267 -1.0221  0.0431 -0.5730
 4893SOL    HW117633   5.912   2.765   6.238 -1.9847  0.3588 -0.5344
 4893SOL    HW217634   5.884   2.625   6.187  0.0270 -0.0765 -0.5294
 4894SOL     OW17635   5.622   4.386   5.409  0.0004 -0.8017  0.2344
 4894SOL    HW117636   5.576   4.426   5.335 -1.1456 -2.2486  0.1150
 4894SOL    HW217637   5.711   4.420   5.403 -0.2542 -0.3359 -1.3933
 4895SOL     OW17638   0.204   3.307   4.606 -0.0960 -0.6570 -0.1672
 4895SOL    HW117639   0.236   3.324   4.695 -2.2006 -0.1946  0.5553
 4895SOL    HW217640   0.259   3.236   4.574 -0.9332 -2.6428  2.4911
 4896SOL     OW17641   2.556   7.906   4.012 -0.2821 -0.3187  0.0572
 4896SOL    HW117642   2.536   7.817   4.039 -0.2379 -0.4940 -0.4826
 4896SOL    HW217643   2.621   7.936   4.075  0.7823 -1.1753 -0.6079
 4897SOL     OW17644   4.329   1.058   3.591 -0.1307  0.0407 -0.1788
 4897SOL    HW117645   4.305   1.150   3.607 -2.4048  0.0433 -2.7971
 4897SOL    HW217646   4.414   1.048   3.633 -0.2026  3.0868  0.9857
 4898SOL     OW17647   5.486   1.832   0.147 -0.7178 -0.2030 -0.3947
 4898SOL    HW117648   5.527   1.820   0.233 -1.4405  1.9251  0.3087
 4898SOL    HW217649   5.507   1.752   0.099  3.2809  0.2688  0.2464
 4899SOL     OW17650   4.329   3.983   0.662  0.3552 -0.2715 -0.0619
 4899SOL    HW117651   4.239   3.953   0.649 -0.0786  0.4534  1.1872
 4899SOL    HW217652   4.351   3.959   0.752  1.1475  0.2274 -0.1069
 4900SOL     OW17653   7.413   1.397   0.281 -0.0906 -0.3905  0.1139
 4900SOL    HW117654   7.344   1.340   0.246 -0.1218 -0.3114  0.0470
 4900SOL    HW217655   7.474   1.408   0.209 -0.4123  0.1801 -0.0782
 4901SOL     OW17656   4.413   1.067   2.124 -0.1342 -0.9296 -0.2078
 4901SOL    HW117657   4.354   1.047   2.051  0.4103 -0.9557 -0.6472
 4901SOL    HW217658   4.436   0.981   2.160 -0.4734 -0.9125  0.0585
 4902SOL     OW17659   2.344   4.968   5.618 -0.1911  0.7441  0.1873
 4902SOL    HW117660   2.391   4.924   5.547 -1.3439 -0.5802  0.2157
 4902SOL    HW217661   2.252   4.962   5.594 -0.5361  1.1239  1.3423
 4903SOL     OW17662   0.529   6.387   6.326 -0.0834 -0.3933  0.1128
 4903SOL    HW117663   0.607   6.426   6.366  1.2929 -1.6824 -1.1981
 4903SOL    HW217664   0.553   6.374   6.234 -1.7042 -1.1927 -0.2267
 4904SOL     OW17665   6.845   0.395   5.110  0.2186 -0.2924  0.5075
 4904SOL    HW117666   6.862   0.400   5.016  0.3304 -0.0720  0.5379
 4904SOL    HW217667   6.751   0.378   5.116  0.1615 -0.0344  0.3589
 4905SOL     OW17668   7.333   6.631   5.990 -0.7491  0.3345  0.0710
 4905SOL    HW117669   7.272   6.688   5.943 -0.4291  0.4707 -0.1761
 4905SOL    HW217670   7.364   6.684   6.064 -1.5672 -0.0165  0.6906
 4906SOL     OW17671   7.334   4.427   5.745 -0.2227 -0.5370  0.2874
 4906SOL    HW117672   7.412   4.453   5.795 -0.0197  1.6980 -1.0241
 4906SOL    HW217673   7.265   4.486   5.776 -0.2235  0.5302 -1.5591
 4907SOL     OW17674   4.117   0.877   6.978  0.3386 -1.0876  0.0648
 4907SOL    HW117675   4.147   0.904   6.891  1.2596 -0.5419  0.5269
 4907SOL    HW217676   4.198   0.867   7.028 -0.2356  0.1647  1.3005
 4908SOL     OW17677   4.968   4.083   6.336  0.0988  0.0744  0.3496
 4908SOL    HW117678   4.903   4.134   6.288  0.5219  0.8474  0.5711
 4908SOL    HW217679   5.051   4.105   6.294  0.3569  0.0444  0.8402
 4909SOL     OW17680   2.442   6.830   0.134 -0.3938  0.1159  0.9236
 4909SOL    HW117681   2.431   6.825   0.039  1.0721 -2.2326  0.7911
 4909SOL    HW217682   2.505   6.901   0.147  0.8734 -0.7825 -0.0554
 4910SOL     OW17683   6.606   0.014   7.026  0.2428  0.8174 -0.0319
 4910SOL    HW117684   6.589   0.056   6.942 -1.4173 -1.6488 -1.0695
 4910SOL    HW217685   6.533  -0.047   7.037  1.0471  0.1966  2.6430
 4911SOL     OW17686   5.158   6.714   3.204  0.0770  0.2490 -0.4815
 4911SOL    HW117687   5.216   6.724   3.279 -0.4434  0.9417 -0.1592
 4911SOL    HW217688   5.198   6.645   3.152  1.4565  1.0167 -0.5042
 4912SOL     OW17689   6.589   1.035   4.938  0.4675  0.0791  0.4317
 4912SOL    HW117690   6.664   0.976   4.937 -0.3997 -1.0857  1.5283
 4912SOL    HW217691   6.580   1.064   4.847  0.6414 -1.8574 -0.2423
 4913SOL     OW17692   7.113   6.941   4.122 -0.0534 -0.2896 -0.3286
 4913SOL    HW117693   7.081   6.871   4.065 -0.4622 -2.5227  2.4307
 4913SOL    HW217694   7.037   6.999   4.134  0.0972  0.3376 -2.1092
 4914SOL     OW17695   0.469   7.805   0.086 -0.1665 -0.3182 -0.1831
 4914SOL    HW117696   0.424   7.775   0.007  1.0798 -1.2959 -0.5635
 4914SOL    HW217697   0.462   7.731   0.147 -1.0267  0.3882  0.6069
 4915SOL     OW17698   8.041   4.638   3.535  0.1443 -0.1141 -0.4561
 4915SOL    HW117699   8.103   4.671   3.471  0.5486 -1.0569 -0.5685
 4915SOL    HW217700   8.082   4.653   3.620  0.4071 -0.4795 -0.5164
 4916SOL     OW17701   3.035   3.609   5.677 -0.1516 -0.1904  0.1531
 4916SOL    HW117702   2.953   3.657   5.664  0.9326  1.5523 -0.6684
 4916SOL    HW217703   3.103   3.677   5.673  1.3426 -1.6034  0.6649
 4917SOL     OW17704   1.257   7.041   1.487 -0.1148  0.3730  0.0922
 4917SOL    HW117705   1.237   7.098   1.412  2.7858  1.6092  0.1281
 4917SOL    HW217706   1.281   7.102   1.557 -2.7644 -0.7474  2.1868
 4918SOL     OW17707   2.647   5.447   4.560 -0.1824  0.1246 -0.1468
 4918SOL    HW117708   2.657   5.379   4.627 -0.0422 -0.3554 -0.6478
 4918SOL    HW217709   2.717   5.510   4.579 -0.0335 -0.0998  0.0496
 4919SOL     OW17710   3.113   3.865   3.442 -0.1266 -0.2701  0.7802
 4919SOL    HW117711   3.036   3.812   3.465 -0.8454 -0.3819 -1.6316
 4919SOL    HW217712   3.167   3.808   3.389 -0.0761  0.8542 -0.4325
 4920SOL     OW17713   5.817   2.191   6.147 -0.5303  0.0749 -0.1800
 4920SOL    HW117714   5.876   2.118   6.127 -3.1537 -1.5766 -2.6310
 4920SOL    HW217715   5.755   2.156   6.210 -0.8258  0.7314 -0.0931
 4921SOL     OW17716   7.812   3.860   6.734 -0.2111  0.9140  0.4307
 4921SOL    HW117717   7.728   3.815   6.727 -1.1850  2.5851  0.7282
 4921SOL    HW217718   7.863   3.827   6.660 -1.4851  0.5567 -0.3224
 4922SOL     OW17719   1.488   8.055   0.417 -0.6117 -0.2903  0.5461
 4922SOL    HW117720   1.411   7.999   0.428 -0.4354 -0.6665 -0.0911
 4922SOL    HW217721   1.554   7.998   0.377 -0.8715  0.6906 -1.4215
 4923SOL     OW17722   7.789   2.361   7.032 -0.2950 -0.0004 -0.2268
 4923SOL    HW117723   7.834   2.362   7.117 -0.1881  0.1964 -0.2867
 4923SOL    HW217724   7.710   2.413   7.046  0.4635  1.3172 -0.6586
 4924SOL     OW17725   3.396   0.457   5.369 -0.3496 -0.0809 -0.0572
 4924SOL    HW117726   3.379   0.366   5.394  0.9346 -0.2667  0.1823
 4924SOL    HW217727   3.491   0.466   5.372 -0.4795  1.5271  0.8438
 4925SOL     OW17728   6.512   5.571   7.770 -0.6995 -0.3028  0.4489
 4925SOL    HW117729   6.579   5.516   7.809  1.4847  1.1483 -0.9962
 4925SOL    HW217730   6.535   5.660   7.797 -1.3501  0.3526 -1.0089
 4926SOL     OW17731   5.637   5.763   3.326  0.1991  0.1361  0.6559
 4926SOL    HW117732   5.584   5.718   3.259 -0.1445 -0.4699  1.3202
 4926SOL    HW217733   5.627   5.856   3.305  2.3429 -0.0621 -1.8286
 4927SOL     OW17734   6.615   1.902   7.649 -0.6754 -0.0847  0.1908
 4927SOL    HW117735   6.582   1.921   7.562 -0.5478 -1.2218 -0.1123
 4927SOL    HW217736   6.706   1.932   7.648 -1.0395  1.0944  0.3637
 4928SOL     OW17737   2.472   7.593   2.827 -0.1517  0.2546  0.4483
 4928SOL    HW117738   2.408   7.548   2.773 -0.2396  0.9919 -0.0851
 4928SOL    HW217739   2.514   7.524   2.879  0.2639 -0.5351 -0.9024
 4929SOL     OW17740   6.835   2.181   7.372 -0.2139 -0.5327  0.4665
 4929SOL    HW117741   6.840   2.142   7.285 -0.7822 -0.7444  0.5218
 4929SOL    HW217742   6.879   2.119   7.429  1.8339  0.4734  0.0736
 4930SOL     OW17743   4.091   0.275   2.954 -0.0634  0.4391  0.0322
 4930SOL    HW117744   4.023   0.336   2.983  0.0454 -0.9604  3.8063
 4930SOL    HW217745   4.173   0.322   2.970 -0.0301 -0.0608  1.4880
 4931SOL     OW17746   6.062   6.752   7.455  0.0306  0.1234 -0.1780
 4931SOL    HW117747   6.077   6.685   7.521  0.1444  0.6128  0.3064
 4931SOL    HW217748   6.109   6.829   7.489 -2.2373  1.2415  0.5990
 4932SOL     OW17749   7.888   1.194   2.071  0.1781  0.0998 -0.3485
 4932SOL    HW117750   7.802   1.152   2.067  0.4200 -0.4347 -0.0330
 4932SOL    HW217751   7.933   1.150   2.143 -0.3437  2.3899  1.4812
 4933SOL     OW17752   4.396   6.050   1.979  0.1169  0.0339  0.7671
 4933SOL    HW117753   4.449   5.971   1.965  1.8269  0.8384  2.3226
 4933SOL    HW217754   4.364   6.073   1.892  1.6151 -0.9915 -0.1114
 4934SOL     OW17755   0.073   2.736   5.903 -0.2572 -0.1362  0.7088
 4934SOL    HW117756   0.168   2.741   5.892 -0.1812 -2.4959 -0.4119
 4934SOL    HW217757   0.038   2.737   5.814 -1.0403 -1.8328  0.9365
 4935SOL     OW17758   3.998   5.256   3.695  0.3604 -0.5485 -0.3673
 4935SOL    HW117759   3.934   5.201   3.649  0.6994  0.5544 -2.2918
 4935SOL    HW217760   3.998   5.224   3.785 -1.9533 -1.4094 -0.6167
 4936SOL     OW17761   6.194   3.548   8.017 -0.8096 -0.2722  0.1934
 4936SOL    HW117762   6.100   3.567   8.009 -0.6412  0.2139 -0.9296
 4936SOL    HW217763   6.236   3.627   7.984  0.0090 -0.3317  1.0708
 4937SOL     OW17764   4.704   2.064   6.903  0.7425  1.1889  0.2874
 4937SOL    HW117765   4.741   2.073   6.815  0.5854  0.6728  0.1684
 4937SOL    HW217766   4.609   2.070   6.889  0.6135 -0.5518  0.1976
 4938SOL     OW17767   7.216   3.987   4.564  0.5243 -0.0210 -0.2146
 4938SOL    HW117768   7.143   3.932   4.593 -1.3077  2.1393 -0.4570
 4938SOL    HW217769   7.294   3.943   4.599 -0.7426 -2.9236 -0.7380
 4939SOL     OW17770   1.211   1.350   2.393 -0.0167 -0.2853  0.5710
 4939SOL    HW117771   1.172   1.386   2.472 -1.3825 -0.4175 -0.0221
 4939SOL    HW217772   1.289   1.404   2.378 -0.9570  1.1859  0.7748
 4940SOL     OW17773   4.306   7.147   1.013 -0.0222  0.0842  0.3484
 4940SOL    HW117774   4.374   7.080   1.021  0.3116  0.6013  2.2371
 4940SOL    HW217775   4.353   7.229   1.027 -0.7417  0.5929 -0.1868
 4941SOL     OW17776   7.169   7.920   5.673  0.0820 -0.1211 -0.2177
 4941SOL    HW117777   7.234   7.958   5.613  1.4730  0.3322  1.4915
 4941SOL    HW217778   7.095   7.898   5.617  0.7752  1.5195 -1.8931
 4942SOL     OW17779   6.877   6.255   6.632  0.0427  0.1956  0.1844
 4942SOL    HW117780   6.896   6.280   6.542 -0.6864 -0.8155 -0.2718
 4942SOL    HW217781   6.953   6.204   6.659 -0.3071 -0.6244 -0.3302
 4943SOL     OW17782   2.562   8.105   4.753 -0.4839 -0.0951  0.0338
 4943SOL    HW117783   2.576   8.040   4.822 -0.2722 -0.2487 -0.1525
 4943SOL    HW217784   2.473   8.087   4.720 -1.7566  1.7537  2.1522
 4944SOL     OW17785   0.424   7.587   1.977  0.1285 -0.3735  0.1251
 4944SOL    HW117786   0.363   7.590   2.050 -0.2336 -0.6093 -0.1615
 4944SOL    HW217787   0.451   7.678   1.964 -1.6660  0.0492 -0.9722
 4945SOL     OW17788   4.597   3.062   4.675  0.3275  0.6539  0.5426
 4945SOL    HW117789   4.680   3.056   4.627  0.9813  1.4691  1.5419
 4945SOL    HW217790   4.583   2.975   4.711  0.7323  0.5044  0.3402
 4946SOL     OW17791   4.001   2.534   4.328  0.8986  0.4276 -0.2640
 4946SOL    HW117792   4.032   2.484   4.404 -0.2787 -0.2453 -0.2075
 4946SOL    HW217793   3.989   2.623   4.362 -0.6413 -0.0960  0.6466
 4947SOL     OW17794   5.954   0.626   5.039  0.3117 -0.4043  0.1123
 4947SOL    HW117795   6.003   0.587   5.112  0.7510 -0.6846 -0.3235
 4947SOL    HW217796   5.878   0.569   5.027  0.1874 -0.3015  0.4155
 4948SOL     OW17797   5.907   7.240   6.749  0.4010  0.0905 -0.3241
 4948SOL    HW117798   5.879   7.241   6.658  0.3779  0.7208 -0.3195
 4948SOL    HW217799   5.840   7.189   6.795  1.0721 -1.2998 -0.8508
 4949SOL     OW17800   7.692   4.778   6.717 -0.3463 -0.1208 -0.4092
 4949SOL    HW117801   7.644   4.775   6.634 -2.4995  1.1999  0.7074
 4949SOL    HW217802   7.665   4.700   6.764 -0.3629 -0.0505 -0.3017
 4950SOL     OW17803   6.424   1.448   7.919  0.8595 -0.1909  0.2785
 4950SOL    HW117804   6.334   1.477   7.932 -0.1620 -2.1624 -1.7777
 4950SOL    HW217805   6.455   1.500   7.844  1.8567  1.1593  1.5417
 4951SOL     OW17806   6.120   3.480   0.198 -0.1838 -0.4198 -0.0338
 4951SOL    HW117807   6.167   3.469   0.115 -3.1980 -0.3916 -1.9460
 4951SOL    HW217808   6.141   3.568   0.227  1.3150 -0.6059 -0.5006
 4952SOL     OW17809   2.908   4.189   7.890  0.1539 -0.1724 -0.1666
 4952SOL    HW117810   2.999   4.162   7.892  0.3331  0.4306 -0.0859
 4952SOL    HW217811   2.888   4.200   7.797  0.7366  1.5773 -0.1135
 4953SOL     OW17812   3.073   5.967   0.833  0.3818  0.4743 -0.6484
 4953SOL    HW117813   3.100   5.888   0.879  0.6820  0.9787  0.0669
 4953SOL    HW217814   3.071   6.035   0.901 -1.1282  0.8145 -0.9754
 4954SOL     OW17815   7.085   6.141   2.989 -0.3585  0.3399  0.5248
 4954SOL    HW117816   7.060   6.229   2.958 -0.9668  0.6092  1.7284
 4954SOL    HW217817   7.002   6.095   2.999 -0.0017 -0.7037 -0.9471
 4955SOL     OW17818   4.814   3.642   7.187  0.3529  0.3142  0.0632
 4955SOL    HW117819   4.723   3.616   7.174 -0.0555  1.2030  1.0389
 4955SOL    HW217820   4.819   3.669   7.279  0.7267  3.5377 -0.7796
 4956SOL     OW17821   4.985   3.093   7.645  0.4330 -0.2740 -0.4382
 4956SOL    HW117822   4.918   3.081   7.712  0.3894  1.4687 -0.1386
 4956SOL    HW217823   4.983   3.011   7.595 -3.4592  0.4259 -1.8336
 4957SOL     OW17824   6.319   1.411   2.794  0.2694  0.1854  0.4144
 4957SOL    HW117825   6.276   1.339   2.840  0.7911 -1.2271 -1.1914
 4957SOL    HW217826   6.324   1.382   2.703  2.8535  1.1043  0.1668
 4958SOL     OW17827   6.727   4.243   1.173  0.0133 -0.1943 -0.2640
 4958SOL    HW117828   6.719   4.334   1.201  0.8892  0.1589 -1.1254
 4958SOL    HW217829   6.637   4.210   1.172 -0.2655  0.5240  0.4755
 4959SOL     OW17830   3.628   3.856   6.018  0.4869  0.5505 -0.2733
 4959SOL    HW117831   3.667   3.848   6.105  1.5593  0.0655 -0.7760
 4959SOL    HW217832   3.588   3.771   6.002  3.2934 -0.6310 -1.6120
 4960SOL     OW17833   2.999   6.882   6.606 -0.0001 -0.1845 -0.5439
 4960SOL    HW117834   3.069   6.832   6.564 -1.0680 -2.0326 -0.2524
 4960SOL    HW217835   2.992   6.962   6.555  1.9453 -0.1928 -0.9016
 4961SOL     OW17836   3.756   1.626   6.286 -0.2141  0.3390 -0.8524
 4961SOL    HW117837   3.725   1.585   6.206 -2.4026  1.1915 -0.5165
 4961SOL    HW217838   3.682   1.621   6.346 -0.3305  3.8219 -0.4797
 4962SOL     OW17839   1.643   3.421   4.938  0.1419 -0.0537 -0.1497
 4962SOL    HW117840   1.719   3.452   4.891 -0.4025  1.5564 -0.0115
 4962SOL    HW217841   1.674   3.408   5.028  0.3505  0.2091 -0.1828
 4963SOL     OW17842   2.164   3.495   4.459  0.4156  0.0150 -0.3551
 4963SOL    HW117843   2.226   3.454   4.399  1.6104  0.3844  0.5814
 4963SOL    HW217844   2.161   3.587   4.433  3.2452  0.8926  1.8585
 4964SOL     OW17845   7.036   6.422   5.228  0.0123 -0.5159  0.3636
 4964SOL    HW117846   6.991   6.503   5.253 -0.0106 -0.2270 -0.5601
 4964SOL    HW217847   7.126   6.436   5.257  0.5750  0.8421 -1.7612
 4965SOL     OW17848   2.189   4.180   4.406  0.2363 -0.3387 -0.1599
 4965SOL    HW117849   2.193   4.085   4.419 -0.1085 -0.2306  0.8415
 4965SOL    HW217850   2.096   4.201   4.413  0.5177  0.4532  2.8487
 4966SOL     OW17851   5.921   7.254   2.672  0.2354 -0.2454  1.0059
 4966SOL    HW117852   5.849   7.215   2.722 -1.9721  3.0335  0.6888
 4966SOL    HW217853   5.904   7.229   2.581 -1.4151  1.6082  0.7453
 4967SOL     OW17854   7.889   4.390   3.525  0.0039  0.3001 -0.5665
 4967SOL    HW117855   7.949   4.465   3.527  0.9931 -0.4744  0.4916
 4967SOL    HW217856   7.860   4.381   3.616 -0.0209 -0.6372 -0.6593
 4968SOL     OW17857   7.600   1.134   4.115 -0.6903 -0.3060  0.1463
 4968SOL    HW117858   7.643   1.209   4.074  0.6301 -1.9303 -1.6249
 4968SOL    HW217859   7.607   1.151   4.209  2.6139  0.2704 -0.0709
 4969SOL     OW17860   4.467   1.067   7.937  0.6042 -0.1001  0.0432
 4969SOL    HW117861   4.452   1.130   7.867  0.3010  0.9778  1.0475
 4969SOL    HW217862   4.511   0.994   7.895 -1.5854 -0.4963 -1.7421
 4970SOL     OW17863   3.502   5.590   4.867 -0.1258  0.4350 -0.4262
 4970SOL    HW117864   3.464   5.590   4.955 -4.1792 -0.8309 -1.9176
 4970SOL    HW217865   3.521   5.682   4.849  0.8428  0.7110  1.7064
 4971SOL     OW17866   0.122   4.550   6.041  0.0716  0.3992  0.2843
 4971SOL    HW117867   0.038   4.514   6.070  1.2229 -0.0518  3.4642
 4971SOL    HW217868   0.172   4.562   6.122  3.0660  0.7047 -1.4652
 4972SOL     OW17869   6.628   5.032   6.329 -0.2802  0.6357 -0.0516
 4972SOL    HW117870   6.595   5.117   6.358 -2.6924 -0.1213 -0.3146
 4972SOL    HW217871   6.657   4.988   6.409  0.4702  1.4781  0.1510
 4973SOL     OW17872   5.301   1.258   4.328  0.0162 -0.2145  0.6197
 4973SOL    HW117873   5.311   1.321   4.256 -1.2158 -0.0216  0.5915
 4973SOL    HW217874   5.215   1.218   4.312 -0.1086 -0.4283  1.7796
 4974SOL     OW17875   0.377   8.002   2.652 -0.0412  0.0514  0.6716
 4974SOL    HW117876   0.292   7.995   2.608  0.7897 -1.5352 -0.7855
 4974SOL    HW217877   0.360   7.973   2.741 -0.9282 -0.8335  0.2341
 4975SOL     OW17878   7.224   2.555   7.945  0.2906  0.2722  0.1699
 4975SOL    HW117879   7.159   2.609   7.900 -1.3364 -1.0721  0.7830
 4975SOL    HW217880   7.234   2.595   8.032 -0.1722  0.1431  0.2824
 4976SOL     OW17881   2.496   5.198   3.875  0.1224 -0.1726  0.5095
 4976SOL    HW117882   2.553   5.219   3.801 -0.6549 -0.4521 -0.1752
 4976SOL    HW217883   2.506   5.273   3.935 -0.3489  0.7573 -0.5434
 4977SOL     OW17884   0.318   7.813   1.091 -0.5567 -0.0664 -0.4018
 4977SOL    HW117885   0.380   7.806   1.018  0.6450 -1.2429  0.6807
 4977SOL    HW217886   0.233   7.791   1.052 -0.2260  0.9664 -1.7883
 4978SOL     OW17887   7.977   3.567   7.713  0.7434 -0.5338 -0.1067
 4978SOL    HW117888   7.903   3.586   7.772  1.2386  1.6541 -0.0954
 4978SOL    HW217889   7.945   3.496   7.657 -1.8971  1.1641 -0.9550
 4979SOL     OW17890   6.720   1.386   3.967 -0.1598 -0.3504  0.2781
 4979SOL    HW117891   6.760   1.440   3.899 -1.5773  0.2973 -0.0728
 4979SOL    HW217892   6.790   1.327   3.995  1.1650  1.0475  0.0244
 4980SOL     OW17893   7.073   0.982   6.785 -0.4556 -0.0064 -0.2508
 4980SOL    HW117894   6.993   1.033   6.788 -0.1135  0.5300 -0.2164
 4980SOL    HW217895   7.073   0.933   6.868  0.1636  1.4062  0.6192
 4981SOL     OW17896   2.846   5.828   5.420 -0.3337 -0.8956 -0.1152
 4981SOL    HW117897   2.843   5.912   5.373  1.0130 -0.2368  0.9072
 4981SOL    HW217898   2.911   5.776   5.371  0.7689 -0.3561  0.7223
 4982SOL     OW17899   6.317   6.868   0.452  0.1634  0.0700  0.1262
 4982SOL    HW117900   6.242   6.926   0.436  1.1837  1.4188  0.0283
 4982SOL    HW217901   6.353   6.898   0.535  0.2010 -1.0314  0.5211
 4983SOL     OW17902   1.275   7.691   1.057 -0.0157 -0.9413 -0.1366
 4983SOL    HW117903   1.310   7.646   1.134 -0.3987  0.6444  1.0384
 4983SOL    HW217904   1.255   7.779   1.089 -0.3986 -0.3012 -2.0199
 4984SOL     OW17905   1.053   4.124   6.629 -0.0974  0.1504 -0.2882
 4984SOL    HW117906   1.009   4.080   6.702  0.6595 -1.1059 -0.5562
 4984SOL    HW217907   0.984   4.177   6.588 -1.4376 -1.8022 -0.7394
 4985SOL     OW17908   1.068   4.861   6.889  0.1455  0.1244  0.4589
 4985SOL    HW117909   1.075   4.853   6.794 -1.2663  1.5659  0.1910
 4985SOL    HW217910   1.154   4.834   6.922 -0.2401 -3.3609 -0.9648
 4986SOL     OW17911   6.686   2.081   4.022  0.3119 -0.2174  0.3202
 4986SOL    HW117912   6.758   2.041   4.071  0.6578 -0.1602 -0.1312
 4986SOL    HW217913   6.607   2.044   4.061  0.5773 -0.0176  1.0474
 4987SOL     OW17914   3.969   6.938   7.033  0.6368 -0.2214  0.0865
 4987SOL    HW117915   4.012   6.891   6.961 -1.7869 -0.1628 -1.5161
 4987SOL    HW217916   3.962   6.873   7.103  1.7569 -0.7157 -0.2240
 4988SOL     OW17917   7.461   3.886   4.605  0.0913  0.0636  0.5349
 4988SOL    HW117918   7.521   3.924   4.669 -0.6921  0.7321  0.8980
 4988SOL    HW217919   7.512   3.817   4.562  1.8844  2.1041 -0.8152
 4989SOL     OW17920   4.619   0.736   0.557 -0.3809  0.0744 -0.0090
 4989SOL    HW117921   4.586   0.817   0.517  1.5713  1.1514  0.4663
 4989SOL    HW217922   4.659   0.689   0.484  0.4985  0.6217  0.1105
 4990SOL     OW17923   7.675   7.122   7.257  0.3599  0.8560  0.3667
 4990SOL    HW117924   7.661   7.186   7.187  1.0628  0.4621 -0.1510
 4990SOL    HW217925   7.587   7.104   7.291 -0.3682 -0.9042 -2.1805
 4991SOL     OW17926   6.589   2.750   6.302 -0.4069 -0.2227  0.7442
 4991SOL    HW117927   6.583   2.671   6.356 -1.4900 -1.4718 -1.0727
 4991SOL    HW217928   6.539   2.816   6.350 -1.0131 -1.1823  1.4607
 4992SOL     OW17929   2.788   0.337   8.129 -0.1261 -0.3527  0.1219
 4992SOL    HW117930   2.881   0.317   8.121 -0.3218 -1.2147 -0.1622
 4992SOL    HW217931   2.744   0.262   8.088 -0.9062  0.8194 -1.2679
 4993SOL     OW17932   3.014   6.341   0.764  0.2527 -0.1381 -0.1686
 4993SOL    HW117933   2.996   6.393   0.686  0.5713 -1.1656 -0.9471
 4993SOL    HW217934   2.944   6.275   0.766 -0.4648  0.6121  1.1070
 4994SOL     OW17935   0.663   2.604   7.928 -0.3361 -0.6550 -0.3029
 4994SOL    HW117936   0.613   2.540   7.878 -1.4646  0.0272 -0.0822
 4994SOL    HW217937   0.721   2.551   7.984 -0.1196 -1.4386 -1.2516
 4995SOL     OW17938   5.702   7.244   4.124 -0.0698  0.2096  0.1583
 4995SOL    HW117939   5.764   7.316   4.115  1.3532 -1.1676 -1.7801
 4995SOL    HW217940   5.670   7.251   4.214  2.1139  1.6020  0.8981
 4996SOL     OW17941   6.206   1.549   0.047  0.4120  0.2412 -0.1002
 4996SOL    HW117942   6.215   1.477  -0.016  0.1376 -0.7087  0.9172
 4996SOL    HW217943   6.131   1.524   0.101  0.2975  1.3147  0.2553
 4997SOL     OW17944   4.893   2.807   7.867  0.4527 -0.3250 -0.3735
 4997SOL    HW117945   4.851   2.736   7.818  1.1632 -0.4399 -0.8237
 4997SOL    HW217946   4.976   2.770   7.897 -0.2676 -0.4865  1.5446
 4998SOL     OW17947   6.633   4.534   7.851  0.2822 -1.0656 -0.0340
 4998SOL    HW117948   6.633   4.623   7.888  0.9875 -0.8075 -0.6221
 4998SOL    HW217949   6.726   4.513   7.842  0.1236 -1.2838 -1.2767
 4999SOL     OW17950   2.087   6.759   7.699 -0.3587 -0.9656  0.2039
 4999SOL    HW117951   2.046   6.717   7.623 -0.7154 -0.7712  0.2821
 4999SOL    HW217952   2.092   6.851   7.675  1.4658 -1.2022 -0.4275
 5000SOL     OW17953   4.395   2.129   1.751 -0.8533  0.0648  0.4576
 5000SOL    HW117954   4.426   2.044   1.721 -0.7835  0.8350 -1.8281
 5000SOL    HW217955   4.458   2.155   1.818  2.4384  0.6441 -2.5497
 5001SOL     OW17956   5.000   1.559   1.459  0.0141 -0.0679 -0.2042
 5001SOL    HW117957   4.935   1.569   1.528  0.0230  0.6674 -0.2995
 5001SOL    HW217958   4.999   1.466   1.438 -1.8853  0.1188 -1.0771
 5002SOL     OW17959   4.750   5.896   1.278  0.4331 -0.4303  0.5511
 5002SOL    HW117960   4.810   5.857   1.342 -0.3029 -1.7115  0.4952
 5002SOL    HW217961   4.673   5.840   1.280  0.2805 -0.3555 -1.2616
 5003SOL     OW17962   3.247   1.905   5.773 -0.0394  0.4107 -0.7317
 5003SOL    HW117963   3.226   1.845   5.845 -1.6439 -0.0600 -1.5466
 5003SOL    HW217964   3.202   1.986   5.796 -1.3382 -0.0381 -1.6386
 5004SOL     OW17965   3.680   4.489   4.006 -0.2456  0.0017  0.3254
 5004SOL    HW117966   3.591   4.470   3.979 -0.7078  2.4216 -0.0184
 5004SOL    HW217967   3.698   4.577   3.974  2.4359 -0.5441  0.0240
 5005SOL     OW17968   3.029   2.613   5.695 -0.0086  0.5043 -0.0863
 5005SOL    HW117969   2.973   2.649   5.626 -1.3895 -1.6277 -0.1545
 5005SOL    HW217970   2.991   2.648   5.776 -1.0045 -0.3374 -0.1786
 5006SOL     OW17971   0.784   5.150   7.185  0.1105 -0.1486 -0.3930
 5006SOL    HW117972   0.814   5.093   7.255  1.9782  0.6231 -0.5110
 5006SOL    HW217973   0.796   5.098   7.105 -0.8564 -0.5798 -0.2730
 5007SOL     OW17974   5.239   3.306   1.301  0.5146 -0.8109 -0.2050
 5007SOL    HW117975   5.252   3.380   1.240 -0.5291  1.5876  2.2808
 5007SOL    HW217976   5.313   3.311   1.361 -0.5982 -0.4851  1.1865
 5008SOL     OW17977   3.648   5.522   0.338 -0.0639  0.9350  0.2750
 5008SOL    HW117978   3.571   5.483   0.379 -0.5871  2.0245  0.3759
 5008SOL    HW217979   3.639   5.501   0.245 -0.9935  1.8275  0.1438
 5009SOL     OW17980   0.189   2.565   8.129  0.3418  0.2469  0.0090
 5009SOL    HW117981   0.122   2.504   8.160 -1.2618  1.5676 -0.7060
 5009SOL    HW217982   0.228   2.521   8.053 -0.8536  0.1468 -0.5615
 5010SOL     OW17983   2.114   4.753   1.241  0.4576  0.1282 -0.1999
 5010SOL    HW117984   2.137   4.757   1.148 -1.7175 -3.0604 -1.0490
 5010SOL    HW217985   2.018   4.755   1.242  0.3991 -0.8864  1.8608
 5011SOL     OW17986   0.298   0.202   0.411 -0.0595 -0.8449  0.1278
 5011SOL    HW117987   0.268   0.255   0.338  0.7626  0.3254  0.6225
 5011SOL    HW217988   0.254   0.239   0.488  0.0371 -1.2756  0.3979
 5012SOL     OW17989   3.804   4.395   1.548  0.0617 -0.1681 -0.6292
 5012SOL    HW117990   3.878   4.452   1.528 -1.0151  1.4608 -0.2042
 5012SOL    HW217991   3.778   4.360   1.463 -0.6245  1.7888 -1.2940
 5013SOL     OW17992   3.694   2.480   5.192  0.3298  0.2286  0.0973
 5013SOL    HW117993   3.714   2.572   5.206 -0.1565  0.4295 -0.5097
 5013SOL    HW217994   3.603   2.470   5.220  1.1905 -0.7136  2.9771
 5014SOL     OW17995   6.047   5.878   1.157  0.6573 -0.1742  0.3417
 5014SOL    HW117996   5.979   5.822   1.120  3.0812 -2.1079 -1.5942
 5014SOL    HW217997   6.072   5.937   1.085  2.3283 -0.8761  0.2911
 5015SOL     OW17998   7.304   3.919   1.575  0.0148  0.4918  0.2231
 5015SOL    HW117999   7.298   3.978   1.650 -1.9351 -0.7989  1.1840
 5015SOL    HW218000   7.257   3.964   1.505 -1.7100  0.0556  1.0279
 5016SOL     OW18001   7.370   7.949   3.439 -0.3600 -0.0995  0.2214
 5016SOL    HW118002   7.446   7.955   3.381 -1.1716  1.7612 -0.7321
 5016SOL    HW218003   7.405   7.965   3.527  0.6174 -1.2609  0.0790
 5017SOL     OW18004   5.842   4.575   0.537 -0.1073 -0.1966 -0.4328
 5017SOL    HW118005   5.898   4.498   0.526  0.5905  0.0909  0.9176
 5017SOL    HW218006   5.865   4.632   0.463  1.3557 -0.1101  0.0643
 5018SOL     OW18007   7.313   5.813   5.949  0.2842 -0.2658 -0.0453
 5018SOL    HW118008   7.290   5.722   5.963 -0.2490 -0.0573  0.4390
 5018SOL    HW218009   7.230   5.858   5.936  0.3433  0.5369  1.9635
 5019SOL     OW18010   4.115   4.626   7.517  0.0811 -0.2197  0.2755
 5019SOL    HW118011   4.079   4.633   7.605  0.7334  0.6701  0.4846
 5019SOL    HW218012   4.044   4.587   7.465 -0.2459 -0.9219  1.2144
 5020SOL     OW18013   4.879   5.972   5.678  0.2321 -0.2033 -0.1734
 5020SOL    HW118014   4.907   5.927   5.598  0.5832  0.4614 -0.4400
 5020SOL    HW218015   4.919   5.922   5.749  0.7028 -0.2559 -0.4671
 5021SOL     OW18016   0.760   4.941   4.000  0.1510 -0.0895  0.4132
 5021SOL    HW118017   0.796   4.902   4.079 -0.7286 -1.4225  0.1863
 5021SOL    HW218018   0.746   5.033   4.023  0.2504 -0.3757  1.6785
 5022SOL     OW18019   5.160   5.610   2.708  0.1180  0.1147  0.2433
 5022SOL    HW118020   5.093   5.627   2.774  1.3855  1.4351  1.2828
 5022SOL    HW218021   5.203   5.695   2.696  0.9828 -0.4775 -1.0823
 5023SOL     OW18022   0.256   0.776   2.991 -0.1134  0.0446  0.1188
 5023SOL    HW118023   0.344   0.771   3.028  0.0900  0.9247 -0.2116
 5023SOL    HW218024   0.269   0.812   2.903 -0.8323  0.5875  0.2270
 5024SOL     OW18025   6.135   0.864   2.003 -0.0209 -0.2340  0.0906
 5024SOL    HW118026   6.065   0.878   2.066  0.5332 -0.2238  0.7159
 5024SOL    HW218027   6.209   0.915   2.036  0.1273  0.1835 -0.8413
 5025SOL     OW18028   0.374   4.404   1.452  0.0930  0.2556 -0.3598
 5025SOL    HW118029   0.417   4.322   1.426 -0.1343  0.1490 -0.4032
 5025SOL    HW218030   0.420   4.472   1.403  1.9112  0.4418  1.4783
 5026SOL     OW18031   1.206   7.811   0.297  0.2894  0.0443  0.6018
 5026SOL    HW118032   1.203   7.715   0.296  4.1964 -0.2568 -0.5904
 5026SOL    HW218033   1.261   7.833   0.372  2.0369  1.0766 -0.9064
 5027SOL     OW18034   4.348   2.665   2.026  0.4244 -0.0675  0.0360
 5027SOL    HW118035   4.294   2.718   1.966  0.5932  1.5707  1.2441
 5027SOL    HW218036   4.419   2.724   2.052  0.5570 -0.8438  1.5375
 5028SOL     OW18037   7.027   6.904   8.052 -0.7026  0.3622 -0.0588
 5028SOL    HW118038   7.046   6.818   8.090  2.6549  1.5555  1.3972
 5028SOL    HW218039   7.038   6.892   7.958  0.3758 -0.7105  0.1762
 5029SOL     OW18040   7.270   5.526   6.125 -0.4669 -0.5113  0.0040
 5029SOL    HW118041   7.339   5.487   6.178  0.3548  0.3414 -0.4029
 5029SOL    HW218042   7.260   5.466   6.051  0.6906 -0.0597 -0.5499
 5030SOL     OW18043   7.116   6.143   0.232  0.1890 -0.6865  0.1452
 5030SOL    HW118044   7.057   6.068   0.236 -1.1702  0.2996 -0.4197
 5030SOL    HW218045   7.099   6.190   0.314  0.3572 -0.5291  0.0892
 5031SOL     OW18046   0.487   5.996   5.234 -0.4932  0.4362  0.3891
 5031SOL    HW118047   0.493   6.062   5.303 -0.2982  0.7124  0.1103
 5031SOL    HW218048   0.480   5.912   5.280 -3.0017  0.7906  0.8058
 5032SOL     OW18049   1.111   1.610   0.827  0.6244 -0.1671  0.0114
 5032SOL    HW118050   1.110   1.599   0.732  0.4894 -0.8822  0.0900
 5032SOL    HW218051   1.192   1.656   0.845  1.8801 -2.1886 -0.2297
 5033SOL     OW18052   6.256   5.646   2.792  0.0201 -0.1424 -0.1077
 5033SOL    HW118053   6.179   5.660   2.847  1.5268 -1.5236  2.5768
 5033SOL    HW218054   6.230   5.577   2.731 -1.2153  0.2629 -0.0565
 5034SOL     OW18055   5.733   5.484   4.891 -0.1312  0.0280  0.0586
 5034SOL    HW118056   5.681   5.420   4.941  0.2729 -0.7192 -0.4585
 5034SOL    HW218057   5.682   5.500   4.812  0.7984 -1.3851 -0.8743
 5035SOL     OW18058   3.716   2.369   0.938 -0.0683  0.1712  0.3616
 5035SOL    HW118059   3.646   2.421   0.976  0.1187  0.1955  0.6759
 5035SOL    HW218060   3.791   2.384   0.995  0.7581  1.6657 -1.0018
 5036SOL     OW18061   3.891   1.713   5.064  0.3703 -0.4364  0.5956
 5036SOL    HW118062   3.834   1.788   5.085  2.0891  0.4214  2.5937
 5036SOL    HW218063   3.978   1.751   5.056  1.0580 -2.0449  0.0924
 5037SOL     OW18064   3.438   3.662   5.715 -0.1312 -0.0890  0.1920
 5037SOL    HW118065   3.374   3.658   5.644 -0.3567 -0.0414  0.3919
 5037SOL    HW218066   3.446   3.756   5.734  0.4022 -0.0510 -0.1965
 5038SOL     OW18067   1.727   5.258   6.417 -0.1283 -0.3224  0.0685
 5038SOL    HW118068   1.645   5.262   6.467  0.4660 -1.9171  1.2405
 5038SOL    HW218069   1.728   5.170   6.380  2.1934 -1.2604  2.1493
 5039SOL     OW18070   5.860   5.057   0.461  0.0960  0.5219 -0.0431
 5039SOL    HW118071   5.786   5.010   0.422 -0.1767 -0.0093  1.0571
 5039SOL    HW218072   5.847   5.148   0.436 -2.4425  0.9353  2.2430
 5040SOL     OW18073   2.911   2.127   8.072 -0.0897  0.1599  0.7754
 5040SOL    HW118074   2.913   2.158   8.162  1.6115  1.7040  0.2656
 5040SOL    HW218075   2.874   2.200   8.022  2.0252  0.6760 -0.1694
 5041SOL     OW18076   2.846   8.066   1.665 -0.5389 -0.3143  0.1895
 5041SOL    HW118077   2.767   8.119   1.660 -0.4926 -0.1072  1.2992
 5041SOL    HW218078   2.815   7.980   1.693 -0.6885 -1.1022 -2.1816
 5042SOL     OW18079   0.640   7.087   0.762 -0.6582  0.0710 -0.6905
 5042SOL    HW118080   0.645   6.993   0.780  1.5154  0.2625 -0.0049
 5042SOL    HW218081   0.585   7.093   0.684  1.2000 -2.0075 -2.2818
 5043SOL     OW18082   4.998   2.540   5.006 -0.5561  0.1361  0.1291
 5043SOL    HW118083   4.991   2.462   5.062 -2.0944  0.0219 -0.1785
 5043SOL    HW218084   5.069   2.520   4.946  0.4297 -0.1738  1.3534
 5044SOL     OW18085   7.912   4.209   4.118 -0.2032 -0.2166  0.0307
 5044SOL    HW118086   7.914   4.304   4.122 -1.8249 -0.0750 -1.0895
 5044SOL    HW218087   7.952   4.188   4.033  0.3210 -0.5446  0.3577
 5045SOL     OW18088   3.492   2.932   0.297  0.4831  0.1486 -0.3225
 5045SOL    HW118089   3.515   2.916   0.206  1.6578  0.4087 -0.0864
 5045SOL    HW218090   3.574   2.925   0.345  0.0641  1.0339  0.5790
 5046SOL     OW18091   6.321   3.132   7.272  0.4283  0.5252  0.2071
 5046SOL    HW118092   6.358   3.061   7.324 -1.1406  0.1750  0.8889
 5046SOL    HW218093   6.295   3.198   7.336 -2.6969 -0.4419  0.0677
 5047SOL     OW18094   4.624   7.391   5.416 -0.0630  0.6789  0.2523
 5047SOL    HW118095   4.603   7.310   5.370  1.4009  0.6324 -0.3781
 5047SOL    HW218096   4.664   7.447   5.350 -1.4977  2.1418  0.5494
 5048SOL     OW18097   5.475   6.282   0.347 -0.7521  0.2278  0.0260
 5048SOL    HW118098   5.408   6.341   0.383 -2.2553 -1.2839 -0.1295
 5048SOL    HW218099   5.498   6.225   0.421 -0.5151 -0.0141 -0.2342
 5049SOL     OW18100   6.610   4.268   2.071 -0.0789 -0.6171  0.1262
 5049SOL    HW118101   6.634   4.207   2.001 -0.0088 -1.6393  1.0184
 5049SOL    HW218102   6.524   4.301   2.045 -0.6010 -1.9065  0.1339
 5050SOL     OW18103   2.463   3.791   3.915 -0.2339  0.1066 -0.8680
 5050SOL    HW118104   2.467   3.703   3.952  1.5396  0.2163 -0.6870
 5050SOL    HW218105   2.383   3.793   3.864 -2.5987 -0.2287  2.5364
 5051SOL     OW18106   0.097   7.374   6.683  0.1322 -0.3276  0.1937
 5051SOL    HW118107   0.081   7.468   6.676 -2.7994 -0.4786  2.6901
 5051SOL    HW218108   0.188   7.367   6.715  1.8305  1.3100 -3.6563
 5052SOL     OW18109   7.455   2.743   2.394  0.3618  0.0104  0.1618
 5052SOL    HW118110   7.530   2.783   2.438  2.3312 -1.1355 -1.9836
 5052SOL    HW218111   7.417   2.814   2.342  1.6111 -0.0081 -0.8061
 5053SOL     OW18112   7.121   1.309   5.539 -0.3271 -0.0775 -0.3682
 5053SOL    HW118113   7.163   1.381   5.585  2.5246 -1.2002 -1.0422
 5053SOL    HW218114   7.114   1.338   5.448  2.2588 -1.1203 -0.9726
 5054SOL     OW18115   3.742   3.596   5.485  0.1862  0.1236  0.0787
 5054SOL    HW118116   3.762   3.675   5.534  1.5060  0.3398 -0.7651
 5054SOL    HW218117   3.777   3.525   5.539 -0.3676  0.1605  0.4972
 5055SOL     OW18118   1.798   1.140   0.001  0.4535 -0.2832 -0.3436
 5055SOL    HW118119   1.825   1.129   0.092 -0.2202 -1.6482 -0.2803
 5055SOL    HW218120   1.805   1.234  -0.015 -1.1317  0.2687  1.6784
 5056SOL     OW18121   7.125   0.715   8.040  0.5476  0.2780 -0.0255
 5056SOL    HW118122   7.075   0.770   8.101  0.2923  0.2874 -0.2391
 5056SOL    HW218123   7.151   0.639   8.092  2.8976  1.6388  0.9227
 5057SOL     OW18124   4.081   6.458   8.107 -0.3997  0.1499 -0.3715
 5057SOL    HW118125   4.086   6.549   8.077  0.2253  0.2913  0.1443
 5057SOL    HW218126   4.041   6.411   8.034  1.1907  0.4575 -1.4871
 5058SOL     OW18127   4.061   7.992   2.538 -0.5845  0.3761 -0.2495
 5058SOL    HW118128   3.990   8.044   2.501  0.4353  1.1764 -1.1323
 5058SOL    HW218129   4.125   7.983   2.467  0.4606  0.1596  0.6865
 5059SOL     OW18130   4.874   3.656   6.346  0.2596  0.2906 -0.6150
 5059SOL    HW118131   4.865   3.648   6.251  0.7867  0.5858 -0.6925
 5059SOL    HW218132   4.815   3.728   6.369 -0.6748 -0.4761 -0.5731
 5060SOL     OW18133   4.874   1.054   7.872 -0.1352  0.2466  0.1651
 5060SOL    HW118134   4.942   0.988   7.886  0.1765  0.1968 -1.4484
 5060SOL    HW218135   4.795   1.003   7.852 -0.9160  0.2700  2.7771
 5061SOL     OW18136   1.335   0.587   7.604 -0.0594 -0.1273  0.1938
 5061SOL    HW118137   1.353   0.641   7.528 -0.4019  0.2421  0.3734
 5061SOL    HW218138   1.332   0.497   7.570 -1.5234  0.1495 -0.4577
 5062SOL     OW18139   6.506   6.170   4.618  0.4784  0.1155  0.5764
 5062SOL    HW118140   6.586   6.168   4.566 -0.0867 -1.0394 -0.3259
 5062SOL    HW218141   6.534   6.157   4.708  1.2347 -1.8236  0.1133
 5063SOL     OW18142   6.142   4.371   4.693 -0.0340  0.1861 -0.2355
 5063SOL    HW118143   6.056   4.401   4.663 -0.1107 -1.4580 -1.8518
 5063SOL    HW218144   6.162   4.427   4.768 -2.5795  0.4996  0.3069
 5064SOL     OW18145   5.137   0.254   6.392  0.0870 -0.4121 -0.2664
 5064SOL    HW118146   5.144   0.332   6.447 -1.4787  0.8764 -1.7447
 5064SOL    HW218147   5.148   0.181   6.452 -1.1125  0.9158  1.6917
 5065SOL     OW18148   3.391   2.264   0.113 -0.4899  0.3637 -0.2173
 5065SOL    HW118149   3.421   2.183   0.072  0.5514  0.7418 -0.2402
 5065SOL    HW218150   3.332   2.304   0.049  1.3334  1.0968 -1.5177
 5066SOL     OW18151   1.627   1.449   3.787 -0.5125 -0.5979  0.3529
 5066SOL    HW118152   1.622   1.418   3.877 -1.5204  0.7148  0.7712
 5066SOL    HW218153   1.700   1.512   3.787  0.1043 -1.2872  0.0068
 5067SOL     OW18154   5.863   2.587   3.957 -0.0963 -0.1366 -0.0293
 5067SOL    HW118155   5.940   2.551   4.002  0.6539  1.5939  0.1701
 5067SOL    HW218156   5.900   2.640   3.886 -1.0260  1.5928  0.7178
 5068SOL     OW18157   7.284   6.457   4.194 -0.0664  0.2950  0.2084
 5068SOL    HW118158   7.300   6.368   4.225 -1.6507 -0.1786 -0.2611
 5068SOL    HW218159   7.330   6.512   4.258  1.8249 -0.8492 -0.0621
 5069SOL     OW18160   4.136   7.381   2.744  0.1624  0.0816 -0.3898
 5069SOL    HW118161   4.079   7.372   2.667  1.3031  0.1302 -1.2594
 5069SOL    HW218162   4.123   7.300   2.793 -1.3525  0.4819 -0.0721
 5070SOL     OW18163   7.859   5.369   7.077  0.1927 -0.0947 -0.2060
 5070SOL    HW118164   7.883   5.276   7.086  2.6132  0.1503 -2.6739
 5070SOL    HW218165   7.800   5.371   7.002  1.3285  0.4422 -1.1233
 5071SOL     OW18166   3.089   6.866   4.177 -0.2181 -0.5740  0.7005
 5071SOL    HW118167   3.097   6.948   4.226 -0.1034 -0.8272  1.1141
 5071SOL    HW218168   3.091   6.798   4.244  0.1063 -0.9356  0.3299
 5072SOL     OW18169   3.474   1.751   8.062 -0.2707  0.1175  0.2034
 5072SOL    HW118170   3.393   1.801   8.051  0.4164  1.2935  0.3000
 5072SOL    HW218171   3.448   1.660   8.047 -1.5770  0.4819  0.0991
 5073SOL     OW18172   4.686   4.140   6.818  0.2811 -1.4558  0.0790
 5073SOL    HW118173   4.654   4.229   6.836  2.3815 -0.9920  2.0858
 5073SOL    HW218174   4.758   4.153   6.756 -0.9483 -2.0871 -1.5507
 5074SOL     OW18175   7.728   7.378   6.423 -0.3485  0.0326 -0.1306
 5074SOL    HW118176   7.666   7.332   6.479  1.2567 -1.1340  0.7709
 5074SOL    HW218177   7.793   7.414   6.483  0.3031  0.5074 -1.0971
 5075SOL     OW18178   5.909   6.141   0.063 -0.1222  0.3806  0.2955
 5075SOL    HW118179   5.974   6.140   0.134 -0.5836  0.8520  0.7387
 5075SOL    HW218180   5.825   6.133   0.108 -0.3578 -0.7652 -0.3072
 5076SOL     OW18181   1.628   6.572   0.800  0.2717  0.3963  0.0907
 5076SOL    HW118182   1.683   6.648   0.820  1.7405 -0.4458 -0.5890
 5076SOL    HW218183   1.540   6.608   0.790  0.5364  1.6884  1.9267
 5077SOL     OW18184   7.211   4.123   5.292 -0.2705 -0.3644  0.2683
 5077SOL    HW118185   7.200   4.070   5.371  1.6363  0.5709  1.2100
 5077SOL    HW218186   7.122   4.153   5.272 -1.0449 -1.9575  1.0616
 5078SOL     OW18187   6.163   5.139   6.952 -0.0169  0.1501  0.1200
 5078SOL    HW118188   6.134   5.065   6.898  0.8727 -0.2987  0.2396
 5078SOL    HW218189   6.082   5.182   6.979 -0.5050  0.8772 -2.2257
 5079SOL     OW18190   5.706   6.508   4.848 -0.3071 -0.0795 -0.1475
 5079SOL    HW118191   5.760   6.525   4.926  0.9653 -1.9151 -0.5644
 5079SOL    HW218192   5.753   6.551   4.777  0.9237 -2.0043 -0.5783
 5080SOL     OW18193   0.349   0.735   5.223 -0.1207  0.2014  0.1909
 5080SOL    HW118194   0.383   0.796   5.157 -0.0328  0.7725  0.7621
 5080SOL    HW218195   0.258   0.761   5.235 -0.5802 -0.8722 -0.8077
 5081SOL     OW18196   4.502   4.127   7.498  0.1824  0.0610 -0.0529
 5081SOL    HW118197   4.497   4.032   7.495 -0.5307  0.0997 -0.2389
 5081SOL    HW218198   4.436   4.157   7.436  0.0830  0.6808  0.3409
 5082SOL     OW18199   6.499   0.757   5.743 -0.1395  0.1497  0.8393
 5082SOL    HW118200   6.537   0.800   5.819 -0.8032  1.4470  0.4560
 5082SOL    HW218201   6.455   0.827   5.695  0.5682 -0.5647 -0.9410
 5083SOL     OW18202   2.142   7.933   8.054 -0.2357 -0.0954 -0.2387
 5083SOL    HW118203   2.121   7.899   8.141  0.8420 -0.7230 -0.2014
 5083SOL    HW218204   2.132   7.858   7.996  1.8070 -0.4632 -0.2137
 5084SOL     OW18205   2.714   7.289   3.766  0.0239  0.8054  0.0017
 5084SOL    HW118206   2.782   7.222   3.771 -0.5036  0.0732 -1.9873
 5084SOL    HW218207   2.761   7.372   3.770  0.7513  0.3624  1.5607
 5085SOL     OW18208   6.004   3.011   1.438 -0.2339 -0.6750 -0.2526
 5085SOL    HW118209   5.922   2.991   1.484 -2.9813  3.2190 -2.8404
 5085SOL    HW218210   6.056   3.060   1.501 -1.4591 -0.1867  0.4111
 5086SOL     OW18211   2.651   5.090   4.400  0.7058  0.1715  0.3370
 5086SOL    HW118212   2.731   5.093   4.452  1.6822 -2.2148 -0.8430
 5086SOL    HW218213   2.621   5.000   4.408 -0.6357  0.4529 -0.9969
 5087SOL     OW18214   6.944   3.754   5.164  0.6843  0.8905 -0.1818
 5087SOL    HW118215   6.851   3.743   5.184  0.5508  1.5497 -0.4310
 5087SOL    HW218216   6.987   3.755   5.250  0.2777  2.1980  0.0295
 5088SOL     OW18217   6.403   5.596   6.045 -0.2460  0.3944  0.2490
 5088SOL    HW118218   6.342   5.644   5.989 -1.5857 -1.3591  0.1159
 5088SOL    HW218219   6.451   5.664   6.092 -3.2548  1.9185  1.3668
 5089SOL     OW18220   0.163   5.366   6.702 -0.5686  0.7239 -0.0209
 5089SOL    HW118221   0.143   5.312   6.778  0.7226  0.6145  0.2555
 5089SOL    HW218222   0.147   5.456   6.731 -1.4449  0.6025 -0.0810
 5090SOL     OW18223   1.878   4.441   7.647 -0.2314 -0.1486 -0.4733
 5090SOL    HW118224   1.886   4.471   7.738 -0.6139 -3.8287  0.9107
 5090SOL    HW218225   1.796   4.481   7.616  0.9323  2.8657 -0.0802
 5091SOL     OW18226   6.385   4.392   0.388 -0.1805  0.2532 -0.6001
 5091SOL    HW118227   6.443   4.322   0.356 -0.1805  0.6040 -1.4002
 5091SOL    HW218228   6.334   4.351   0.457  0.4810 -0.2823 -0.4148
 5092SOL     OW18229   6.034   6.291   4.718  0.5297  0.1868 -0.0921
 5092SOL    HW118230   6.024   6.206   4.762  1.5715  0.2539  0.3194
 5092SOL    HW218231   6.128   6.308   4.722  0.3512  1.2797 -0.3360
 5093SOL     OW18232   0.201   1.318   0.179  0.0623 -0.0242 -0.5635
 5093SOL    HW118233   0.218   1.289   0.089  1.8802 -0.8026 -0.0136
 5093SOL    HW218234   0.214   1.413   0.176  0.2508 -0.0630 -1.0965
 5094SOL     OW18235   4.348   0.534   4.825 -0.2124 -0.4361  0.1570
 5094SOL    HW118236   4.334   0.439   4.829 -0.7027 -0.3980 -0.5095
 5094SOL    HW218237   4.300   0.562   4.747 -0.6717  0.4638  0.7434
 5095SOL     OW18238   5.139   6.554   6.524 -0.5226  0.5817  0.0045
 5095SOL    HW118239   5.092   6.516   6.449 -1.8457  1.0363  0.5740
 5095SOL    HW218240   5.071   6.594   6.577  0.1510 -1.0759  2.2885
 5096SOL     OW18241   7.800   1.035   0.919  0.0639 -0.0534  0.0309
 5096SOL    HW118242   7.744   1.085   0.979 -2.0779 -1.4208 -0.7489
 5096SOL    HW218243   7.838   0.966   0.973  0.0410  0.1447  0.3026
 5097SOL     OW18244   6.391   4.933   2.606  0.2516  0.0859  1.0327
 5097SOL    HW118245   6.473   4.979   2.589 -1.5022  2.8925 -0.6890
 5097SOL    HW218246   6.386   4.866   2.538 -0.1708  1.9203 -0.8491
 5098SOL     OW18247   7.243   6.921   1.851 -0.9197 -0.1807 -0.7336
 5098SOL    HW118248   7.177   6.918   1.783  0.5104  0.9673 -2.2529
 5098SOL    HW218249   7.313   6.864   1.819 -0.8187 -0.7813  0.4895
 5099SOL     OW18250   1.680   0.512   4.587 -0.4611 -0.4306  0.6802
 5099SOL    HW118251   1.606   0.511   4.647 -0.1954  2.6594  1.1984
 5099SOL    HW218252   1.647   0.556   4.509  0.6733  0.6229  0.7635
 5100SOL     OW18253   6.122   3.014   6.941 -0.2962  0.2648 -0.5700
 5100SOL    HW118254   6.214   3.000   6.964 -0.3987 -0.5801 -0.6297
 5100SOL    HW218255   6.101   3.100   6.976 -0.3243 -0.7444  2.1438
 5101SOL     OW18256   4.878   5.428   2.694 -0.1019 -0.4202 -0.3042
 5101SOL    HW118257   4.933   5.354   2.719  0.0664 -0.5305 -0.9798
 5101SOL    HW218258   4.891   5.493   2.763 -0.0360 -0.9093  0.1470
 5102SOL     OW18259   5.530   7.873   3.818  0.1292 -0.2129 -0.5616
 5102SOL    HW118260   5.463   7.885   3.885  1.0205 -1.8098  0.7095
 5102SOL    HW218261   5.559   7.782   3.829  0.2964 -0.5633 -3.1643
 5103SOL     OW18262   2.473   1.285   3.742  0.5452 -0.1800 -0.5394
 5103SOL    HW118263   2.460   1.254   3.832 -0.8769 -0.0066 -0.6666
 5103SOL    HW218264   2.555   1.334   3.745  0.0804  0.5686  0.8655
 5104SOL     OW18265   3.380   2.334   6.935  0.2215  0.3414 -0.2735
 5104SOL    HW118266   3.473   2.325   6.958  0.2859 -0.6654 -0.8643
 5104SOL    HW218267   3.337   2.261   6.979 -0.2268  0.5526 -0.3546
 5105SOL     OW18268   2.248   5.714   5.292 -0.1241  0.3981 -0.5110
 5105SOL    HW118269   2.169   5.723   5.240  1.3878 -0.7888 -3.2287
 5105SOL    HW218270   2.262   5.801   5.330 -2.2189  0.8389 -0.6593
 5106SOL     OW18271   1.346   2.783   0.057  0.3285  0.4080 -0.4108
 5106SOL    HW118272   1.253   2.783   0.078  0.0509  2.2891 -1.4275
 5106SOL    HW218273   1.390   2.775   0.142 -0.7751  1.5310  0.2978
 5107SOL     OW18274   1.194   6.569   5.029  0.4484  0.1136  0.5183
 5107SOL    HW118275   1.112   6.610   5.055  0.4595 -0.2061  1.0716
 5107SOL    HW218276   1.222   6.520   5.106  2.0481  1.5834  0.9289
 5108SOL     OW18277   1.223   3.476   0.040 -0.0282  0.1415 -0.3415
 5108SOL    HW118278   1.197   3.409  -0.023  2.0041 -0.6199 -0.4702
 5108SOL    HW218279   1.209   3.559  -0.005  0.2980 -0.3435 -1.3602
 5109SOL     OW18280   0.914   4.011   0.772  0.3341 -0.4008  0.3843
 5109SOL    HW118281   0.945   3.974   0.689 -0.7140 -1.0661  0.2656
 5109SOL    HW218282   0.988   4.062   0.805  1.1223 -0.9700 -0.4527
 5110SOL     OW18283   1.173   3.393   4.721 -0.1368 -0.0848 -0.1783
 5110SOL    HW118284   1.165   3.472   4.667  1.2793  0.6311  0.5966
 5110SOL    HW218285   1.266   3.387   4.742 -0.4729 -0.9577  1.2528
 5111SOL     OW18286   3.888   3.047   1.847  0.3958  0.3838  0.0435
 5111SOL    HW118287   3.966   3.081   1.891  0.1346  1.4723 -0.2841
 5111SOL    HW218288   3.905   3.059   1.754 -0.4759  1.4461 -0.0104
 5112SOL     OW18289   5.587   6.170   7.994 -0.1951 -0.2641 -0.3358
 5112SOL    HW118290   5.588   6.178   8.089  1.5297 -0.6537 -0.2854
 5112SOL    HW218291   5.659   6.225   7.964  0.0401 -1.0700 -1.3268
 5113SOL     OW18292   7.907   2.647   0.120  0.1948  0.3204  0.9215
 5113SOL    HW118293   7.813   2.634   0.111 -0.0611  2.4314  0.1476
 5113SOL    HW218294   7.924   2.734   0.083  2.7063 -0.6666 -0.5169
 5114SOL     OW18295   7.715   6.474   3.961 -0.3561 -0.1347 -0.2975
 5114SOL    HW118296   7.660   6.508   4.031  1.7173 -0.7651  1.7714
 5114SOL    HW218297   7.780   6.543   3.947  0.6143 -0.9593  0.0478
 5115SOL     OW18298   7.327   2.947   6.532 -0.3204  0.2292 -0.4133
 5115SOL    HW118299   7.276   2.867   6.541  0.4732 -0.1821  0.8092
 5115SOL    HW218300   7.303   2.982   6.446 -0.6475 -1.3417 -0.9990
 5116SOL     OW18301   5.479   6.382   2.055  0.3066  0.1054  0.4614
 5116SOL    HW118302   5.511   6.313   2.113 -0.6194  0.4541  1.4155
 5116SOL    HW218303   5.425   6.335   1.991 -1.7733  0.0447  2.1315
 5117SOL     OW18304   1.531   2.832   5.495  0.1804  0.3815 -0.0955
 5117SOL    HW118305   1.438   2.851   5.506 -0.0458 -0.5847 -0.2667
 5117SOL    HW218306   1.575   2.897   5.550 -0.6191  0.4305  0.5044
 5118SOL     OW18307   5.181   5.856   3.927  0.1024 -0.6214  0.1033
 5118SOL    HW118308   5.263   5.866   3.977  0.2991 -0.1259 -0.3100
 5118SOL    HW218309   5.187   5.768   3.890  0.6411 -0.4438 -0.2522
 5119SOL     OW18310   5.098   5.821   6.017  0.4446  0.1694  0.1077
 5119SOL    HW118311   5.040   5.780   6.081  1.3773 -0.9046  0.3045
 5119SOL    HW218312   5.172   5.853   6.069  0.4228  0.7886 -0.2374
 5120SOL     OW18313   3.745   4.193   0.418 -0.7047  0.0517 -0.1037
 5120SOL    HW118314   3.805   4.118   0.413 -2.2255 -1.2016 -0.6576
 5120SOL    HW218315   3.714   4.192   0.509 -0.9868 -0.2358 -0.1983
 5121SOL     OW18316   1.313   6.410   5.578  0.3741 -0.2484  0.6841
 5121SOL    HW118317   1.347   6.394   5.490 -0.0275  0.5833  0.3566
 5121SOL    HW218318   1.368   6.359   5.636  1.4533  0.1852  0.0634
 5122SOL     OW18319   5.237   4.355   7.081  0.2199  0.1013 -0.1246
 5122SOL    HW118320   5.148   4.327   7.058  0.0023  1.0771 -0.4905
 5122SOL    HW218321   5.294   4.288   7.042 -0.2287  0.7933 -2.0764
 5123SOL     OW18322   1.533   0.578   4.371 -0.7420 -0.4127 -0.3127
 5123SOL    HW118323   1.513   0.516   4.301 -1.2538 -0.9441  0.2893
 5123SOL    HW218324   1.454   0.632   4.379 -1.4302 -1.5341  1.0525
 5124SOL     OW18325   7.157   0.400   5.393 -0.6109 -0.0825 -0.1210
 5124SOL    HW118326   7.146   0.487   5.355 -0.6593  0.0825  0.2685
 5124SOL    HW218327   7.153   0.341   5.318  1.0010  0.3519 -0.5895
 5125SOL     OW18328   7.274   6.851   6.539 -0.7014  0.0662 -0.1424
 5125SOL    HW118329   7.284   6.877   6.448  1.5288  0.0830  0.0514
 5125SOL    HW218330   7.224   6.921   6.579  1.6225  2.0877 -0.5423
 5126SOL     OW18331   5.384   0.078   7.392 -0.5181 -0.0438 -0.2046
 5126SOL    HW118332   5.421   0.012   7.450 -1.1006  0.0378  0.2656
 5126SOL    HW218333   5.456   0.139   7.376 -0.6726  0.6259  1.4377
 5127SOL     OW18334   3.449   0.442   4.849 -0.4493 -0.4927 -0.4012
 5127SOL    HW118335   3.534   0.464   4.887 -0.5602  0.0585 -0.4709
 5127SOL    HW218336   3.420   0.365   4.899 -0.3360 -0.1235  0.2449
 5128SOL     OW18337   6.700   4.801   5.787 -0.2049 -0.5615 -0.0002
 5128SOL    HW118338   6.637   4.733   5.806  0.5479 -1.5696 -0.9491
 5128SOL    HW218339   6.674   4.834   5.701 -1.5845  1.5934  1.1580
 5129SOL     OW18340   4.635   2.330   7.113 -0.3950 -0.3895 -0.0506
 5129SOL    HW118341   4.571   2.267   7.079 -0.5387 -0.3670  0.1799
 5129SOL    HW218342   4.692   2.349   7.038 -0.3303 -0.8203 -0.1141
 5130SOL     OW18343   6.548   0.865   6.046 -0.3060 -0.0795  0.2154
 5130SOL    HW118344   6.507   0.921   6.111  0.5587 -1.7486  2.3154
 5130SOL    HW218345   6.496   0.784   6.048  0.6365 -0.7017 -0.0834
 5131SOL     OW18346   2.330   1.266   1.290 -0.0601 -0.3654  0.5236
 5131SOL    HW118347   2.363   1.177   1.278 -0.7524 -0.5227 -0.3211
 5131SOL    HW218348   2.316   1.274   1.384  0.0891 -1.1167  0.6173
 5132SOL     OW18349   7.357   3.978   6.398 -0.6572  0.0185 -0.0345
 5132SOL    HW118350   7.383   3.983   6.306 -1.4563  1.3939 -0.2059
 5132SOL    HW218351   7.388   4.059   6.437 -1.8504  0.2433  0.4926
 5133SOL     OW18352   6.798   5.875   1.755  0.0688  0.2634 -0.3440
 5133SOL    HW118353   6.780   5.959   1.712  0.0576 -0.1148 -1.0756
 5133SOL    HW218354   6.889   5.855   1.732 -0.2587 -0.4394 -1.0349
 5134SOL     OW18355   1.574   5.062   7.897 -0.1941  0.3905 -0.3536
 5134SOL    HW118356   1.527   5.135   7.855 -0.4257  0.0541 -0.6844
 5134SOL    HW218357   1.551   4.986   7.845 -2.0457 -0.4069  1.4992
 5135SOL     OW18358   3.712   2.290   1.478  0.2929 -0.8346 -0.4399
 5135SOL    HW118359   3.786   2.349   1.493 -0.2802 -0.3801  0.7638
 5135SOL    HW218360   3.751   2.211   1.442  1.5259 -1.0131  1.1611
 5136SOL     OW18361   2.631   0.750   2.204 -0.0630  0.0527  0.4150
 5136SOL    HW118362   2.542   0.721   2.186  0.5259 -2.7943  1.4509
 5136SOL    HW218363   2.623   0.803   2.283 -0.9835  1.2169 -0.4187
 5137SOL     OW18364   2.858   5.240   2.725  0.3687 -0.6217 -0.2510
 5137SOL    HW118365   2.929   5.289   2.685 -0.2361 -0.0166 -0.6084
 5137SOL    HW218366   2.795   5.227   2.655 -1.2109  1.3944  0.6868
 5138SOL     OW18367   0.271   2.254   6.867 -0.3325 -0.3300 -0.1790
 5138SOL    HW118368   0.196   2.308   6.840 -0.4161  0.4810  1.5075
 5138SOL    HW218369   0.347   2.296   6.825 -0.4477  0.8881  0.7837
 5139SOL     OW18370   6.281   8.050   6.711 -0.1723  0.1799  0.0006
 5139SOL    HW118371   6.247   7.985   6.649  0.3044 -1.3859  1.3259
 5139SOL    HW218372   6.263   8.134   6.669 -2.6115 -0.6924 -0.8925
 5140SOL     OW18373   4.253   3.467   7.751  0.1198 -0.4050 -0.3282
 5140SOL    HW118374   4.202   3.389   7.771  0.9120 -0.8238  0.0683
 5140SOL    HW218375   4.189   3.538   7.752 -0.6253 -1.0514 -0.8049
 5141SOL     OW18376   3.012   5.689   1.395  0.3345 -0.5020 -0.2963
 5141SOL    HW118377   3.055   5.700   1.480 -0.1666  0.9571 -0.1986
 5141SOL    HW218378   3.040   5.603   1.365  0.8898 -0.8506  1.1362
 5142SOL     OW18379   7.942   5.366   4.824 -0.3490  0.2209  0.4984
 5142SOL    HW118380   7.987   5.428   4.882 -2.1932  1.6021  0.5336
 5142SOL    HW218381   7.852   5.364   4.857 -0.9620 -0.4593 -1.1435
 5143SOL     OW18382   2.237   7.802   4.499 -0.1224  0.1859 -0.7039
 5143SOL    HW118383   2.215   7.871   4.436  1.0307  0.8830 -0.3794
 5143SOL    HW218384   2.329   7.817   4.519 -0.5265  0.1777  1.3782
 5144SOL     OW18385   2.087   1.515   5.830 -1.1567 -0.6331  0.0462
 5144SOL    HW118386   1.995   1.539   5.822 -0.5714  1.7005 -0.5541
 5144SOL    HW218387   2.116   1.558   5.910 -0.7151 -1.9121  0.5986
 5145SOL     OW18388   4.060   0.350   7.723 -0.2372 -0.6238  0.0207
 5145SOL    HW118389   4.087   0.259   7.733 -1.1352 -0.7315  1.9481
 5145SOL    HW218390   4.138   0.400   7.748  0.6129 -0.7933 -2.0911
 5146SOL     OW18391   6.638   7.497   5.678  0.6901 -0.0374 -0.0838
 5146SOL    HW118392   6.652   7.422   5.621  1.1264 -0.8940  1.0983
 5146SOL    HW218393   6.727   7.524   5.704  0.4810 -0.2892  0.9455
 5147SOL     OW18394   4.169   0.263   6.511 -0.0966  0.3810  0.1927
 5147SOL    HW118395   4.260   0.239   6.530  0.4984  1.6148 -0.9571
 5147SOL    HW218396   4.118   0.188   6.540  1.4444 -1.1327 -0.8459
 5148SOL     OW18397   2.204   6.227   0.182  0.6452 -0.4483  0.3810
 5148SOL    HW118398   2.214   6.169   0.258 -1.7732 -2.2358 -0.5173
 5148SOL    HW218399   2.118   6.204   0.146 -0.9307  4.2913  0.3744
 5149SOL     OW18400   4.240   0.016   4.941 -0.1382 -0.1138 -0.2684
 5149SOL    HW118401   4.313  -0.005   4.883  1.3046  2.0966  0.5810
 5149SOL    HW218402   4.266  -0.018   5.027 -0.9118 -0.7960 -0.2920
 5150SOL     OW18403   5.594   1.629   7.620 -0.1102 -0.1237  0.2529
 5150SOL    HW118404   5.632   1.716   7.631 -0.4882  0.1613 -0.6544
 5150SOL    HW218405   5.661   1.579   7.572 -0.9093  0.4395 -1.5344
 5151SOL     OW18406   1.330   6.656   0.911 -0.3578 -0.1358  0.1375
 5151SOL    HW118407   1.331   6.576   0.964 -0.2259 -0.1693  0.0849
 5151SOL    HW218408   1.255   6.645   0.853 -0.5617 -0.0561  0.3823
 5152SOL     OW18409   4.484   4.495   2.744 -0.4232  0.1424  0.2210
 5152SOL    HW118410   4.434   4.455   2.673  1.5243 -2.0519 -0.0320
 5152SOL    HW218411   4.569   4.451   2.741  0.0096  0.5451  3.4214
 5153SOL     OW18412   1.906   1.388   1.307  0.1876  0.2020 -0.3045
 5153SOL    HW118413   1.955   1.468   1.324 -2.8435  2.0339  0.6073
 5153SOL    HW218414   1.908   1.340   1.390 -0.4692  0.8463  0.0992
 5154SOL     OW18415   6.334   1.891   7.075 -0.1562  0.0205 -0.3488
 5154SOL    HW118416   6.284   1.863   6.998 -0.6711  1.5387 -0.6185
 5154SOL    HW218417   6.273   1.947   7.124  0.3420 -0.4735  0.8912
 5155SOL     OW18418   0.761   2.135   5.124  0.8158 -0.4770  0.1467
 5155SOL    HW118419   0.761   2.039   5.131  1.0785 -0.4965 -0.0835
 5155SOL    HW218420   0.843   2.161   5.166  0.6545 -0.3413  0.3735
 5156SOL     OW18421   4.070   7.741   6.590  0.0660  0.2642  0.3489
 5156SOL    HW118422   4.057   7.652   6.622  2.1061  0.4865  1.9362
 5156SOL    HW218423   4.024   7.796   6.654 -1.1353  0.4080 -0.5933
 5157SOL     OW18424   1.470   2.474   6.359  1.0798 -0.7169  0.5749
 5157SOL    HW118425   1.545   2.462   6.301  0.8451  0.5306 -0.0061
 5157SOL    HW218426   1.507   2.469   6.447  1.7914 -0.4031  0.2965
 5158SOL     OW18427   0.706   1.155   0.393  0.1452 -0.2375 -0.0742
 5158SOL    HW118428   0.784   1.211   0.399 -0.3243  0.2977  1.8490
 5158SOL    HW218429   0.634   1.211   0.423 -0.6012 -1.3854  0.3522
 5159SOL     OW18430   1.675   2.651   7.717  0.2980 -0.3066 -0.1620
 5159SOL    HW118431   1.678   2.623   7.625  0.9222 -0.0781 -0.2157
 5159SOL    HW218432   1.618   2.727   7.717 -0.8095 -1.1096 -0.1366
 5160SOL     OW18433   1.612   3.852   1.139  0.3247  0.1953  0.5384
 5160SOL    HW118434   1.665   3.778   1.112  0.0876  0.6077 -1.1505
 5160SOL    HW218435   1.639   3.924   1.082 -2.0504  0.3915 -0.4548
 5161SOL     OW18436   4.528   1.709   6.556 -0.0086 -0.4449 -0.0188
 5161SOL    HW118437   4.551   1.662   6.637 -1.6214 -2.4888 -0.6524
 5161SOL    HW218438   4.580   1.665   6.488 -1.0384 -0.9174 -0.5279
 5162SOL     OW18439   8.030   4.859   0.158 -0.3133  0.0041  0.1770
 5162SOL    HW118440   8.040   4.872   0.064  1.4951 -0.2257  0.3001
 5162SOL    HW218441   8.006   4.767   0.167 -1.5016  0.2743 -0.0913
 5163SOL     OW18442   1.646   2.010   4.598 -0.0138 -0.2739 -0.0531
 5163SOL    HW118443   1.635   1.997   4.503 -1.3306 -0.3308  0.0908
 5163SOL    HW218444   1.577   2.071   4.622 -0.1662 -0.8381  1.0034
 5164SOL     OW18445   6.753   2.791   2.963  0.2385  0.0943 -1.0249
 5164SOL    HW118446   6.789   2.744   3.038  1.2744  1.1341 -0.8539
 5164SOL    HW218447   6.695   2.727   2.921  2.1622 -1.6138 -1.2360
 5165SOL     OW18448   6.030   6.318   5.089 -0.2580 -0.0515 -0.1467
 5165SOL    HW118449   6.093   6.252   5.119  0.1160  0.6462  0.6459
 5165SOL    HW218450   5.997   6.284   5.006  1.8270 -0.0324 -1.0467
 5166SOL     OW18451   6.065   7.496   2.662 -0.2166 -0.2939 -0.0298
 5166SOL    HW118452   6.094   7.517   2.574  0.2219  0.3297  0.2629
 5166SOL    HW218453   5.989   7.439   2.649  0.7316 -1.4269 -0.8002
 5167SOL     OW18454   2.358   3.902   2.267 -0.2518 -0.3164  0.1006
 5167SOL    HW118455   2.305   3.850   2.207 -0.3854  0.3634 -0.3807
 5167SOL    HW218456   2.443   3.858   2.268 -0.0366  0.0273 -1.1164
 5168SOL     OW18457   2.216   5.889   2.949 -0.0844 -0.2422  0.1231
 5168SOL    HW118458   2.271   5.951   2.901 -1.4191  0.2096 -0.8820
 5168SOL    HW218459   2.267   5.808   2.951  0.0087 -0.2903 -2.1320
 5169SOL     OW18460   8.024   0.277   2.258  0.4551  0.4799  0.0037
 5169SOL    HW118461   8.072   0.353   2.225 -0.0791  0.1293 -1.6529
 5169SOL    HW218462   7.938   0.311   2.280  0.6416  0.6019  0.5827
 5170SOL     OW18463   5.816   2.205   7.778  0.4991  0.1466 -0.4252
 5170SOL    HW118464   5.826   2.281   7.836  1.6063 -1.2520  1.3236
 5170SOL    HW218465   5.882   2.218   7.710  3.3579 -0.9455  1.9177
 5171SOL     OW18466   0.015   5.476   1.415  0.3368  0.0457 -0.0426
 5171SOL    HW118467  -0.042   5.522   1.354  0.5138  0.4522  0.0958
 5171SOL    HW218468   0.037   5.394   1.370  0.2662  0.2297 -0.4170
 5172SOL     OW18469   6.791   7.016   4.952  0.1779  0.3094  0.1146
 5172SOL    HW118470   6.861   6.960   4.988  0.4837  1.5990  1.6225
 5172SOL    HW218471   6.749   7.054   5.029 -1.5551  0.3502 -0.8131
 5173SOL     OW18472   6.758   1.172   3.635 -0.1005  0.0362  0.5594
 5173SOL    HW118473   6.848   1.194   3.610 -0.6147 -0.1395 -1.6153
 5173SOL    HW218474   6.768   1.117   3.713  1.7232 -0.5245 -0.0171
 5174SOL     OW18475   5.419   3.044   1.985  0.1767  0.5171  0.1856
 5174SOL    HW118476   5.363   2.979   2.027 -2.0231  0.7053 -2.1865
 5174SOL    HW218477   5.379   3.128   2.007  0.4730  0.7725 -0.2335
 5175SOL     OW18478   2.062   2.134   0.346  0.0743  0.4578  0.2496
 5175SOL    HW118479   2.046   2.066   0.411  0.6380 -0.6169 -0.6963
 5175SOL    HW218480   2.143   2.176   0.376  1.2219 -1.0673 -0.5210
 5176SOL     OW18481   6.154   4.740   4.460  0.1711 -0.2209 -0.0684
 5176SOL    HW118482   6.126   4.649   4.473 -0.1003 -0.1521 -0.1672
 5176SOL    HW218483   6.151   4.752   4.365 -0.3074  0.0541 -0.0195
 5177SOL     OW18484   2.430   0.709   5.593  0.0090 -0.0779 -0.0372
 5177SOL    HW118485   2.367   0.737   5.660 -0.6140 -0.1724 -0.5758
 5177SOL    HW218486   2.504   0.769   5.603 -0.5797  0.6647 -0.0385
 5178SOL     OW18487   1.221   7.310   4.559 -0.1346  0.1999  0.1515
 5178SOL    HW118488   1.143   7.366   4.557 -0.1337  0.2204  0.6620
 5178SOL    HW218489   1.245   7.300   4.467 -0.1150  1.0687  0.0476
 5179SOL     OW18490   2.712   2.139   4.485 -0.2512 -0.2205 -0.2601
 5179SOL    HW118491   2.702   2.121   4.392 -0.8732  1.8578 -0.6475
 5179SOL    HW218492   2.650   2.210   4.502  0.0228 -0.4030  1.6966
 5180SOL     OW18493   7.708   5.047   5.804  0.5300 -0.6987  0.3302
 5180SOL    HW118494   7.768   4.993   5.855  1.4092 -2.0177 -1.9567
 5180SOL    HW218495   7.762   5.115   5.765  0.0770 -0.3838  0.2343
 5181SOL     OW18496   1.439   5.148   4.963  0.1906  1.1516  0.3899
 5181SOL    HW118497   1.353   5.133   4.923 -0.4388  0.0946  2.0625
 5181SOL    HW218498   1.435   5.102   5.047  3.0790 -0.6546 -0.3280
 5182SOL     OW18499   0.026   1.855   4.305  0.5166 -0.2639 -0.0302
 5182SOL    HW118500   0.042   1.939   4.261  0.9616  0.2503  1.0489
 5182SOL    HW218501   0.045   1.789   4.239  2.7943  0.4276 -0.1789
 5183SOL     OW18502   3.442   7.387   3.442  0.4411  0.0639  0.6144
 5183SOL    HW118503   3.490   7.469   3.441  2.1316 -0.8630  1.3384
 5183SOL    HW218504   3.422   7.371   3.534  0.3415 -0.4428  0.5094
 5184SOL     OW18505   6.682   1.728   7.181 -0.0062  0.1920  0.4169
 5184SOL    HW118506   6.777   1.732   7.197  0.3602 -2.6076 -0.4532
 5184SOL    HW218507   6.666   1.797   7.116  1.9261 -0.7038 -1.1477
 5185SOL     OW18508   0.061   6.778   4.555  0.1983 -0.1668 -0.0331
 5185SOL    HW118509   0.029   6.765   4.465  1.3811 -1.2042 -0.3251
 5185SOL    HW218510   0.155   6.763   4.549  0.3558  0.2023  1.3122
 5186SOL     OW18511   5.873   1.396   3.546  0.1440  0.2099  0.4328
 5186SOL    HW118512   5.800   1.354   3.591 -0.1598 -1.8725 -1.8000
 5186SOL    HW218513   5.951   1.354   3.583  0.0091 -0.0423  0.4359
 5187SOL     OW18514   5.898   7.738   4.686  0.1738  0.5489 -1.0495
 5187SOL    HW118515   5.845   7.774   4.615  0.1999  1.3907 -0.6547
 5187SOL    HW218516   5.927   7.814   4.735 -0.5099 -0.0508  0.3503
 5188SOL     OW18517   1.808   2.295   2.244  0.5465  0.1564  0.1909
 5188SOL    HW118518   1.823   2.305   2.150  0.3012 -0.9331  0.0157
 5188SOL    HW218519   1.851   2.212   2.267 -0.0974 -0.0062  0.8620
 5189SOL     OW18520   2.921   5.156   3.173 -0.0466  0.2335 -0.2287
 5189SOL    HW118521   2.871   5.078   3.198  0.4433 -0.6029 -1.7439
 5189SOL    HW218522   3.008   5.142   3.211 -0.0116  0.1188 -0.3492
 5190SOL     OW18523   3.937   5.193   0.294  0.2867  0.0251  0.3390
 5190SOL    HW118524   4.008   5.138   0.259 -0.2182 -1.1046  1.0390
 5190SOL    HW218525   3.874   5.131   0.329 -2.2170  0.8605 -2.2887
 5191SOL     OW18526   0.585   5.037   1.684 -0.0927 -1.0708  0.1857
 5191SOL    HW118527   0.605   5.116   1.733 -0.0684 -0.1870 -1.2046
 5191SOL    HW218528   0.509   5.000   1.729 -1.0070  0.5256  0.0107
 5192SOL     OW18529   5.287   4.847   3.685 -0.0549 -0.2677  0.4724
 5192SOL    HW118530   5.322   4.761   3.707  0.8470  0.0644  0.3776
 5192SOL    HW218531   5.217   4.862   3.749 -0.8453 -1.4521 -0.0855
 5193SOL     OW18532   2.144   6.209   4.165 -0.1153  0.4930  0.2396
 5193SOL    HW118533   2.238   6.203   4.186  0.6123  2.1032 -2.1023
 5193SOL    HW218534   2.140   6.191   4.071 -2.3758 -0.7435  0.5108
 5194SOL     OW18535   6.326   4.127   2.573 -0.2285  0.2496  0.3891
 5194SOL    HW118536   6.258   4.190   2.548 -0.6806 -0.6759 -0.8423
 5194SOL    HW218537   6.359   4.159   2.657 -0.9307  1.7191  0.1434
 5195SOL     OW18538   4.669   5.563   5.096 -0.3130 -0.3072 -0.0780
 5195SOL    HW118539   4.624   5.490   5.054 -1.8169  0.6881 -0.2782
 5195SOL    HW218540   4.741   5.584   5.037  3.1470 -4.4833  2.1156
 5196SOL     OW18541   3.438   5.144   3.210 -0.0466 -0.6575 -0.0105
 5196SOL    HW118542   3.513   5.193   3.242  0.2913 -1.2033  0.0482
 5196SOL    HW218543   3.414   5.186   3.128 -0.4257  0.2611  0.5550
 5197SOL     OW18544   1.213   1.554   6.073 -0.2677  0.1776 -0.3500
 5197SOL    HW118545   1.286   1.606   6.038  0.4720  0.6881  1.7693
 5197SOL    HW218546   1.146   1.619   6.093 -0.8925 -0.1696 -1.2695
 5198SOL     OW18547   6.639   7.282   5.523  0.1735  0.2049  0.5000
 5198SOL    HW118548   6.582   7.303   5.449  0.7874 -0.1179 -0.0789
 5198SOL    HW218549   6.622   7.190   5.540  2.0423 -0.4982 -1.0805
 5199SOL     OW18550   2.133   4.181   0.422  0.2599  0.4602  0.2966
 5199SOL    HW118551   2.099   4.093   0.434 -0.8472  0.7620 -0.5223
 5199SOL    HW218552   2.118   4.224   0.506 -2.2438  0.8435 -0.2640
 5200SOL     OW18553   1.000   8.102   0.228 -0.3276 -0.4933 -0.2968
 5200SOL    HW118554   1.060   8.174   0.246 -1.4108  0.8525 -1.7736
 5200SOL    HW218555   0.943   8.097   0.305  1.3222 -1.5078  0.9298
 5201SOL     OW18556   5.040   6.379   4.831  0.1746 -0.5966 -0.0885
 5201SOL    HW118557   5.086   6.460   4.807  1.4727 -1.6515 -1.3784
 5201SOL    HW218558   5.053   6.371   4.925  0.1437  0.6296  0.0299
 5202SOL     OW18559   1.649   5.304   4.625  0.2471 -1.2115 -0.0681
 5202SOL    HW118560   1.568   5.264   4.593  0.5456 -2.7942  1.0222
 5202SOL    HW218561   1.702   5.315   4.546 -0.8275 -0.5882 -0.7340
 5203SOL     OW18562   1.553   0.540   2.361 -0.3241  0.0802 -0.4261
 5203SOL    HW118563   1.537   0.614   2.303 -0.9856  1.2027  1.0993
 5203SOL    HW218564   1.467   0.500   2.374 -0.0173 -0.7818 -1.0041
 5204SOL     OW18565   2.239   2.427   4.719 -0.2576 -0.4727 -0.2297
 5204SOL    HW118566   2.288   2.352   4.749  0.2824 -0.1249 -0.2304
 5204SOL    HW218567   2.303   2.481   4.672 -0.9355 -0.7070 -1.4772
 5205SOL     OW18568   5.541   6.871   4.552  0.1290 -0.0033  0.0007
 5205SOL    HW118569   5.543   6.879   4.456  1.0984  0.6772  0.0639
 5205SOL    HW218570   5.628   6.899   4.580 -0.0454 -0.4949  1.0678
 5206SOL     OW18571   0.680   3.076   7.657 -0.0973 -0.3810  0.4737
 5206SOL    HW118572   0.632   3.151   7.691 -0.3122 -0.9545  1.4841
 5206SOL    HW218573   0.615   3.027   7.606  0.0369  0.0958 -0.1608
 5207SOL     OW18574   3.949   3.337   4.118 -0.3643  0.9512  0.1041
 5207SOL    HW118575   3.909   3.250   4.117  0.1169  0.7266 -0.4652
 5207SOL    HW218576   4.038   3.323   4.086  0.5106  1.2862  2.1910
 5208SOL     OW18577   5.650   6.037   7.120  0.1140 -0.1332  0.0764
 5208SOL    HW118578   5.665   5.950   7.159 -0.6952 -0.3669 -0.1146
 5208SOL    HW218579   5.592   6.020   7.046  0.9140  0.4250 -0.6953
 5209SOL     OW18580   7.980   5.008   2.968 -0.2880 -0.4682  0.2131
 5209SOL    HW118581   7.941   4.957   3.039 -3.4510  0.0211 -0.9967
 5209SOL    HW218582   8.023   4.943   2.912 -1.8911 -1.5154  0.1324
 5210SOL     OW18583   5.244   7.143   6.371  0.2047  0.5713  0.3964
 5210SOL    HW118584   5.233   7.221   6.318  1.2650 -0.3833 -1.3022
 5210SOL    HW218585   5.184   7.079   6.333  0.7911 -0.0494  0.4965
 5211SOL     OW18586   2.417   7.631   2.462  0.5635 -0.3655  0.1315
 5211SOL    HW118587   2.324   7.611   2.451  0.4027  0.1005  0.6125
 5211SOL    HW218588   2.462   7.551   2.436  0.0570 -0.4135 -0.6564
 5212SOL     OW18589   5.925   5.684   3.328  0.1259  0.8087 -0.3348
 5212SOL    HW118590   5.843   5.711   3.288  0.3561  2.1137  0.0185
 5212SOL    HW218591   5.903   5.604   3.377  0.1529 -1.7414 -4.0978
 5213SOL     OW18592   3.411   0.992   0.151  0.3049  0.4081  0.2131
 5213SOL    HW118593   3.399   0.975   0.244  0.7198  0.5479  0.2913
 5213SOL    HW218594   3.345   0.937   0.109 -0.3501  0.8661  0.6171
 5214SOL     OW18595   7.318   6.301   6.631  0.7738 -0.7723  0.5447
 5214SOL    HW118596   7.319   6.388   6.592 -1.3614 -0.8281  0.2317
 5214SOL    HW218597   7.408   6.288   6.663  1.4028  1.1082 -0.2838
 5215SOL     OW18598   6.266   3.323   4.395 -0.0016 -0.0099  0.4209
 5215SOL    HW118599   6.243   3.256   4.460 -0.5821 -2.0012 -1.7125
 5215SOL    HW218600   6.350   3.358   4.426 -0.0493 -1.1772  2.0049
 5216SOL     OW18601   2.596   0.905   0.614 -0.5305 -0.3312 -0.4055
 5216SOL    HW118602   2.582   0.948   0.530 -1.8647  0.0908  0.0087
 5216SOL    HW218603   2.527   0.938   0.670  0.1991 -0.7809  0.8066
 5217SOL     OW18604   1.958   6.451   6.463  0.1223 -0.0294  0.1079
 5217SOL    HW118605   1.992   6.528   6.510 -1.9307  2.2682 -1.9036
 5217SOL    HW218606   1.985   6.465   6.372  0.4844 -2.2167 -0.1605
 5218SOL     OW18607   0.446   5.801   5.427  0.1123 -0.4695  0.3639
 5218SOL    HW118608   0.509   5.731   5.407  0.0298 -0.2520 -0.6910
 5218SOL    HW218609   0.446   5.805   5.523  2.6920  0.4007  0.4218
 5219SOL     OW18610   7.143   1.823   1.921  0.3253  0.1469  0.2271
 5219SOL    HW118611   7.104   1.774   1.994 -2.7069  0.2980 -1.1180
 5219SOL    HW218612   7.167   1.756   1.857  1.3953  0.1216  0.6392
 5220SOL     OW18613   6.254   0.391   0.755 -0.3264 -0.1238  0.2586
 5220SOL    HW118614   6.177   0.448   0.754 -1.1750 -1.2238  0.8889
 5220SOL    HW218615   6.225   0.311   0.712  0.8516 -0.1136 -0.6098
 5221SOL     OW18616   0.245   5.543   3.294 -0.0745  0.0821  0.1947
 5221SOL    HW118617   0.157   5.580   3.288 -0.1942 -0.2253 -0.0176
 5221SOL    HW218618   0.230   5.453   3.323 -0.0469 -0.7898 -2.2287
 5222SOL     OW18619   0.283   2.735   2.492 -0.1781  0.2516  0.3455
 5222SOL    HW118620   0.298   2.645   2.465 -0.0329 -0.5723  2.8955
 5222SOL    HW218621   0.285   2.785   2.410  1.2309 -1.8190 -0.9934
 5223SOL     OW18622   1.417   1.486   5.120  0.8908  0.4485  0.3381
 5223SOL    HW118623   1.326   1.503   5.095  1.3326  1.7060 -0.5341
 5223SOL    HW218624   1.428   1.392   5.106 -0.4869  0.1230  1.2227
 5224SOL     OW18625   5.220   3.024   7.365 -0.7956  0.5029  0.2494
 5224SOL    HW118626   5.191   2.937   7.335 -2.5379  0.3567  2.1502
 5224SOL    HW218627   5.296   3.006   7.420 -2.0484 -0.0614  1.8860
 5225SOL     OW18628   5.147   3.717   4.862  0.6677  0.6237  0.0398
 5225SOL    HW118629   5.158   3.812   4.868  1.4392  0.5103  0.6959
 5225SOL    HW218630   5.234   3.684   4.840  0.5119  0.0359  0.2683
 5226SOL     OW18631   3.121   2.186   3.419 -0.3290 -0.6993  0.0392
 5226SOL    HW118632   3.050   2.208   3.479  1.4065  1.5069  1.4821
 5226SOL    HW218633   3.175   2.124   3.469  0.0532 -0.4484 -0.0631
 5227SOL     OW18634   2.966   5.790   5.104  0.3790 -0.1841  0.1161
 5227SOL    HW118635   2.962   5.719   5.041 -0.0544 -0.0301 -0.0336
 5227SOL    HW218636   3.002   5.750   5.183 -0.7116 -0.7965  0.3269
 5228SOL     OW18637   1.229   1.297   1.355  0.0976 -0.1000  0.0519
 5228SOL    HW118638   1.174   1.349   1.297  0.2613  1.1412  0.9772
 5228SOL    HW218639   1.279   1.361   1.405  0.2870 -1.1472  1.2462
 5229SOL     OW18640   3.902   2.324   7.475  0.5563  0.4934 -0.0813
 5229SOL    HW118641   3.895   2.380   7.399  1.7659  0.1915 -0.4334
 5229SOL    HW218642   3.898   2.383   7.550  0.7744  0.9278 -0.4163
 5230SOL     OW18643   3.037   4.926   2.456  0.1439  0.6182  0.3472
 5230SOL    HW118644   2.995   4.985   2.394  0.7078  2.4402  1.6416
 5230SOL    HW218645   3.082   4.983   2.518  1.1870 -1.1790  1.3418
 5231SOL     OW18646   3.522   2.540   1.399  0.1441 -0.5639 -0.2820
 5231SOL    HW118647   3.451   2.602   1.386 -0.7021 -1.9170 -2.8252
 5231SOL    HW218648   3.557   2.561   1.485 -1.9228  1.5489  0.1372
 5232SOL     OW18649   5.858   6.512   5.102  0.2734 -0.3112 -0.5445
 5232SOL    HW118650   5.931   6.451   5.101  0.3623 -0.2452  0.7462
 5232SOL    HW218651   5.897   6.596   5.127 -0.1620 -0.1691 -0.3348
 5233SOL     OW18652   0.453   5.692   3.667  0.2956  0.1547  0.2954
 5233SOL    HW118653   0.425   5.600   3.667 -0.3698  0.3445  0.6911
 5233SOL    HW218654   0.530   5.694   3.611 -0.0353 -0.5434 -0.1961
 5234SOL     OW18655   0.007   5.449   7.808  0.0687  0.6695 -0.8226
 5234SOL    HW118656  -0.012   5.356   7.811 -0.2333  0.7575  1.0107
 5234SOL    HW218657   0.072   5.463   7.876 -1.9686  2.1981  0.9497
 5235SOL     OW18658   0.442   0.473   4.615 -0.1166  0.9978 -0.4391
 5235SOL    HW118659   0.534   0.499   4.608  0.1142 -0.0888 -2.1719
 5235SOL    HW218660   0.413   0.465   4.524 -1.5899  0.1944  0.0747
 5236SOL     OW18661   6.205   4.346   4.362  0.1981  0.1575 -0.6286
 5236SOL    HW118662   6.126   4.396   4.341  0.1806 -0.6893 -2.8839
 5236SOL    HW218663   6.176   4.283   4.427 -0.3513  1.4557  0.4373
 5237SOL     OW18664   4.394   0.920   1.448 -0.0082 -0.3347 -0.0499
 5237SOL    HW118665   4.421   0.938   1.358 -0.5895  0.9196  0.0053
 5237SOL    HW218666   4.428   0.832   1.466 -0.4232 -0.8771 -1.7052
 5238SOL     OW18667   7.613   4.176   1.349 -0.2063  0.0345 -0.2838
 5238SOL    HW118668   7.626   4.172   1.444  0.5987  0.0222 -0.3866
 5238SOL    HW218669   7.588   4.267   1.332 -0.4444  0.0152 -0.0536
 5239SOL     OW18670   1.390   3.341   0.433 -0.0600 -0.0077 -0.4546
 5239SOL    HW118671   1.457   3.396   0.392  0.4383 -0.2830 -0.0164
 5239SOL    HW218672   1.360   3.284   0.363  0.1032  0.1763 -0.6761
 5240SOL     OW18673   3.727   7.187   8.003  0.0398 -0.0098  0.3786
 5240SOL    HW118674   3.656   7.158   7.945  1.0937 -1.1011 -0.4026
 5240SOL    HW218675   3.807   7.170   7.953  0.8374  1.8666  0.9582
 5241SOL     OW18676   8.020   0.983   7.448  0.1893  1.1034 -0.6283
 5241SOL    HW118677   7.945   1.001   7.506 -0.4531 -0.2409 -1.0190
 5241SOL    HW218678   7.982   0.936   7.374  1.4948  0.0230 -0.6332
 5242SOL     OW18679   3.351   4.501   3.239  0.2172 -0.2727  0.2971
 5242SOL    HW118680   3.282   4.553   3.280  0.8962  0.2833  0.7720
 5242SOL    HW218681   3.312   4.467   3.159 -0.0257  1.5913 -0.4202
 5243SOL     OW18682   1.635   3.226   6.399 -0.2253  0.1930  0.4471
 5243SOL    HW118683   1.599   3.311   6.376 -0.4288 -0.1608 -0.6135
 5243SOL    HW218684   1.560   3.176   6.430 -0.2229  0.2077  0.4761
 5244SOL     OW18685   7.286   2.552   6.337  0.2341  0.4327  0.0979
 5244SOL    HW118686   7.364   2.556   6.282  0.8692  0.7511  0.9910
 5244SOL    HW218687   7.245   2.468   6.316  0.0357  0.8838 -1.3975
 5245SOL     OW18688   2.517   4.903   8.034 -0.0519  0.1057 -0.3959
 5245SOL    HW118689   2.510   4.956   8.114 -0.2903 -1.9330  1.0105
 5245SOL    HW218690   2.428   4.898   8.000  0.0230  0.8334 -0.7278
 5246SOL     OW18691   3.009   7.882   2.796  0.1117  0.5833  0.0003
 5246SOL    HW118692   2.989   7.971   2.824 -1.3604  0.0958  0.6038
 5246SOL    HW218693   2.951   7.867   2.721  0.6023  0.2281 -0.3215
 5247SOL     OW18694   2.157   3.614   0.504  0.1348  0.2736 -0.3998
 5247SOL    HW118695   2.206   3.555   0.448  0.5897  1.5273 -1.3754
 5247SOL    HW218696   2.075   3.631   0.457 -0.2980 -0.0995  0.1975
 5248SOL     OW18697   7.491   4.609   6.164  0.9499 -0.6783  0.3664
 5248SOL    HW118698   7.557   4.548   6.197  0.0066 -1.6634  0.4592
 5248SOL    HW218699   7.409   4.561   6.168  0.2232  0.5120  0.1826
 5249SOL     OW18700   7.889   0.006   6.182  0.3499  0.4562  0.1106
 5249SOL    HW118701   7.852  -0.004   6.094  2.4448 -0.6981 -0.7138
 5249SOL    HW218702   7.973   0.049   6.168  1.8610 -1.8946  1.2012
 5250SOL     OW18703   1.046   5.621   6.455  0.6190 -0.3787 -0.5166
 5250SOL    HW118704   1.121   5.650   6.507  0.7600 -1.0126 -0.3608
 5250SOL    HW218705   1.000   5.702   6.433  1.9172  0.1456 -1.5026
 5251SOL     OW18706   3.432   2.725   1.659  0.2931 -0.0307 -0.1834
 5251SOL    HW118707   3.417   2.636   1.691 -0.2411  0.0602 -0.1582
 5251SOL    HW218708   3.494   2.763   1.720  2.5196 -1.1869 -1.6009
 5252SOL     OW18709   7.361   3.417   3.976 -0.3056 -0.1021 -0.0010
 5252SOL    HW118710   7.276   3.443   3.942 -0.4986  0.7901  1.1057
 5252SOL    HW218711   7.398   3.497   4.014  0.6019 -0.6837  0.3944
 5253SOL     OW18712   6.413   0.470   0.538  0.7821  0.4606 -0.1166
 5253SOL    HW118713   6.497   0.427   0.555  0.3823 -0.7421 -1.0584
 5253SOL    HW218714   6.361   0.454   0.617  1.4846  1.3861  0.5548
 5254SOL     OW18715   2.611   8.022   4.492  0.3013  0.4730 -0.8832
 5254SOL    HW118716   2.594   7.942   4.542  2.9191  0.9280  0.9563
 5254SOL    HW218717   2.626   8.089   4.558 -2.3177  2.7327 -2.3814
 5255SOL     OW18718   2.852   1.704   4.863  0.7802 -0.4804 -0.7055
 5255SOL    HW118719   2.882   1.622   4.902 -0.3152 -0.6722 -0.2183
 5255SOL    HW218720   2.930   1.742   4.823  1.8859 -0.5239  1.2493
 5256SOL     OW18721   6.925   6.083   0.975  0.1776 -0.8650 -0.4537
 5256SOL    HW118722   6.958   6.085   0.886  0.0289  0.0023 -0.4965
 5256SOL    HW218723   6.852   6.145   0.976 -0.4077 -1.5373  0.0472
 5257SOL     OW18724   4.910   2.825   2.665  0.2567  0.1168  0.0420
 5257SOL    HW118725   4.822   2.858   2.647  0.2519  0.5079  0.7428
 5257SOL    HW218726   4.952   2.895   2.715  0.4757 -0.6709  0.9843
 5258SOL     OW18727   1.711   5.628   1.871  0.1662  0.2154  0.7425
 5258SOL    HW118728   1.639   5.642   1.933 -1.5972  0.1028 -1.1904
 5258SOL    HW218729   1.684   5.673   1.791  0.6050 -2.6837 -1.1997
 5259SOL     OW18730   3.675   5.256   4.129 -0.4080  0.1177  0.1214
 5259SOL    HW118731   3.702   5.227   4.042  0.8944  0.9102  0.2365
 5259SOL    HW218732   3.664   5.175   4.179 -2.8299 -0.4804 -1.1799
 5260SOL     OW18733   2.981   4.667   2.394  0.0399 -0.5181 -0.0818
 5260SOL    HW118734   3.004   4.755   2.421 -0.8419  0.0284 -1.0653
 5260SOL    HW218735   3.055   4.613   2.423  0.3162  0.4235  1.0678
 5261SOL     OW18736   6.531   3.574   4.445  0.7319 -0.5381 -0.3264
 5261SOL    HW118737   6.622   3.602   4.452 -0.1113  2.1584  0.9408
 5261SOL    HW218738   6.519   3.554   4.352  2.4436 -0.3177 -0.6159
 5262SOL     OW18739   1.202   5.742   2.196 -0.0071  0.0313  0.6447
 5262SOL    HW118740   1.236   5.672   2.253 -0.3153 -0.5289  0.1525
 5262SOL    HW218741   1.257   5.818   2.216  1.1007 -0.6688  0.3676
 5263SOL     OW18742   7.352   1.569   2.364 -0.0284  0.1647 -0.3081
 5263SOL    HW118743   7.299   1.542   2.289 -0.4809 -1.1016  0.4431
 5263SOL    HW218744   7.442   1.545   2.339 -0.0135  0.7815 -0.8873
 5264SOL     OW18745   1.207   5.054   6.245  0.4552  0.5909  0.1718
 5264SOL    HW118746   1.128   5.031   6.295  0.9142 -0.4382  0.4515
 5264SOL    HW218747   1.259   4.974   6.245  0.2638  0.3852 -2.3766
 5265SOL     OW18748   2.206   5.136   0.821  0.0611 -0.2670 -0.6204
 5265SOL    HW118749   2.190   5.226   0.792 -2.1351  0.1913  1.6265
 5265SOL    HW218750   2.155   5.082   0.761 -0.2672  0.1935 -0.7685
 5266SOL     OW18751   7.232   7.031   2.616  0.2657 -0.1009  0.4132
 5266SOL    HW118752   7.238   7.034   2.521  1.5638 -0.8418  0.4440
 5266SOL    HW218753   7.170   6.961   2.635  2.1767 -1.9618  0.1051
 5267SOL     OW18754   1.787   5.403   6.667 -0.1417  0.3233  0.0749
 5267SOL    HW118755   1.762   5.354   6.589 -1.9963  4.6446 -2.4385
 5267SOL    HW218756   1.704   5.425   6.709  0.7211 -0.0768  2.0800
 5268SOL     OW18757   2.345   7.092   5.127 -0.0533 -0.0358  0.4678
 5268SOL    HW118758   2.388   7.174   5.153  0.7682 -0.0975 -0.6251
 5268SOL    HW218759   2.362   7.032   5.200  0.4923  0.3718  0.6846
 5269SOL     OW18760   5.291   6.842   4.748 -0.2475  0.0671  0.0545
 5269SOL    HW118761   5.216   6.797   4.786 -1.7354  3.5124  1.5765
 5269SOL    HW218762   5.270   6.848   4.654 -0.6919 -1.0391  0.0624
 5270SOL     OW18763   4.737   4.611   7.088  0.3141 -0.0273 -0.5201
 5270SOL    HW118764   4.741   4.673   7.016 -0.4746 -0.1657 -0.6933
 5270SOL    HW218765   4.756   4.663   7.166 -0.6815  0.5155 -0.6248
 5271SOL     OW18766   4.291   3.338   0.857  0.0069 -0.0715  0.1864
 5271SOL    HW118767   4.241   3.277   0.803 -1.2187 -0.2037  1.4091
 5271SOL    HW218768   4.375   3.347   0.812 -0.8353 -0.4413 -1.5099
 5272SOL     OW18769   6.786   8.051   5.984  0.3366 -0.3476  0.0099
 5272SOL    HW118770   6.701   8.090   5.964  0.7056  0.6507  0.3488
 5272SOL    HW218771   6.799   7.986   5.915 -0.4739 -0.1543 -0.3379
 5273SOL     OW18772   1.359   4.037   5.564  0.0016 -0.0039  0.2528
 5273SOL    HW118773   1.343   4.060   5.655  0.2983 -0.4058  0.4070
 5273SOL    HW218774   1.382   3.944   5.566  0.3854  0.0786 -0.1865
 5274SOL     OW18775   0.460   5.181   6.304  0.2966  0.1331  0.7621
 5274SOL    HW118776   0.425   5.192   6.393 -0.4509  0.8714  0.3940
 5274SOL    HW218777   0.548   5.218   6.308 -0.5992  2.4585  0.6340
 5275SOL     OW18778   7.966   7.063   2.551 -0.6535 -0.0875  0.2864
 5275SOL    HW118779   8.025   7.085   2.479  0.0410  0.5307  1.0323
 5275SOL    HW218780   7.879   7.079   2.516 -0.5469 -2.5155 -1.3839
 5276SOL     OW18781   1.955   6.566   7.895 -0.2130  0.3192  0.7346
 5276SOL    HW118782   2.010   6.515   7.954 -0.1696 -0.7205 -0.1894
 5276SOL    HW218783   2.016   6.608   7.835 -0.4173 -1.2684 -0.6341
 5277SOL     OW18784   2.686   1.365   0.971  1.1411  0.3943  0.2515
 5277SOL    HW118785   2.662   1.380   1.063 -1.7441  0.9617 -0.4908
 5277SOL    HW218786   2.744   1.289   0.974  0.0212 -0.4871  2.4753
 5278SOL     OW18787   6.984   2.587   0.168  0.0788 -0.4652  0.5075
 5278SOL    HW118788   6.913   2.523   0.160 -1.1022  0.7853  0.5072
 5278SOL    HW218789   6.991   2.603   0.263 -0.8372  0.6491  0.4138
 5279SOL     OW18790   7.065   7.241   2.676 -0.4952 -0.1289  0.2047
 5279SOL    HW118791   7.125   7.166   2.674 -0.0641  0.2175 -0.2941
 5279SOL    HW218792   7.116   7.313   2.638 -0.8739  0.4396  0.7582
 5280SOL     OW18793   5.802   6.986   4.663 -0.5519  0.6584 -0.6116
 5280SOL    HW118794   5.815   7.013   4.572  1.4009 -0.5469 -0.7327
 5280SOL    HW218795   5.811   7.067   4.713 -1.4777  1.3094 -1.4511
 5281SOL     OW18796   3.798   5.193   2.643  0.4235 -0.3840 -0.1349
 5281SOL    HW118797   3.869   5.247   2.607 -0.6311  0.5623 -0.8520
 5281SOL    HW218798   3.824   5.179   2.734  2.0010 -0.8837 -0.6172
 5282SOL     OW18799   3.301   0.893   5.413  0.1067  0.1720 -0.2028
 5282SOL    HW118800   3.220   0.845   5.398 -0.3833  0.8876  0.1062
 5282SOL    HW218801   3.355   0.875   5.336 -0.1088 -0.7665 -0.1486
 5283SOL     OW18802   6.467   7.310   6.023  0.1498 -0.0896 -0.3087
 5283SOL    HW118803   6.468   7.214   6.017 -4.4072 -0.2948 -1.1955
 5283SOL    HW218804   6.485   7.328   6.116  0.5361 -1.8172 -0.0132
 5284SOL     OW18805   5.310   6.061   3.590 -0.2453  0.1200  0.8344
 5284SOL    HW118806   5.304   6.150   3.555  0.8241  0.0827  0.4986
 5284SOL    HW218807   5.390   6.061   3.642  0.0158 -0.7604  0.4567
 5285SOL     OW18808   6.536   1.788   7.927 -0.4415 -0.1556  0.3492
 5285SOL    HW118809   6.600   1.734   7.972 -0.9673  0.2571  1.6186
 5285SOL    HW218810   6.458   1.785   7.982 -1.2170  0.1173 -0.6826
 5286SOL     OW18811   3.575   4.215   3.795  0.0958 -0.3217  0.0011
 5286SOL    HW118812   3.539   4.219   3.706  2.1411  1.4200 -0.8445
 5286SOL    HW218813   3.518   4.271   3.847  0.9041  1.5964 -1.0826
 5287SOL     OW18814   7.404   6.753   4.016 -0.4962  0.3999  0.3518
 5287SOL    HW118815   7.342   6.683   3.997 -2.1944  1.7977  0.4669
 5287SOL    HW218816   7.456   6.761   3.936 -0.3816 -0.8562  0.2774
 5288SOL     OW18817   5.224   1.930   5.890 -0.0796 -0.4121 -0.3287
 5288SOL    HW118818   5.197   2.001   5.948 -1.7701 -0.9950 -0.3377
 5288SOL    HW218819   5.227   1.853   5.947 -2.0578 -1.0519 -0.9968
 5289SOL     OW18820   3.549   3.405   5.717  0.5268 -0.0114 -0.2268
 5289SOL    HW118821   3.523   3.384   5.806  1.4996 -1.2678 -0.2026
 5289SOL    HW218822   3.505   3.487   5.697  0.6333  0.5181  1.5586
 5290SOL     OW18823   4.868   7.848   3.222  0.1071 -0.4896 -0.0123
 5290SOL    HW118824   4.864   7.944   3.213  1.4218 -0.4773 -0.6017
 5290SOL    HW218825   4.777   7.820   3.212  0.0334  0.4424 -2.9540
 5291SOL     OW18826   5.623   2.128   2.231 -0.0677 -0.5589  0.4214
 5291SOL    HW118827   5.615   2.220   2.258 -0.5418 -0.5233  0.1795
 5291SOL    HW218828   5.546   2.113   2.177  1.5700 -0.1708 -2.2189
 5292SOL     OW18829   4.504   0.116   5.536 -0.1734 -0.3830 -0.6489
 5292SOL    HW118830   4.480   0.079   5.620 -0.5856 -2.2047 -1.5097
 5292SOL    HW218831   4.429   0.169   5.510 -0.5779 -0.8508 -0.4389
 5293SOL     OW18832   5.561   3.540   3.106 -0.4737  0.3054 -0.3534
 5293SOL    HW118833   5.599   3.608   3.161 -1.1228  0.7159 -0.3966
 5293SOL    HW218834   5.482   3.512   3.153 -2.2134  2.1271 -1.9872
 5294SOL     OW18835   0.043   4.557   1.941  0.2872 -0.3048 -0.6406
 5294SOL    HW118836   0.039   4.485   1.878  0.9487 -2.5016  1.6603
 5294SOL    HW218837  -0.044   4.559   1.980  1.1365 -2.2284  1.6159
 5295SOL     OW18838   4.831   0.998   1.480  0.0948  0.4614 -0.4362
 5295SOL    HW118839   4.743   1.033   1.467  0.1744  0.2164 -1.7336
 5295SOL    HW218840   4.837   0.924   1.421  0.3283 -1.1172  1.4570
 5296SOL     OW18841   5.090   0.601   1.011  0.4769  0.2188  0.1623
 5296SOL    HW118842   5.106   0.522   1.062  0.5874 -0.0325 -0.2589
 5296SOL    HW218843   5.068   0.569   0.923 -1.0840  0.5888  0.3904
 5297SOL     OW18844   7.142   1.051   1.843 -0.3423 -0.4445  0.7459
 5297SOL    HW118845   7.070   1.112   1.859  0.5614  0.8466  0.0364
 5297SOL    HW218846   7.104   0.984   1.786 -0.7971  0.6666 -0.3130
 5298SOL     OW18847   5.453   1.698   2.695 -0.0168  0.8305 -0.4109
 5298SOL    HW118848   5.367   1.735   2.674  0.0436  0.4748 -1.3024
 5298SOL    HW218849   5.475   1.644   2.620  1.8057  2.3411 -1.0309
 5299SOL     OW18850   2.165   2.747   6.912 -0.8174  0.4159  0.1707
 5299SOL    HW118851   2.206   2.661   6.921 -0.0353  0.9468  2.0928
 5299SOL    HW218852   2.225   2.796   6.857 -0.4880  0.2122  0.3476
 5300SOL     OW18853   5.296   2.128   2.686  0.7135  0.1685  0.3513
 5300SOL    HW118854   5.382   2.087   2.695  0.2864 -0.6815  0.7170
 5300SOL    HW218855   5.252   2.108   2.769 -0.4032 -0.7897 -0.4379
 5301SOL     OW18856   7.987   1.176   2.625 -0.1699  0.0868 -0.5299
 5301SOL    HW118857   7.972   1.270   2.625  0.7706  0.2520  0.0599
 5301SOL    HW218858   8.030   1.158   2.542  2.2530  0.6709  0.4901
 5302SOL     OW18859   7.475   7.019   1.539  0.1818 -0.2914  0.4715
 5302SOL    HW118860   7.491   7.106   1.505  1.1211 -0.5648  0.1830
 5302SOL    HW218861   7.395   6.990   1.495  0.3690  0.0665 -0.1111
 5303SOL     OW18862   4.905   1.845   0.816  0.7180 -0.3641  0.9713
 5303SOL    HW118863   4.916   1.799   0.899  1.1468  0.4139  1.3421
 5303SOL    HW218864   4.992   1.875   0.793  0.3019  1.0613  1.1931
 5304SOL     OW18865   5.712   7.120   5.109  0.1400 -0.7465 -0.0139
 5304SOL    HW118866   5.681   7.172   5.035  0.4071 -1.3287 -0.5393
 5304SOL    HW218867   5.805   7.139   5.115  0.2204 -1.0852 -0.1496
 5305SOL     OW18868   4.513   1.945   8.030 -0.0037 -0.2645 -0.0956
 5305SOL    HW118869   4.592   1.998   8.032 -0.0869 -0.0796 -1.2241
 5305SOL    HW218870   4.501   1.915   8.121  1.2441 -0.1475  0.1153
 5306SOL     OW18871   6.555   8.069   5.831  0.0481  0.1464  0.1944
 5306SOL    HW118872   6.498   7.992   5.820  0.3062 -0.1494  0.8835
 5306SOL    HW218873   6.562   8.106   5.743  1.4485 -1.7142 -0.5543
 5307SOL     OW18874   0.839   1.230   5.259  0.3066  0.2090  0.3069
 5307SOL    HW118875   0.779   1.272   5.198 -0.3481  0.7204  1.2653
 5307SOL    HW218876   0.916   1.210   5.207 -0.9860 -1.2089 -1.1538
 5308SOL     OW18877   1.929   6.406   7.450 -0.0226 -0.0581  0.8320
 5308SOL    HW118878   2.023   6.420   7.458 -0.0999 -0.1377  1.9888
 5308SOL    HW218879   1.906   6.349   7.524 -0.9568 -0.1671  0.4815
 5309SOL     OW18880   8.023   1.553   7.365  0.2153 -0.0546  0.1754
 5309SOL    HW118881   8.048   1.516   7.280 -0.0444 -1.0089  0.5006
 5309SOL    HW218882   8.101   1.543   7.419  0.2991  0.3207  0.1256
 5310SOL     OW18883   5.210   5.747   5.594  0.3930 -0.5404  0.7431
 5310SOL    HW118884   5.263   5.804   5.539  0.1898  0.5350  1.6502
 5310SOL    HW218885   5.124   5.748   5.552  0.0123  0.9407  1.5226
 5311SOL     OW18886   3.071   6.083   0.442  0.2765 -0.0183 -0.3268
 5311SOL    HW118887   3.113   6.058   0.360  1.3100 -0.2885  0.2735
 5311SOL    HW218888   3.036   6.001   0.476 -0.0104  0.0686 -0.4046
 5312SOL     OW18889   1.482   2.192   6.009 -0.1804 -0.0672  0.7916
 5312SOL    HW118890   1.409   2.132   5.997 -0.9104  0.4137  2.4406
 5312SOL    HW218891   1.554   2.137   6.039 -0.3082 -0.3524  0.5714
 5313SOL     OW18892   2.606   0.491   0.117 -0.0668  0.2238  0.1545
 5313SOL    HW118893   2.570   0.513   0.031  3.3248  1.7455 -1.0490
 5313SOL    HW218894   2.665   0.417   0.100 -0.8544 -0.8098  1.6244
 5314SOL     OW18895   0.429   6.273   4.771  0.4000 -0.3565 -0.5129
 5314SOL    HW118896   0.502   6.328   4.798  1.7540 -1.4928 -1.7082
 5314SOL    HW218897   0.456   6.184   4.795 -1.4742 -0.6235  0.8341
 5315SOL     OW18898   4.696   3.722   1.010 -0.1808  0.3766 -0.0929
 5315SOL    HW118899   4.628   3.697   0.947 -0.4521  0.0837  0.3095
 5315SOL    HW218900   4.775   3.731   0.957 -0.6241  1.1769 -0.6384
 5316SOL     OW18901   2.035   7.884   6.389 -0.4846 -1.0072 -0.0167
 5316SOL    HW118902   2.017   7.840   6.306 -2.2603 -0.9577  0.3004
 5316SOL    HW218903   2.041   7.814   6.453 -2.3033 -0.9105  0.3162
 5317SOL     OW18904   2.666   4.846   4.513 -0.6056 -0.6654 -0.4033
 5317SOL    HW118905   2.732   4.795   4.466 -0.1626 -0.7355  0.2800
 5317SOL    HW218906   2.690   4.838   4.605 -2.3946 -1.8564  0.0026
 5318SOL     OW18907   3.619   7.307   2.119 -0.3905 -0.4943  0.0722
 5318SOL    HW118908   3.689   7.372   2.127 -0.0670 -0.3462 -2.9244
 5318SOL    HW218909   3.539   7.356   2.138 -0.0196  0.4191 -0.6150
 5319SOL     OW18910   5.071   3.146   1.613  0.1560  0.1706 -0.2991
 5319SOL    HW118911   5.124   3.096   1.551 -1.7207  0.8750 -2.6247
 5319SOL    HW218912   5.123   3.224   1.633  1.2044 -0.5480 -0.1695
 5320SOL     OW18913   4.516   1.140   2.655 -0.0003  0.5814 -0.0210
 5320SOL    HW118914   4.463   1.070   2.694  0.4901  0.8634  1.2087
 5320SOL    HW218915   4.475   1.220   2.686  0.1956  0.8205 -0.3813
 5321SOL     OW18916   2.595   3.004   3.911  0.1081  0.4944 -0.1705
 5321SOL    HW118917   2.502   2.979   3.913 -0.1461  1.4658  1.0272
 5321SOL    HW218918   2.631   2.968   3.993  0.7922  0.1688 -0.6037
 5322SOL     OW18919   7.475   0.226   3.878  0.4149 -0.2863 -0.0380
 5322SOL    HW118920   7.493   0.252   3.788 -0.4444  2.6849  0.5266
 5322SOL    HW218921   7.380   0.240   3.888  0.0909 -2.6143  0.7783
 5323SOL     OW18922   1.101   1.021   4.055 -0.0545  0.2737  0.4223
 5323SOL    HW118923   1.028   0.960   4.041 -0.7824  1.1473  0.3063
 5323SOL    HW218924   1.078   1.067   4.135  0.3484  0.5818  0.3603
 5324SOL     OW18925   6.760   3.731   4.871  0.3533 -0.3258  0.7996
 5324SOL    HW118926   6.812   3.807   4.896  0.1745 -0.3692  1.3136
 5324SOL    HW218927   6.772   3.724   4.776 -0.1800  0.7676  0.6317
 5325SOL     OW18928   0.896   1.800   2.359 -0.4590  0.6395 -0.0310
 5325SOL    HW118929   0.828   1.764   2.303 -1.1021  1.5868  0.1232
 5325SOL    HW218930   0.932   1.724   2.405 -1.8319  0.2053  0.3584
 5326SOL     OW18931   1.849   7.418   6.359 -0.3833 -0.5708 -0.5588
 5326SOL    HW118932   1.826   7.490   6.300 -1.0236  0.4618  0.8844
 5326SOL    HW218933   1.945   7.417   6.360 -0.3474  0.8466  0.0264
 5327SOL     OW18934   3.443   4.452   5.544  0.3038 -0.0311 -0.0487
 5327SOL    HW118935   3.465   4.543   5.564  0.6921 -0.1527  0.0956
 5327SOL    HW218936   3.516   4.422   5.489 -0.9594  0.4362 -2.0814
 5328SOL     OW18937   4.256   5.534   3.701  0.1456 -0.0155 -0.1748
 5328SOL    HW118938   4.328   5.597   3.712 -0.4026  0.7259 -0.7047
 5328SOL    HW218939   4.199   5.550   3.777 -0.1452  0.3471 -0.4637
 5329SOL     OW18940   2.284   2.706   3.917 -0.2330  0.3050 -0.8595
 5329SOL    HW118941   2.357   2.644   3.917 -0.7242 -0.2975 -0.4186
 5329SOL    HW218942   2.233   2.683   3.839  0.3086  1.0584 -1.4494
 5330SOL     OW18943   0.068   7.166   2.675 -0.4530  0.6084 -0.7418
 5330SOL    HW118944   0.050   7.255   2.643  0.8937 -0.0376 -3.6961
 5330SOL    HW218945   0.013   7.110   2.621  0.0698 -0.4513 -0.2047
 5331SOL     OW18946   2.699   7.318   6.600  0.2153 -0.0310  0.8591
 5331SOL    HW118947   2.690   7.394   6.543  1.3027 -0.4352  0.1326
 5331SOL    HW218948   2.611   7.278   6.600 -0.2311  0.9261  0.8477
 5332SOL     OW18949   4.384   3.340   2.748  0.2474  0.4766 -0.0933
 5332SOL    HW118950   4.420   3.255   2.772 -0.5064 -0.1865 -1.2219
 5332SOL    HW218951   4.426   3.402   2.808  2.0078 -0.4711 -0.2712
 5333SOL     OW18952   1.175   5.825   2.741 -0.2067  0.1141 -0.3349
 5333SOL    HW118953   1.253   5.875   2.718 -1.5440  2.6069  0.1477
 5333SOL    HW218954   1.205   5.764   2.808  1.6346 -0.1764 -1.3472
 5334SOL     OW18955   6.933   7.704   4.220  0.3217 -0.2600 -0.5470
 5334SOL    HW118956   6.855   7.671   4.265  1.4652 -2.7611 -0.2688
 5334SOL    HW218957   6.899   7.755   4.147 -1.5674 -0.7466 -0.0524
 5335SOL     OW18958   4.131   7.648   2.814 -0.5385  0.3202  0.1347
 5335SOL    HW118959   4.143   7.555   2.795 -1.4222  0.3334 -0.5610
 5335SOL    HW218960   4.102   7.650   2.905  0.7850  0.0309  0.5889
 5336SOL     OW18961   0.287   6.695   6.873 -0.5055 -0.3280 -0.2789
 5336SOL    HW118962   0.296   6.724   6.964  1.2783  2.5126 -1.2175
 5336SOL    HW218963   0.193   6.698   6.856 -0.6671  3.3211  0.3604
 5337SOL     OW18964   1.266   4.387   0.429 -0.0720  0.0595  0.1406
 5337SOL    HW118965   1.339   4.394   0.490 -0.4690  1.3385  0.4956
 5337SOL    HW218966   1.191   4.423   0.476 -0.4994  0.5900 -0.9072
 5338SOL     OW18967   5.529   2.656   3.362  0.1670  0.2144  0.4333
 5338SOL    HW118968   5.435   2.662   3.377  0.2077  1.9135  0.1733
 5338SOL    HW218969   5.541   2.575   3.313 -1.3043  0.6291 -0.6534
 5339SOL     OW18970   0.380   7.154   6.766  0.1423  0.6249  0.1487
 5339SOL    HW118971   0.379   7.250   6.758 -1.0649  0.5101 -1.7082
 5339SOL    HW218972   0.342   7.123   6.684  1.6325 -1.5076  0.1896
 5340SOL     OW18973   4.664   0.783   2.670  0.0404 -0.5205  0.0661
 5340SOL    HW118974   4.711   0.866   2.663 -0.0240 -0.5400 -0.5916
 5340SOL    HW218975   4.573   0.807   2.686 -0.0073 -0.4666 -0.2995
 5341SOL     OW18976   2.436   3.923   1.459  0.4079  0.0282  0.0735
 5341SOL    HW118977   2.378   3.997   1.442  0.0117 -0.1844  0.4767
 5341SOL    HW218978   2.481   3.908   1.376 -1.0102 -0.5835 -0.6126
 5342SOL     OW18979   5.404   2.632   6.955 -0.1227  0.1400 -0.4941
 5342SOL    HW118980   5.426   2.723   6.938  0.5628  0.2873  1.0540
 5342SOL    HW218981   5.489   2.588   6.964 -0.4518 -0.4857 -0.3978
 5343SOL     OW18982   3.132   5.585   5.961 -0.5917 -0.2061 -0.0062
 5343SOL    HW118983   3.056   5.543   5.921 -1.0413 -1.5694  2.0894
 5343SOL    HW218984   3.202   5.520   5.953  0.2682  0.8448 -1.4829
 5344SOL     OW18985   0.115   7.550   1.440 -0.6249 -0.7148 -0.0667
 5344SOL    HW118986   0.204   7.534   1.412 -0.4907  0.3512 -0.2770
 5344SOL    HW218987   0.116   7.532   1.534 -0.2093 -0.8124 -0.0896
 5345SOL     OW18988   1.472   2.683   6.608 -0.0031  0.4870  0.2007
 5345SOL    HW118989   1.417   2.722   6.675  0.1571  1.0677  0.0002
 5345SOL    HW218990   1.412   2.662   6.536  0.1603  2.1573 -0.4885
 5346SOL     OW18991   3.553   7.271   7.285 -0.2015  0.0239  0.4180
 5346SOL    HW118992   3.534   7.331   7.357  0.8210 -0.4574  1.1107
 5346SOL    HW218993   3.638   7.300   7.251  0.2279 -0.9105  0.6510
 5347SOL     OW18994   2.316   0.352   0.637 -0.0839 -0.3890  0.0334
 5347SOL    HW118995   2.311   0.429   0.695 -1.1782 -1.1071  0.9461
 5347SOL    HW218996   2.409   0.339   0.623  0.1211  1.3142 -0.4377
 5348SOL     OW18997   5.765   7.247   2.184 -0.0758 -0.1289  0.2425
 5348SOL    HW118998   5.707   7.303   2.133 -2.2875 -1.3126  1.3236
 5348SOL    HW218999   5.797   7.182   2.120 -0.5570  0.0823 -0.2216
 5349SOL     OW19000   1.686   1.548   4.236 -0.5065 -0.2766  0.0680
 5349SOL    HW119001   1.691   1.644   4.235 -1.5260 -0.2105 -1.1783
 5349SOL    HW219002   1.775   1.520   4.256  0.1555  0.9147 -1.0748
 5350SOL     OW19003   0.985   0.291   1.886  0.0177 -0.3422 -0.4211
 5350SOL    HW119004   1.033   0.363   1.926  0.9741 -0.5038 -1.2529
 5350SOL    HW219005   1.049   0.220   1.879 -0.4510 -0.7045 -1.1482
 5351SOL     OW19006   0.164   0.755   3.836 -0.8002  0.0068  0.5225
 5351SOL    HW119007   0.255   0.771   3.811 -0.0130 -1.2589  2.3819
 5351SOL    HW219008   0.121   0.840   3.826  0.4472  0.5214 -0.8070
 5352SOL     OW19009   6.304   4.000   1.631 -0.8863 -0.1977 -0.4850
 5352SOL    HW119010   6.349   4.050   1.563  0.7108  0.4537  0.9774
 5352SOL    HW219011   6.280   4.064   1.697  0.4242 -1.1824  1.0221
 5353SOL     OW19012   2.548   6.470   3.288  0.0577  0.1725  0.2213
 5353SOL    HW119013   2.634   6.491   3.323  0.3277 -0.9980  0.3063
 5353SOL    HW219014   2.493   6.545   3.311  0.5659  0.0547  1.9172
 5354SOL     OW19015   5.567   2.398   2.360  0.2403  0.3306  0.0221
 5354SOL    HW119016   5.598   2.479   2.320 -0.1016  1.0440  1.1697
 5354SOL    HW219017   5.582   2.410   2.454 -1.2956 -0.2769  0.3690
 5355SOL     OW19018   7.901   0.444   5.762  0.3705  0.1015  0.3769
 5355SOL    HW119019   7.808   0.442   5.738  0.8526 -0.8226 -1.5901
 5355SOL    HW219020   7.947   0.461   5.680  2.1074 -2.2174  0.7789
 5356SOL     OW19021   5.219   4.119   0.267  0.1137 -0.3036 -0.4170
 5356SOL    HW119022   5.211   4.024   0.263 -0.7164 -0.2826  0.3829
 5356SOL    HW219023   5.135   4.151   0.235  0.0991  0.1406  0.0528
 5357SOL     OW19024   0.795   4.689   7.403  0.2531  0.6666  0.1703
 5357SOL    HW119025   0.715   4.679   7.454 -0.5190 -0.8784 -1.2165
 5357SOL    HW219026   0.772   4.751   7.334  0.7587  1.4481  0.6991
 5358SOL     OW19027   4.247   0.953   1.901 -0.4143  0.4111  0.6861
 5358SOL    HW119028   4.323   0.900   1.875  0.3921  1.0434  1.6575
 5358SOL    HW219029   4.173   0.893   1.896 -0.1973  0.2344 -2.0850
 5359SOL     OW19030   6.068   0.237   4.307  0.0387  0.1018  0.3594
 5359SOL    HW119031   5.974   0.218   4.306 -0.7263  3.2371  0.9182
 5359SOL    HW219032   6.094   0.228   4.398 -0.2715  1.3407  0.5856
 5360SOL     OW19033   5.971   6.044   1.842  0.2363  0.0905 -0.1029
 5360SOL    HW119034   5.875   6.042   1.842  0.2361 -0.7465  0.7221
 5360SOL    HW219035   5.997   5.959   1.807  0.6752  0.0892  0.2231
 5361SOL     OW19036   4.118   7.175   7.117  0.8682 -0.0622 -0.3051
 5361SOL    HW119037   4.053   7.105   7.113  0.8164 -0.0191 -0.2273
 5361SOL    HW219038   4.161   7.162   7.201 -0.5179  1.2139  0.6490
 5362SOL     OW19039   5.070   5.159   1.681  0.4851 -0.6535  0.1474
 5362SOL    HW119040   5.050   5.070   1.650 -1.3864 -0.3656  0.4426
 5362SOL    HW219041   4.991   5.187   1.726  0.4163  1.8111 -1.3497
 5363SOL     OW19042   5.577   6.185   2.196 -0.7576 -0.3412 -0.8237
 5363SOL    HW119043   5.655   6.129   2.204  0.4585  1.4543  0.9867
 5363SOL    HW219044   5.581   6.242   2.273 -3.1799  0.7001 -1.3875
 5364SOL     OW19045   5.728   3.888   0.470  0.0203 -0.0956 -0.2826
 5364SOL    HW119046   5.661   3.827   0.438  0.5808 -0.1449 -1.4453
 5364SOL    HW219047   5.710   3.970   0.422 -0.5875  0.6107  1.0966
 5365SOL     OW19048   4.443   3.712   7.552 -0.2903  0.2236  0.1882
 5365SOL    HW119049   4.439   3.729   7.647  2.4850  1.3066  0.2258
 5365SOL    HW219050   4.450   3.617   7.545  1.0270  0.2064  1.2326
 5366SOL     OW19051   1.136   4.743   5.917  0.2097  0.7863 -0.2368
 5366SOL    HW119052   1.105   4.658   5.949  0.5103  0.3378 -1.1031
 5366SOL    HW219053   1.203   4.769   5.979  0.0878  0.4049  0.0585
 5367SOL     OW19054   4.935   2.841   0.150  0.2549  0.3162  0.6011
 5367SOL    HW119055   4.978   2.818   0.067 -0.9995 -0.9298  0.2518
 5367SOL    HW219056   4.870   2.772   0.163 -0.3698  1.1315  2.0491
 5368SOL     OW19057   4.934   0.605   4.168 -0.0088 -0.1854  0.0271
 5368SOL    HW119058   4.930   0.592   4.263 -0.0223 -1.2842 -0.1041
 5368SOL    HW219059   4.964   0.520   4.135  1.3138  0.5959 -0.8462
 5369SOL     OW19060   4.802   4.706   2.616  0.2466 -0.5698 -0.0984
 5369SOL    HW119061   4.748   4.785   2.613 -0.5679 -1.1493 -1.8826
 5369SOL    HW219062   4.886   4.735   2.653  1.3274  2.0482 -4.0366
 5370SOL     OW19063   3.305   5.401   1.833  0.1608  0.3872 -0.5682
 5370SOL    HW119064   3.373   5.468   1.829 -0.1576  0.6456 -2.3768
 5370SOL    HW219065   3.241   5.427   1.766 -0.8731 -0.7542 -0.0700
 5371SOL     OW19066   3.944   6.019   2.169  0.0622 -0.6834 -0.0933
 5371SOL    HW119067   4.026   6.066   2.159 -1.3312  1.6932 -1.0749
 5371SOL    HW219068   3.927   6.020   2.263 -0.1466  1.2451 -0.1264
 5372SOL     OW19069   3.458   5.828   0.363  0.2739 -0.2818 -0.0790
 5372SOL    HW119070   3.396   5.758   0.382 -2.1943  1.7848  0.1600
 5372SOL    HW219071   3.486   5.859   0.449  0.8223 -0.5380 -0.1654
 5373SOL     OW19072   4.679   4.961   2.643 -0.5748  0.0363 -0.0939
 5373SOL    HW119073   4.667   5.024   2.714 -1.5731  0.3947 -0.5626
 5373SOL    HW219074   4.772   4.966   2.621 -0.1722 -0.3581  1.4381
 5374SOL     OW19075   3.941   4.066   7.890 -0.2068 -0.2276  0.2151
 5374SOL    HW119076   3.951   4.161   7.887 -1.0164 -0.1505 -0.0807
 5374SOL    HW219077   3.850   4.052   7.914  0.1605 -0.9339  1.2762
 5375SOL     OW19078   5.472   0.369   6.339 -0.3933  0.2879  0.1398
 5375SOL    HW119079   5.510   0.304   6.398  0.4504  0.1815 -0.4930
 5375SOL    HW219080   5.501   0.453   6.374 -1.1623  0.3162  0.7354
 5376SOL     OW19081   7.222   1.596   6.569  0.4251 -0.4972 -0.2290
 5376SOL    HW119082   7.166   1.665   6.604 -1.1178 -0.7678 -1.9809
 5376SOL    HW219083   7.168   1.553   6.502  2.9332 -0.3734 -2.5199
 5377SOL     OW19084   0.382   2.109   5.075 -0.0400  0.2234  0.1449
 5377SOL    HW119085   0.363   2.030   5.024 -1.8250  0.0712  0.9727
 5377SOL    HW219086   0.395   2.078   5.164  1.2660  0.6894  0.1517
 5378SOL     OW19087   1.019   2.564   6.212 -0.1351  0.0406  0.0046
 5378SOL    HW119088   1.089   2.582   6.149 -0.6146  1.3827 -0.1644
 5378SOL    HW219089   1.028   2.633   6.278 -0.8899 -0.1654  0.3307
 5379SOL     OW19090   4.423   5.811   2.901  0.8101 -0.2165 -0.5624
 5379SOL    HW119091   4.490   5.745   2.920  1.5011  0.7595  0.6192
 5379SOL    HW219092   4.365   5.809   2.977 -0.9227 -1.4680 -1.8381
 5380SOL     OW19093   2.241   5.177   2.166  0.8775 -0.0338 -0.7440
 5380SOL    HW119094   2.292   5.253   2.196 -0.7889  0.3019  1.4892
 5380SOL    HW219095   2.164   5.216   2.125 -0.1294 -0.4422  0.6720
 5381SOL     OW19096   2.952   2.762   4.279 -0.0314  0.2727  0.5562
 5381SOL    HW119097   2.894   2.694   4.314 -2.4823  0.5495 -2.5118
 5381SOL    HW219098   3.039   2.722   4.281 -0.9265 -1.7998  1.5975
 5382SOL     OW19099   4.550   0.996   0.739 -0.3724  0.6242  0.0991
 5382SOL    HW119100   4.564   0.906   0.769 -0.5947  0.6301  0.2245
 5382SOL    HW219101   4.624   1.045   0.774  0.0653  0.3747 -0.4725
 5383SOL     OW19102   5.584   4.505   7.842 -0.1249  0.1882  0.1411
 5383SOL    HW119103   5.613   4.495   7.933 -1.8733 -1.9366  0.5612
 5383SOL    HW219104   5.544   4.592   7.839  1.1379  0.8357  1.0217
 5384SOL     OW19105   0.225   7.955   0.212  0.5963  0.4019  0.0684
 5384SOL    HW119106   0.184   7.873   0.182  0.9248 -0.4838  1.9148
 5384SOL    HW219107   0.319   7.937   0.208  0.7529  1.3112 -1.0854
 5385SOL     OW19108   6.921   6.581   6.040 -0.7249 -0.6591 -0.2129
 5385SOL    HW119109   6.895   6.673   6.047  0.6746 -0.3595  2.0470
 5385SOL    HW219110   6.897   6.556   5.951 -2.8993  1.3207 -0.2792
 5386SOL     OW19111   5.121   3.462   4.221 -0.1255 -0.0011  0.0986
 5386SOL    HW119112   5.153   3.515   4.294 -2.6918  1.1105  0.5326
 5386SOL    HW219113   5.079   3.387   4.262 -0.1153 -0.2443 -0.3279
 5387SOL     OW19114   3.106   7.307   4.747 -0.5556 -0.0052 -0.6468
 5387SOL    HW119115   3.069   7.357   4.674  1.4352  1.0861 -0.9727
 5387SOL    HW219116   3.192   7.278   4.715  0.5854  0.9410  1.4036
 5388SOL     OW19117   4.182   4.569   3.715 -0.0248  0.0954  0.7198
 5388SOL    HW119118   4.156   4.601   3.801 -1.0066  2.5251 -0.3878
 5388SOL    HW219119   4.269   4.607   3.700 -0.9333  1.9252 -0.3417
 5389SOL     OW19120   0.159   1.460   5.900 -0.5591  0.3809  0.3193
 5389SOL    HW119121   0.227   1.502   5.952  0.2844  0.0285 -0.4781
 5389SOL    HW219122   0.199   1.445   5.815 -1.2492 -0.9114  0.1975
 5390SOL     OW19123   5.500   3.435   4.894  0.3413  0.3781 -0.3397
 5390SOL    HW119124   5.519   3.342   4.881  0.7802  0.6745 -2.0466
 5390SOL    HW219125   5.416   3.436   4.940  0.7712 -0.8613  0.5173
 5391SOL     OW19126   1.220   3.720   8.020  0.5676  0.1636 -0.0321
 5391SOL    HW119127   1.296   3.777   8.032  0.0276  1.3700 -1.9759
 5391SOL    HW219128   1.157   3.750   8.086  1.3827 -0.2251  0.9574
 5392SOL     OW19129   3.008   3.989   0.780 -0.2271 -0.1398  0.8650
 5392SOL    HW119130   3.066   4.017   0.850  1.4930 -2.0183  0.2865
 5392SOL    HW219131   3.015   3.894   0.779 -0.1068 -0.2015 -1.8751
 5393SOL     OW19132   4.213   5.079   4.201 -0.0811 -0.1182  0.6621
 5393SOL    HW119133   4.211   5.043   4.290  2.4196  0.3653  1.0006
 5393SOL    HW219134   4.267   5.018   4.151  1.6811  1.4867  0.4844
 5394SOL     OW19135   1.345   1.701   5.826 -0.1102  0.1425  0.5891
 5394SOL    HW119136   1.388   1.761   5.766  0.6341 -0.9114  0.0415
 5394SOL    HW219137   1.414   1.673   5.886 -0.5090  0.0356  1.0025
 5395SOL     OW19138   0.779   6.311   7.458  0.2701 -0.0773 -0.1491
 5395SOL    HW119139   0.766   6.219   7.478  0.8757 -0.1434 -0.0335
 5395SOL    HW219140   0.777   6.316   7.363 -1.0277 -0.0072 -0.1409
 5396SOL     OW19141   0.996   4.082   7.654 -0.3361 -0.0618  0.2691
 5396SOL    HW119142   0.951   4.119   7.730 -0.6562 -0.3811  0.2401
 5396SOL    HW219143   1.076   4.134   7.646  0.2963 -0.7847  1.5557
 5397SOL     OW19144   0.958   7.786   3.671  0.4272  0.2137  0.1587
 5397SOL    HW119145   0.991   7.876   3.679  1.4178 -0.3403  3.4880
 5397SOL    HW219146   1.004   7.752   3.594  2.4958  1.6040  0.6749
 5398SOL     OW19147   3.766   0.368   8.063  0.0415  0.5606  0.1260
 5398SOL    HW119148   3.785   0.291   8.009 -2.4976  0.4376 -0.6906
 5398SOL    HW219149   3.778   0.337   8.153  2.0743  0.1306 -0.2311
 5399SOL     OW19150   4.014   7.778   3.756 -0.2601  1.1851  0.4863
 5399SOL    HW119151   4.088   7.769   3.817  0.4791  0.7869 -0.4478
 5399SOL    HW219152   3.941   7.804   3.811  0.4604  1.1030  1.5084
 5400SOL     OW19153   4.514   7.623   6.773 -0.5910  0.1464 -0.4400
 5400SOL    HW119154   4.560   7.676   6.840  0.2408 -2.3593  1.1087
 5400SOL    HW219155   4.465   7.559   6.824  0.1539 -1.9295 -2.2029
 5401SOL     OW19156   1.999   1.995   1.730 -0.6622 -0.7173  0.2633
 5401SOL    HW119157   1.980   2.023   1.819 -0.5881 -0.6318  0.2514
 5401SOL    HW219158   1.919   2.015   1.681 -0.5894 -0.4749  0.2420
 5402SOL     OW19159   4.308   2.040   6.297  0.5752  0.0637  0.6744
 5402SOL    HW119160   4.301   2.042   6.392 -0.7067 -0.8952  0.6255
 5402SOL    HW219161   4.217   2.046   6.266  0.7554 -2.0804 -0.4264
 5403SOL     OW19162   1.254   3.489   0.867  0.4223  0.3329 -0.0836
 5403SOL    HW119163   1.176   3.537   0.895  0.2799  0.3216 -0.4493
 5403SOL    HW219164   1.258   3.503   0.772 -0.9723 -2.2979 -0.6261
 5404SOL     OW19165   1.252   5.958   6.181 -0.5092  0.9718  0.5081
 5404SOL    HW119166   1.338   5.920   6.199 -0.7046  0.1248 -0.2976
 5404SOL    HW219167   1.251   5.972   6.086 -1.6124  0.0906  0.3712
 5405SOL     OW19168   2.021   4.035   0.821  0.0897  0.2664  0.0363
 5405SOL    HW119169   2.070   3.996   0.748 -1.0606  1.0633 -1.1976
 5405SOL    HW219170   1.981   3.960   0.865 -0.9811 -0.1083 -1.4862
 5406SOL     OW19171   2.563   6.270   2.262  0.0352 -0.0696  0.1415
 5406SOL    HW119172   2.613   6.309   2.190 -0.0111 -1.1959 -0.5179
 5406SOL    HW219173   2.627   6.217   2.309  0.1306  0.8747  1.1237
 5407SOL     OW19174   7.927   0.871   1.092 -0.0246 -0.2556  0.2867
 5407SOL    HW119175   7.916   0.780   1.065  2.1194 -0.1152 -1.3070
 5407SOL    HW219176   7.996   0.868   1.159 -0.1094  0.1896  0.3993
 5408SOL     OW19177   2.517   4.082   5.506  0.5455  0.2786  0.0410
 5408SOL    HW119178   2.598   4.067   5.555  0.0391 -0.0236  0.7897
 5408SOL    HW219179   2.448   4.085   5.572 -0.2607 -0.9891 -0.6963
 5409SOL     OW19180   3.704   6.681   3.017 -0.0354 -0.0287 -0.0717
 5409SOL    HW119181   3.793   6.693   3.050 -0.3417 -1.0450  1.2315
 5409SOL    HW219182   3.713   6.619   2.946  0.7423  2.7759 -2.6546
 5410SOL     OW19183   5.748   5.019   7.328  0.7427  0.0020  0.6143
 5410SOL    HW119184   5.706   4.974   7.402 -0.6215 -0.6502 -0.5227
 5410SOL    HW219185   5.687   5.089   7.305  0.9622 -0.0587 -0.1653
 5411SOL     OW19186   7.562   2.323   1.218 -0.4364 -0.5187  0.2053
 5411SOL    HW119187   7.467   2.336   1.223 -0.5860 -1.1528 -0.7305
 5411SOL    HW219188   7.585   2.346   1.128  0.5147  0.8359  0.7546
 5412SOL     OW19189   6.796   3.112   7.903 -0.1438  0.1143 -0.1759
 5412SOL    HW119190   6.881   3.141   7.872 -0.1381  1.2631  0.8522
 5412SOL    HW219191   6.781   3.162   7.983 -1.7240 -0.1781 -0.2598
 5413SOL     OW19192   4.239   2.760   2.526 -0.2623 -0.2462  0.1851
 5413SOL    HW119193   4.250   2.669   2.552 -0.7833 -0.7968 -1.4617
 5413SOL    HW219194   4.144   2.772   2.520 -0.2138  0.5309  0.7563
 5414SOL     OW19195   1.005   5.683   0.790 -0.4162  0.5932 -0.9177
 5414SOL    HW119196   1.084   5.734   0.805  0.5660 -1.4741  1.7250
 5414SOL    HW219197   0.942   5.715   0.855 -0.5473 -0.0743 -0.7089
 5415SOL     OW19198   1.420   5.514   7.752  0.2685  0.6146 -0.5243
 5415SOL    HW119199   1.353   5.558   7.700  0.4298 -0.7478 -1.9488
 5415SOL    HW219200   1.404   5.421   7.739 -0.2843  0.1665  2.7091
 5416SOL     OW19201   7.983   6.332   7.247 -0.1684 -0.7707  0.1208
 5416SOL    HW119202   8.033   6.397   7.197  1.7131 -2.5189 -0.3957
 5416SOL    HW219203   7.919   6.299   7.184  0.3192 -0.9435 -0.2992
 5417SOL     OW19204   7.324   1.203   5.105  0.4829  0.1896  0.4984
 5417SOL    HW119205   7.239   1.244   5.088 -0.2150 -1.2133  0.4976
 5417SOL    HW219206   7.358   1.183   5.018 -0.0825 -1.0107  0.5437
 5418SOL     OW19207   0.742   4.411   8.104 -0.4772 -0.1548  0.2391
 5418SOL    HW119208   0.716   4.490   8.057  1.8929  0.3623 -0.3293
 5418SOL    HW219209   0.756   4.346   8.036 -0.8878 -0.6075  0.5816
 5419SOL     OW19210   4.580   7.815   0.055 -0.0951  1.0286  0.2037
 5419SOL    HW119211   4.635   7.836   0.131 -1.3009  0.2855  1.3454
 5419SOL    HW219212   4.501   7.867   0.068 -0.4822  0.5867 -0.3343
 5420SOL     OW19213   6.790   6.733   3.440 -0.0023 -0.0512  0.4367
 5420SOL    HW119214   6.876   6.693   3.427  0.8272  1.7561 -0.0538
 5420SOL    HW219215   6.773   6.780   3.358 -0.8228  0.7283  1.0312
 5421SOL     OW19216   2.289   4.921   5.196 -0.2795 -0.1397 -0.1094
 5421SOL    HW119217   2.199   4.949   5.179 -0.2734 -0.2468 -0.3227
 5421SOL    HW219218   2.328   4.992   5.246 -0.7220 -0.4431  0.6706
 5422SOL     OW19219   5.661   7.968   3.185  0.3348  0.1613  0.1307
 5422SOL    HW119220   5.670   7.989   3.278 -0.3520  2.3636 -0.2419
 5422SOL    HW219221   5.574   8.000   3.161  0.1062 -1.2738 -1.0632
 5423SOL     OW19222   6.647   1.310   1.393  0.4439  0.4386 -0.6462
 5423SOL    HW119223   6.637   1.219   1.421 -0.4516  0.0285 -2.1929
 5423SOL    HW219224   6.713   1.308   1.324 -0.0227  0.8540 -1.1157
 5424SOL     OW19225   0.865   0.665   7.754  0.2224  0.7456  0.5363
 5424SOL    HW119226   0.817   0.655   7.671  1.3928 -0.8345  0.0109
 5424SOL    HW219227   0.802   0.641   7.821 -0.1810  0.1910 -0.0321
 5425SOL     OW19228   3.971   4.809   1.211  0.1953 -0.3379  0.2585
 5425SOL    HW119229   3.993   4.718   1.193 -0.2627 -0.4835  0.4264
 5425SOL    HW219230   3.975   4.852   1.125 -1.1528 -0.8561 -0.0932
 5426SOL     OW19231   4.590   0.162   5.024 -0.1869 -0.0364 -0.3552
 5426SOL    HW119232   4.615   0.108   5.099  1.6328 -0.1916 -1.0332
 5426SOL    HW219233   4.640   0.243   5.034 -1.2862  0.6756 -0.4700
 5427SOL     OW19234   4.209   2.038   4.189 -0.0557  0.1161  0.5899
 5427SOL    HW119235   4.122   2.074   4.173  0.8771  1.5937 -1.6708
 5427SOL    HW219236   4.224   1.979   4.115 -0.0034 -2.0046  2.2039
 5428SOL     OW19237   6.156   0.435   4.823 -0.1496  0.4747  0.1024
 5428SOL    HW119238   6.135   0.467   4.735 -0.1705  0.0588 -0.0470
 5428SOL    HW219239   6.090   0.477   4.879  0.5748  1.6669  0.1075
 5429SOL     OW19240   0.862   4.584   2.879 -0.1729 -0.0405  0.4796
 5429SOL    HW119241   0.789   4.532   2.912  1.6857 -2.1485  1.5198
 5429SOL    HW219242   0.936   4.523   2.876  1.1635  1.5119 -2.2734
 5430SOL     OW19243   5.680   2.073   0.643 -0.1236 -0.2364 -0.2971
 5430SOL    HW119244   5.761   2.123   0.652 -0.2878  0.4509 -2.1192
 5430SOL    HW219245   5.614   2.126   0.689 -0.0235  0.5602 -1.0339
 5431SOL     OW19246   5.792   4.646   7.451  0.7390  0.1849 -0.2467
 5431SOL    HW119247   5.857   4.586   7.486  0.3678  0.5543  1.1371
 5431SOL    HW219248   5.811   4.730   7.493 -1.5350 -0.0523  1.4414
 5432SOL     OW19249   8.129   3.066   4.927 -0.6727  0.2253 -0.3560
 5432SOL    HW119250   8.042   3.025   4.917 -0.5861 -0.2123  0.5584
 5432SOL    HW219251   8.161   3.076   4.838 -1.6296  0.3068 -0.7047
 5433SOL     OW19252   6.477   1.057   3.807 -0.5830 -0.1788 -0.7834
 5433SOL    HW119253   6.475   1.149   3.780  0.3749  0.3402  0.7415
 5433SOL    HW219254   6.412   1.051   3.877 -0.6650 -0.6711 -0.8958
 5434SOL     OW19255   2.565   0.447   5.551  0.1109  0.6512  0.2003
 5434SOL    HW119256   2.489   0.504   5.540 -0.7307 -0.6361 -0.8614
 5434SOL    HW219257   2.545   0.394   5.628 -1.0077 -1.0388 -1.1814
 5435SOL     OW19258   4.819   1.820   7.697 -0.3777  0.4095 -0.2493
 5435SOL    HW119259   4.798   1.728   7.706  1.1348  0.1535  1.2101
 5435SOL    HW219260   4.909   1.821   7.663 -0.1224  1.2977  0.3938
 5436SOL     OW19261   2.177   2.211   1.961 -0.5942  0.4520 -0.4150
 5436SOL    HW119262   2.187   2.173   1.874 -1.6033 -1.2812  0.1794
 5436SOL    HW219263   2.086   2.242   1.962 -1.2606 -1.4338  0.6955
 5437SOL     OW19264   2.210   4.928   8.011 -0.1123  0.2856  0.0944
 5437SOL    HW119265   2.240   4.883   8.090  2.1247  0.7182 -0.4368
 5437SOL    HW219266   2.143   4.871   7.975  0.8388 -1.3717  0.8047
 5438SOL     OW19267   4.883   6.384   6.084  0.2344  0.1324 -0.1571
 5438SOL    HW119268   4.800   6.351   6.048 -0.1718  0.4761  0.4389
 5438SOL    HW219269   4.941   6.392   6.009 -0.1127 -0.5956 -0.5151
 5439SOL     OW19270   3.151   1.121   6.021  0.3595 -0.4190  0.1142
 5439SOL    HW119271   3.095   1.147   5.947 -1.7529 -0.3794  1.6329
 5439SOL    HW219272   3.237   1.155   5.999 -0.9477  2.6035 -0.7916
 5440SOL     OW19273   1.123   5.362   3.632 -0.2155  0.6456 -0.3377
 5440SOL    HW119274   1.138   5.436   3.573  1.2636 -1.0186 -2.1894
 5440SOL    HW219275   1.211   5.328   3.651 -0.5463  1.3899  3.3692
 5441SOL     OW19276   0.540   7.812   0.912  0.1404  0.2776  0.1326
 5441SOL    HW119277   0.593   7.846   0.839 -1.7014  1.1025 -0.8870
 5441SOL    HW219278   0.496   7.735   0.875  1.0945 -0.8262  1.1852
 5442SOL     OW19279   1.614   3.843   6.397  0.1116  0.1177  0.2241
 5442SOL    HW119280   1.520   3.832   6.415  0.2409  0.5886  1.2756
 5442SOL    HW219281   1.633   3.778   6.330 -0.9216 -0.1519  0.1721
 5443SOL     OW19282   0.385   5.716   0.573  0.1707  0.4723 -0.2829
 5443SOL    HW119283   0.455   5.688   0.515  0.2943  1.2762 -0.5345
 5443SOL    HW219284   0.346   5.791   0.529 -0.7711  0.1094 -0.0859
 5444SOL     OW19285   4.222   6.443   3.007 -0.5963 -0.0799 -0.4133
 5444SOL    HW119286   4.203   6.400   2.924 -1.4050 -5.0912  1.9966
 5444SOL    HW219287   4.139   6.485   3.032 -0.6845  0.4399 -1.5105
 5445SOL     OW19288   3.169   3.026   1.724 -0.0805  0.3167  0.6764
 5445SOL    HW119289   3.236   3.095   1.714 -0.9683  0.9878 -1.1080
 5445SOL    HW219290   3.117   3.054   1.799  0.6745  0.6198  1.1007
 5446SOL     OW19291   0.142   5.919   7.074 -0.2849 -0.0033  0.1628
 5446SOL    HW119292   0.095   5.939   7.154  0.2263  1.7942  0.0481
 5446SOL    HW219293   0.166   5.827   7.083 -0.4556  0.0927  1.9419
 5447SOL     OW19294   6.665   3.142   3.067  0.0275  0.1177 -0.2839
 5447SOL    HW119295   6.599   3.094   3.116 -2.0838  0.4929 -2.5745
 5447SOL    HW219296   6.649   3.234   3.088  1.6515  0.1171  1.2128
 5448SOL     OW19297   6.997   5.357   3.956 -0.1718 -0.3880 -0.5549
 5448SOL    HW119298   6.919   5.388   3.909  0.2445  0.7734 -0.5138
 5448SOL    HW219299   6.992   5.400   4.041 -0.5681 -1.9640  0.2493
 5449SOL     OW19300   7.345   2.562   4.383 -0.1166 -0.2722 -0.1372
 5449SOL    HW119301   7.290   2.627   4.339 -1.1778 -0.7614  0.4364
 5449SOL    HW219302   7.311   2.477   4.353 -0.8857 -0.6224  1.6106
 5450SOL     OW19303   7.679   0.204   0.545  0.3101 -0.0212 -0.1094
 5450SOL    HW119304   7.658   0.243   0.630 -0.7307  1.8490 -1.1575
 5450SOL    HW219305   7.773   0.218   0.534  0.5886 -0.8997  1.0002
 5451SOL     OW19306   4.926   0.363   6.946 -0.2453  0.6750  0.4760
 5451SOL    HW119307   4.965   0.373   7.032 -0.6845  0.3215  0.7168
 5451SOL    HW219308   4.969   0.286   6.908  0.7884  1.4980 -0.0932
 5452SOL     OW19309   2.957   0.270   4.798 -0.2699 -0.1300  0.3279
 5452SOL    HW119310   2.923   0.182   4.817  2.3264 -1.0324  1.3442
 5452SOL    HW219311   2.995   0.299   4.881  1.5687  0.6540 -0.7243
 5453SOL     OW19312   1.036   5.669   2.519 -1.0068  0.0664  0.4441
 5453SOL    HW119313   1.039   5.715   2.603 -0.5282 -0.5298  0.7642
 5453SOL    HW219314   1.128   5.649   2.499 -1.0072  1.1361 -0.7581
 5454SOL     OW19315   3.287   0.940   6.811  0.4219  0.8179 -0.0117
 5454SOL    HW119316   3.224   0.983   6.868  1.6745  2.2341  0.3953
 5454SOL    HW219317   3.361   0.919   6.868  0.5092 -0.4225 -0.5508
 5455SOL     OW19318   1.878   4.041   7.583  0.3204 -0.1370  0.4834
 5455SOL    HW119319   1.889   4.059   7.677  0.6881 -0.2521  0.4659
 5455SOL    HW219320   1.948   3.979   7.563 -0.0020 -0.4166  0.2151
 5456SOL     OW19321   1.735   4.278   4.950 -0.4901  0.6553 -0.0336
 5456SOL    HW119322   1.727   4.342   5.020  2.3681  2.0078 -0.7921
 5456SOL    HW219323   1.824   4.243   4.960 -0.4339  0.0306 -2.2730
 5457SOL     OW19324   4.049   1.689   1.297 -0.2046  0.3255 -0.0027
 5457SOL    HW119325   4.029   1.632   1.223 -0.0178  0.0411  0.1654
 5457SOL    HW219326   4.037   1.778   1.263  2.2048  0.3211 -1.0957
 5458SOL     OW19327   2.854   3.239   7.827 -0.0895  0.3457  0.0290
 5458SOL    HW119328   2.794   3.244   7.752 -0.7656  0.0915  0.5428
 5458SOL    HW219329   2.843   3.150   7.860  1.4423 -0.0923 -0.5655
 5459SOL     OW19330   3.213   6.320   2.851 -0.0037 -0.1694 -0.5049
 5459SOL    HW119331   3.257   6.237   2.868  0.7591  0.4599  0.7406
 5459SOL    HW219332   3.235   6.375   2.927 -1.7423  0.6655 -0.5519
 5460SOL     OW19333   0.208   5.311   7.574  0.5339 -0.5527 -0.8501
 5460SOL    HW119334   0.121   5.352   7.575  0.2392 -1.0658  1.9376
 5460SOL    HW219335   0.192   5.221   7.600  1.6989 -1.3148 -2.5807
 5461SOL     OW19336   4.558   4.952   5.340 -0.1142 -0.3038 -0.0732
 5461SOL    HW119337   4.638   4.972   5.291  0.5565  1.0618  1.4643
 5461SOL    HW219338   4.586   4.892   5.409 -1.2968 -3.2823 -1.9802
 5462SOL     OW19339   1.868   6.331   2.520  0.5019 -0.5285  0.1999
 5462SOL    HW119340   1.839   6.261   2.578  0.3988  0.0556  0.8612
 5462SOL    HW219341   1.960   6.310   2.501  1.3110  0.5170  2.5133
 5463SOL     OW19342   5.955   6.692   1.984 -0.0286  0.2610 -0.4393
 5463SOL    HW119343   5.956   6.711   1.890  1.7254  0.5669 -0.4083
 5463SOL    HW219344   5.868   6.656   2.001  0.0935 -1.1727 -2.4582
 5464SOL     OW19345   5.308   7.057   0.171  0.1925  0.1012 -0.2385
 5464SOL    HW119346   5.213   7.055   0.172  0.1755  0.4356  1.1640
 5464SOL    HW219347   5.332   7.099   0.254  1.5368  1.3339 -1.2072
 5465SOL     OW19348   6.284   3.078   3.548  0.0591 -0.5625 -0.0508
 5465SOL    HW119349   6.290   3.119   3.461  2.6726  0.0839  0.3372
 5465SOL    HW219350   6.362   3.023   3.553 -1.1042 -2.1757  1.1648
 5466SOL     OW19351   6.290   1.359   0.305  0.0758 -1.0767 -0.0885
 5466SOL    HW119352   6.318   1.323   0.220 -2.0082 -0.0534 -1.2967
 5466SOL    HW219353   6.211   1.308   0.327 -1.3394  0.8192 -0.4849
 5467SOL     OW19354   4.552   1.852   0.174  0.6002 -0.4160 -0.0922
 5467SOL    HW119355   4.632   1.902   0.190 -0.7479  2.3454 -1.2216
 5467SOL    HW219356   4.515   1.838   0.261  2.3237 -1.8853  0.4564
 5468SOL     OW19357   0.493   6.218   0.863  0.3027  0.0150 -0.2871
 5468SOL    HW119358   0.514   6.242   0.772  0.1539  0.3310 -0.2383
 5468SOL    HW219359   0.500   6.300   0.911  2.6714 -0.5387  0.4160
 5469SOL     OW19360   7.939   1.190   0.637  0.0750 -0.1499  0.1640
 5469SOL    HW119361   7.946   1.268   0.691  3.0134 -0.7718  0.8434
 5469SOL    HW219362   7.928   1.118   0.699 -0.2746 -0.5222 -0.3145
 5470SOL     OW19363   2.693   5.428   6.994  0.0129  0.7582  0.2920
 5470SOL    HW119364   2.626   5.495   6.977  1.1611  2.0795  0.7805
 5470SOL    HW219365   2.706   5.429   7.089  1.7555  1.6097  0.0918
 5471SOL     OW19366   1.123   1.290   7.756  0.7944  0.5726 -0.7111
 5471SOL    HW119367   1.035   1.256   7.740  1.1674 -0.5439 -0.4803
 5471SOL    HW219368   1.118   1.382   7.730 -1.2121  1.3556  2.0736
 5472SOL     OW19369   3.371   2.041   2.787 -0.1167  0.1730  0.3492
 5472SOL    HW119370   3.287   2.062   2.829  0.0889  1.0963  0.3089
 5472SOL    HW219371   3.347   1.998   2.705 -0.5712  0.9994  0.0355
 5473SOL     OW19372   0.262   4.415   0.926 -0.1277 -0.8010  0.4817
 5473SOL    HW119373   0.278   4.329   0.887 -1.3790 -0.4602 -0.8751
 5473SOL    HW219374   0.274   4.477   0.854 -0.7058  0.0118  1.0643
 5474SOL     OW19375   0.591   7.517   4.567  0.6818 -0.1958 -0.2296
 5474SOL    HW119376   0.588   7.432   4.611 -1.0290 -0.8037 -1.4134
 5474SOL    HW219377   0.677   7.553   4.590  0.8995 -1.6201  1.4157
 5475SOL     OW19378   4.183   5.661   7.881 -0.7590 -0.0452 -0.2303
 5475SOL    HW119379   4.105   5.607   7.871  0.6584 -2.2427  0.0103
 5475SOL    HW219380   4.208   5.649   7.973  1.0025 -1.0799 -0.8057
 5476SOL     OW19381   3.177   5.956   3.969  0.4790  0.1824 -0.3146
 5476SOL    HW119382   3.268   5.952   3.941  0.9997  1.0336  1.1727
 5476SOL    HW219383   3.168   5.887   4.034  0.8467  1.8670  1.5989
 5477SOL     OW19384   6.081   7.505   7.032  0.3190  0.0493 -0.0342
 5477SOL    HW119385   6.101   7.417   7.001 -2.5617 -0.4065 -0.9016
 5477SOL    HW219386   6.007   7.533   6.978  0.6572  2.7099  0.7423
 5478SOL     OW19387   1.337   0.169   6.471 -0.1889  0.2224 -0.1939
 5478SOL    HW119388   1.323   0.149   6.564  1.4092 -0.3571 -0.0511
 5478SOL    HW219389   1.375   0.089   6.435 -2.9306 -0.4387 -1.9354
 5479SOL     OW19390   5.131   1.713   0.440  0.4295  0.3911  0.0072
 5479SOL    HW119391   5.183   1.794   0.433  1.4922 -0.1483  1.2021
 5479SOL    HW219392   5.190   1.651   0.482 -0.3285 -1.0694 -1.0139
 5480SOL     OW19393   1.577   0.852   2.248 -0.2634  0.3332 -0.4604
 5480SOL    HW119394   1.550   0.941   2.226 -2.0963  0.0644  0.5440
 5480SOL    HW219395   1.564   0.802   2.167  1.6031  1.0933 -1.2951
 5481SOL     OW19396   0.409   3.470   7.532  0.2266 -0.8501 -0.2382
 5481SOL    HW119397   0.414   3.388   7.581 -0.2492 -0.7343  0.0063
 5481SOL    HW219398   0.325   3.508   7.557  0.8054  0.1162  0.2770
 5482SOL     OW19399   2.306   1.350   0.341 -0.1902 -0.0313  0.0917
 5482SOL    HW119400   2.333   1.434   0.303  0.8699 -0.3756  0.0467
 5482SOL    HW219401   2.351   1.284   0.287 -0.1332 -0.5848  0.8061
 5483SOL     OW19402   2.959   7.306   0.546 -0.1527  0.0236  0.0021
 5483SOL    HW119403   3.035   7.248   0.553 -0.9958 -1.1494 -0.0598
 5483SOL    HW219404   2.887   7.253   0.582 -1.0405  0.8830 -0.4831
 5484SOL     OW19405   5.664   2.789   2.631 -0.2217 -0.2351  0.0255
 5484SOL    HW119406   5.582   2.804   2.584  0.4157  1.7692 -0.5339
 5484SOL    HW219407   5.723   2.753   2.565 -0.3119 -0.5960  0.1407
 5485SOL     OW19408   5.283   4.616   6.021  0.1287 -0.3675  0.1462
 5485SOL    HW119409   5.363   4.566   6.005  0.5480  0.2183  0.3854
 5485SOL    HW219410   5.217   4.550   6.043  0.3831 -0.9106 -0.6634
 5486SOL     OW19411   6.605   0.010   6.632 -0.7657 -0.1077  0.2088
 5486SOL    HW119412   6.587   0.096   6.593  0.7111  0.3681  0.5117
 5486SOL    HW219413   6.689  -0.017   6.595 -0.5340 -0.7766  1.1713
 5487SOL     OW19414   5.303   6.178   5.686  0.1114  0.1687  0.1501
 5487SOL    HW119415   5.311   6.092   5.728  2.5399  1.2291  2.1094
 5487SOL    HW219416   5.208   6.188   5.673 -0.2850 -2.6708  0.0230
 5488SOL     OW19417   6.848   1.183   3.323  0.0325  0.0851  0.0940
 5488SOL    HW119418   6.771   1.154   3.371 -0.5197  0.6305 -0.4575
 5488SOL    HW219419   6.902   1.227   3.389  0.6943 -1.7459  0.8658
 5489SOL     OW19420   2.197   0.107   0.577 -0.1138 -0.4879 -0.6862
 5489SOL    HW119421   2.143   0.092   0.654 -0.5112  0.6292 -0.7338
 5489SOL    HW219422   2.245   0.188   0.597  1.1156 -1.1475 -0.8807
 5490SOL     OW19423   4.524   6.800   7.311  0.8949 -0.0325 -0.5372
 5490SOL    HW119424   4.437   6.826   7.341  0.8419  0.6607 -1.2594
 5490SOL    HW219425   4.508   6.746   7.233  1.0683 -1.0158  0.0893
 5491SOL     OW19426   2.303   5.102   4.122 -0.1459  0.2695  0.3130
 5491SOL    HW119427   2.363   5.168   4.087 -0.9739  0.6697 -0.4004
 5491SOL    HW219428   2.329   5.020   4.081 -0.0710  0.4364  0.0313
 5492SOL     OW19429   5.638   0.483   3.576 -0.5715  0.3794  0.0577
 5492SOL    HW119430   5.641   0.485   3.672 -1.1300 -0.2787  0.0998
 5492SOL    HW219431   5.586   0.405   3.556  2.0054 -1.2670 -0.8150
 5493SOL     OW19432   1.363   3.462   7.484  0.4447  0.2844  0.2459
 5493SOL    HW119433   1.304   3.449   7.558  0.4274 -0.4996  0.0987
 5493SOL    HW219434   1.393   3.374   7.461  0.9958  0.5894 -0.2324
 5494SOL     OW19435   7.243   6.424   1.382 -0.4413 -0.0012  0.0273
 5494SOL    HW119436   7.151   6.398   1.381 -1.0309  1.9581 -1.1078
 5494SOL    HW219437   7.272   6.406   1.471 -1.1921 -2.9549 -0.2191
 5495SOL     OW19438   4.369   6.096   0.707  0.4968 -0.2013  0.3013
 5495SOL    HW119439   4.348   6.096   0.614  0.7081  0.4732  0.2489
 5495SOL    HW219440   4.460   6.126   0.712 -0.1310  1.7624  0.8370
 5496SOL     OW19441   6.054   7.030   5.248 -0.0801 -0.0633 -0.1333
 5496SOL    HW119442   6.106   7.024   5.328 -1.5598 -1.8487  0.7866
 5496SOL    HW219443   6.035   7.123   5.239  1.6547  0.4046  0.5253
 5497SOL     OW19444   7.290   1.496   7.377 -0.4174 -0.2186  0.0119
 5497SOL    HW119445   7.224   1.543   7.326 -0.4592 -1.2306 -0.8994
 5497SOL    HW219446   7.360   1.477   7.315  2.0976  3.1331  1.4756
 5498SOL     OW19447   7.043   3.578   8.050  0.0681 -1.0516  0.2282
 5498SOL    HW119448   7.068   3.530   8.129 -0.5205 -0.4705  0.7727
 5498SOL    HW219449   7.090   3.661   8.057 -1.0586 -0.4389  0.6662
 5499SOL     OW19450   6.246   1.122   3.932 -0.1108  0.2168 -0.0090
 5499SOL    HW119451   6.161   1.164   3.943  0.0177 -0.0281  2.3463
 5499SOL    HW219452   6.309   1.184   3.968  0.2893 -1.0346  1.5842
 5500SOL     OW19453   6.192   2.606   0.264  0.3135  0.7796 -0.0765
 5500SOL    HW119454   6.210   2.549   0.189 -1.3696 -1.3924  1.0516
 5500SOL    HW219455   6.099   2.625   0.257 -0.0347 -0.0293  1.7808
 5501SOL     OW19456   0.382   8.052   2.151 -0.4417  0.0445  0.6661
 5501SOL    HW119457   0.362   8.107   2.226  3.7990 -0.8771  2.7791
 5501SOL    HW219458   0.392   8.113   2.078  0.4747  1.6762  2.0834
 5502SOL     OW19459   5.631   1.799   0.663 -0.4239 -0.1612  0.3177
 5502SOL    HW119460   5.572   1.788   0.588 -0.4800  2.0302 -0.0183
 5502SOL    HW219461   5.682   1.878   0.642  1.1045 -0.7568  1.6046
 5503SOL     OW19462   3.058   7.034   0.183  0.8578  0.7703 -0.5672
 5503SOL    HW119463   2.965   7.018   0.167  0.0553 -0.2307  3.8404
 5503SOL    HW219464   3.103   6.959   0.143 -0.3530  0.4334 -1.3535
 5504SOL     OW19465   3.361   1.401   1.366 -0.5762 -0.9088  0.3946
 5504SOL    HW119466   3.349   1.390   1.272 -0.1982  2.1676 -0.1404
 5504SOL    HW219467   3.456   1.411   1.377 -0.6790 -0.4879  0.9757
 5505SOL     OW19468   7.798   3.306   2.741  0.3703  0.5550 -0.1391
 5505SOL    HW119469   7.829   3.345   2.659  0.4784  0.5419 -0.1049
 5505SOL    HW219470   7.719   3.258   2.716  1.7635 -1.6009 -0.7643
 5506SOL     OW19471   5.291   4.715   3.101 -0.2350 -0.1273 -0.1968
 5506SOL    HW119472   5.313   4.808   3.097  0.6252 -0.2692  0.8065
 5506SOL    HW219473   5.324   4.678   3.019 -0.9288  0.5162 -0.7719
 5507SOL     OW19474   5.238   4.684   8.007  0.1913  0.4696  0.0156
 5507SOL    HW119475   5.147   4.657   7.995  0.4798 -0.0650 -1.1159
 5507SOL    HW219476   5.243   4.771   7.968  0.1555  0.5149  0.1120
 5508SOL     OW19477   4.651   0.365   4.632  0.0429  0.0941  0.3034
 5508SOL    HW119478   4.638   0.343   4.539  1.0240 -3.1195  0.8195
 5508SOL    HW219479   4.597   0.301   4.679  2.5507 -0.8903  1.9977
 5509SOL     OW19480   3.238   7.947   1.046 -0.1866 -0.1838  0.5933
 5509SOL    HW119481   3.148   7.957   1.015 -0.1677 -0.2634  0.5110
 5509SOL    HW219482   3.292   7.984   0.975 -0.1041 -1.0671  0.1809
 5510SOL     OW19483   6.184   7.965   2.881 -0.3290 -0.0704 -0.6328
 5510SOL    HW119484   6.099   7.991   2.845  0.4325  0.0989 -2.4585
 5510SOL    HW219485   6.229   7.923   2.807  0.9115 -0.7786  0.4874
 5511SOL     OW19486   0.524   7.196   6.126  0.5865  0.3442  0.4791
 5511SOL    HW119487   0.594   7.207   6.190  0.9004  1.8286 -0.0974
 5511SOL    HW219488   0.490   7.284   6.111 -0.9814 -0.2693  0.2556
 5512SOL     OW19489   1.795   5.396   5.879  0.5596  0.3943 -0.1495
 5512SOL    HW119490   1.859   5.414   5.811  1.8674  0.2538  1.0085
 5512SOL    HW219491   1.845   5.397   5.961 -0.7843 -0.4095  0.7296
 5513SOL     OW19492   3.944   0.094   2.484 -0.0483  0.0121  0.1417
 5513SOL    HW119493   3.904   0.174   2.519 -0.5588  0.3909 -1.2362
 5513SOL    HW219494   3.910   0.088   2.394  1.8556 -0.4582 -0.5829
 5514SOL     OW19495   2.776   1.425   1.981  0.2500 -0.3708  0.4640
 5514SOL    HW119496   2.710   1.495   1.987 -0.3971 -0.7468 -1.4827
 5514SOL    HW219497   2.846   1.463   1.929  1.2256 -0.2746  1.7901
 5515SOL     OW19498   4.052   1.678   0.236 -0.1437  0.1443  0.5721
 5515SOL    HW119499   4.101   1.760   0.235 -0.3611  0.2713 -0.6879
 5515SOL    HW219500   3.988   1.690   0.307 -1.2211  1.7108 -0.5924
 5516SOL     OW19501   4.408   0.433   7.379  0.4930  0.0759  0.2479
 5516SOL    HW119502   4.362   0.459   7.299  1.0050  0.4922  0.0783
 5516SOL    HW219503   4.365   0.482   7.448  0.1717 -0.1387  0.2016
 5517SOL     OW19504   4.174   3.503   0.442  0.0224 -0.1465 -0.2400
 5517SOL    HW119505   4.235   3.559   0.490  0.3912 -0.4516 -0.3506
 5517SOL    HW219506   4.204   3.507   0.352  0.1613 -0.6591 -0.2217
 5518SOL     OW19507   6.847   0.745   7.662 -0.3881 -0.4986  0.8191
 5518SOL    HW119508   6.928   0.698   7.683  0.4279  0.7040  0.5510
 5518SOL    HW219509   6.788   0.726   7.734 -0.6132 -3.0238  0.0482
 5519SOL     OW19510   5.416   6.098   5.150  0.2248 -0.0913  0.1490
 5519SOL    HW119511   5.360   6.106   5.073  0.1212 -2.0259 -0.0185
 5519SOL    HW219512   5.491   6.154   5.131  0.1459 -0.4492 -1.3253
 5520SOL     OW19513   1.863   5.130   7.118  0.0202  0.3628 -0.5810
 5520SOL    HW119514   1.847   5.158   7.027  1.3238  1.4070 -0.5300
 5520SOL    HW219515   1.953   5.160   7.136  0.0757 -0.5645  0.7843
 5521SOL     OW19516   2.022   1.858   5.249 -0.2039  0.3036  0.0484
 5521SOL    HW119517   2.052   1.940   5.209  2.6537 -1.2945 -1.4095
 5521SOL    HW219518   2.002   1.801   5.174 -0.9801 -0.7342  1.0111
 5522SOL     OW19519   7.865   6.500   6.028  0.5539  0.4591 -0.2637
 5522SOL    HW119520   7.953   6.532   6.009  1.0618 -0.9445 -0.4007
 5522SOL    HW219521   7.831   6.560   6.093  1.9631  0.5127  0.4674
 5523SOL     OW19522   7.608   2.191   6.938  0.1587  0.1495 -0.2336
 5523SOL    HW119523   7.611   2.170   6.845  0.2983 -0.1649 -0.1583
 5523SOL    HW219524   7.691   2.235   6.956  1.1296 -1.7572  0.2105
 5524SOL     OW19525   5.866   6.059   6.503  0.6262 -0.2965 -0.1635
 5524SOL    HW119526   5.819   6.098   6.429  0.7053 -0.9032 -0.5413
 5524SOL    HW219527   5.944   6.020   6.463  1.7275  1.1338  0.5130
 5525SOL     OW19528   4.098   3.423   7.417 -0.4380  0.5373  0.0679
 5525SOL    HW119529   4.113   3.499   7.361  0.4666 -0.7690 -1.5596
 5525SOL    HW219530   4.152   3.354   7.379 -0.0158 -0.5334  2.3995
 5526SOL     OW19531   6.316   0.984   4.627 -0.3910 -0.4061 -0.6320
 5526SOL    HW119532   6.268   1.058   4.592 -1.3362 -0.2492  0.9147
 5526SOL    HW219533   6.277   0.907   4.586  0.2112 -0.1078 -1.8026
 5527SOL     OW19534   7.731   3.282   5.489  0.1627  0.3717 -0.2942
 5527SOL    HW119535   7.652   3.239   5.455  0.0289 -1.0321  1.5740
 5527SOL    HW219536   7.703   3.322   5.571  1.3932 -0.2697  0.4721
 5528SOL     OW19537   0.707   5.141   5.510  0.7824 -0.7774 -0.0424
 5528SOL    HW119538   0.698   5.216   5.570 -1.7833 -0.3568 -0.8168
 5528SOL    HW219539   0.719   5.181   5.424  0.8910 -1.2940 -0.2665
 5529SOL     OW19540   4.098   4.248   0.566  0.1606  0.0677 -0.2935
 5529SOL    HW119541   4.064   4.171   0.613  0.2617 -1.0635 -1.9944
 5529SOL    HW219542   4.044   4.320   0.596 -0.0234 -0.6617  1.2677
 5530SOL     OW19543   2.100   7.231   5.111 -0.0443 -0.1031 -0.2771
 5530SOL    HW119544   2.127   7.139   5.120 -0.6717 -0.2062  0.7221
 5530SOL    HW219545   2.014   7.234   5.153  0.3567  1.1227  0.4948
 5531SOL     OW19546   7.501   1.008   1.817  0.6834  0.1999  0.2184
 5531SOL    HW119547   7.534   1.053   1.739  1.2429 -0.7724 -0.1187
 5531SOL    HW219548   7.406   1.014   1.809  0.7411  0.8498 -0.0910
 5532SOL     OW19549   5.700   1.854   6.698  0.1925 -0.2173 -0.3457
 5532SOL    HW119550   5.762   1.859   6.771 -1.1806  0.1394  0.8453
 5532SOL    HW219551   5.706   1.939   6.655  0.6996 -0.2707 -0.3786
 5533SOL     OW19552   6.387   1.710   1.089  0.2267  0.6810 -0.0163
 5533SOL    HW119553   6.348   1.641   1.143  1.2317  0.7018  0.7600
 5533SOL    HW219554   6.336   1.788   1.110 -0.2193  0.4111 -0.0837
 5534SOL     OW19555   4.288   3.418   6.516 -0.3200  0.0693 -0.1620
 5534SOL    HW119556   4.221   3.454   6.458 -0.0203  0.8414 -0.0299
 5534SOL    HW219557   4.370   3.453   6.483 -0.1624  0.6844  0.8411
 5535SOL     OW19558   0.601   2.178   4.907 -0.7507  0.0619  0.3970
 5535SOL    HW119559   0.663   2.172   4.980  0.2946 -1.6224 -0.5631
 5535SOL    HW219560   0.516   2.156   4.946 -0.0465 -1.8519  0.9787
 5536SOL     OW19561   2.140   7.897   4.027 -0.3799 -0.3731  0.3157
 5536SOL    HW119562   2.053   7.887   3.989  0.8787  0.4386 -3.1123
 5536SOL    HW219563   2.191   7.827   3.987  1.1965  0.8916  0.0382
 5537SOL     OW19564   7.124   4.701   4.124 -0.3338 -0.0801  0.0020
 5537SOL    HW119565   7.120   4.609   4.149  1.7944 -0.6096 -1.3243
 5537SOL    HW219566   7.104   4.702   4.030 -1.1191  0.9388  0.1521
 5538SOL     OW19567   2.522   7.963   1.307  0.3506 -0.2162 -0.6346
 5538SOL    HW119568   2.499   7.886   1.360 -1.1214  0.4895 -0.1979
 5538SOL    HW219569   2.595   7.934   1.253  2.1855 -0.8626  2.0416
 5539SOL     OW19570   1.434   7.583   0.092  0.1919 -0.5995 -0.2160
 5539SOL    HW119571   1.367   7.548   0.151 -0.6334  0.2230 -0.6304
 5539SOL    HW219572   1.445   7.515   0.025  0.0040 -0.8750  0.0307
 5540SOL     OW19573   3.183   5.491   5.511  0.0958  0.6733 -0.4417
 5540SOL    HW119574   3.271   5.469   5.541 -0.4678  0.4677  1.1372
 5540SOL    HW219575   3.126   5.473   5.586 -1.4313 -0.0629 -1.6928
 5541SOL     OW19576   7.216   4.055   1.364 -0.3810  0.7904 -0.1005
 5541SOL    HW119577   7.265   4.012   1.294 -2.0602 -0.1249 -0.7530
 5541SOL    HW219578   7.197   4.142   1.329  4.4850  2.9966  1.8630
 5542SOL     OW19579   6.923   0.152   2.021  0.4063 -0.8698 -0.4737
 5542SOL    HW119580   6.953   0.106   2.099  1.1776 -2.1371 -1.4834
 5542SOL    HW219581   6.833   0.123   2.009 -0.8154  1.6303  1.5843
 5543SOL     OW19582   2.729   1.309   6.778  0.2300  0.2306  0.4861
 5543SOL    HW119583   2.791   1.315   6.705 -0.2214 -0.4982  0.0260
 5543SOL    HW219584   2.650   1.271   6.739  0.3834 -1.3072  1.5731
 5544SOL     OW19585   0.610   6.025   7.292  0.6214 -0.1744  0.1348
 5544SOL    HW119586   0.684   5.967   7.271  1.3187 -0.2404  2.4630
 5544SOL    HW219587   0.552   5.970   7.345 -0.7032  0.1429 -0.9375
 5545SOL     OW19588   6.383   0.189   0.006 -0.1995 -0.0916 -0.0237
 5545SOL    HW119589   6.366   0.278   0.039  0.8302  0.2076 -0.2675
 5545SOL    HW219590   6.315   0.174  -0.059 -0.3542  0.5356 -0.0128
 5546SOL     OW19591   0.207   5.600   0.947 -0.1121 -0.4926  0.0978
 5546SOL    HW119592   0.176   5.607   0.857 -0.1613  1.2630  0.2158
 5546SOL    HW219593   0.263   5.522   0.948  0.6682  0.0067 -1.6712
 5547SOL     OW19594   5.549   0.655   1.919  0.3252  0.2764  0.7690
 5547SOL    HW119595   5.592   0.698   1.844  2.0413 -0.5545  1.2375
 5547SOL    HW219596   5.621   0.620   1.971 -0.9009 -0.1977  2.2005
 5548SOL     OW19597   6.473   3.942   4.892 -0.0772 -0.4063 -0.2925
 5548SOL    HW119598   6.386   3.905   4.908 -0.5253  0.7125 -0.0999
 5548SOL    HW219599   6.489   4.000   4.966  0.3735  0.2249 -0.8723
 5549SOL     OW19600   6.111   6.274   1.809  0.5466 -0.4980  0.4408
 5549SOL    HW119601   6.112   6.325   1.890  0.3689 -0.0692  0.1750
 5549SOL    HW219602   6.074   6.190   1.834  0.2374 -0.2712  0.7490
 5550SOL     OW19603   4.398   4.094   5.879  0.0926  0.2521 -0.9405
 5550SOL    HW119604   4.343   4.172   5.882 -0.5352 -0.2142  0.1429
 5550SOL    HW219605   4.482   4.126   5.846 -0.6819  1.0481 -2.2356
 5551SOL     OW19606   3.622   7.775   4.827 -0.2788 -0.0597 -0.8943
 5551SOL    HW119607   3.569   7.818   4.760 -0.2247  0.0125 -0.8913
 5551SOL    HW219608   3.624   7.837   4.900 -0.8526 -0.4033 -0.5806
 5552SOL     OW19609   0.816   2.089   7.503 -0.1106  0.0950 -0.0947
 5552SOL    HW119610   0.771   2.043   7.575 -0.0348  0.8950  0.4793
 5552SOL    HW219611   0.767   2.170   7.492  1.3038  1.1064  0.7176
 5553SOL     OW19612   3.021   4.523   5.410 -0.3664  0.2596  0.1523
 5553SOL    HW119613   3.035   4.567   5.493  1.3174 -1.8717  1.0896
 5553SOL    HW219614   2.948   4.463   5.427 -1.1862  1.0681 -0.4541
 5554SOL     OW19615   4.287   2.505   3.234 -0.1071 -0.2653 -0.8030
 5554SOL    HW119616   4.335   2.451   3.297  0.7015 -0.0057 -1.1769
 5554SOL    HW219617   4.251   2.577   3.286  1.3941  0.4949 -0.7670
 5555SOL     OW19618   7.786   1.629   5.706  0.1703 -0.2256 -0.2318
 5555SOL    HW119619   7.860   1.688   5.717 -0.3309  0.1240  1.5493
 5555SOL    HW219620   7.815   1.567   5.638  2.5146 -0.7413  1.1427
 5556SOL     OW19621   6.898   2.599   5.074 -0.3058  0.9902  0.2953
 5556SOL    HW119622   6.848   2.518   5.066 -1.6319  1.8882 -1.4914
 5556SOL    HW219623   6.936   2.596   5.161 -1.2843 -0.9985  0.7078
 5557SOL     OW19624   7.455   6.201   5.138  0.2724 -0.2155 -0.2831
 5557SOL    HW119625   7.528   6.210   5.077 -0.1513 -1.9808 -1.1142
 5557SOL    HW219626   7.378   6.198   5.081 -0.6957  3.1656  0.6288
 5558SOL     OW19627   2.899   2.943   3.614  0.3184 -0.9599 -0.1508
 5558SOL    HW119628   2.934   2.901   3.535  0.4310 -2.2500  0.5564
 5558SOL    HW219629   2.912   3.036   3.600  2.2759 -1.2868 -0.7475
 5559SOL     OW19630   6.098   1.991   0.648  0.2539  0.3405  0.5008
 5559SOL    HW119631   6.166   1.929   0.675 -0.9426 -0.9764  0.5923
 5559SOL    HW219632   6.064   1.955   0.567 -0.9360  0.4883  0.9166
 5560SOL     OW19633   5.142   6.679   1.266 -0.2968 -0.4495 -0.2977
 5560SOL    HW119634   5.141   6.636   1.352 -0.5981 -1.7448 -0.9177
 5560SOL    HW219635   5.145   6.606   1.203 -0.1817  0.4700 -1.3887
 5561SOL     OW19636   2.441   4.853   4.059 -0.1405 -0.1534 -0.4258
 5561SOL    HW119637   2.508   4.795   4.023  0.1705 -1.2261  1.6877
 5561SOL    HW219638   2.372   4.794   4.089 -0.4533  0.6725  0.5183
 5562SOL     OW19639   6.890   4.881   4.122  0.0493 -1.6996  0.4561
 5562SOL    HW119640   6.974   4.836   4.110  0.6359 -0.2652 -1.3624
 5562SOL    HW219641   6.911   4.957   4.176  0.3827 -0.2933 -1.5526
 5563SOL     OW19642   1.761   0.514   5.566  0.3191  0.0657 -0.0782
 5563SOL    HW119643   1.701   0.491   5.495 -0.9103 -1.1540  1.2932
 5563SOL    HW219644   1.842   0.540   5.521 -0.4825 -0.4161 -1.9115
 5564SOL     OW19645   5.180   1.283   6.253 -0.2745  0.9112 -0.4512
 5564SOL    HW119646   5.202   1.210   6.194 -1.6817  0.0978  0.0008
 5564SOL    HW219647   5.092   1.263   6.284  0.1367  1.7393  1.3273
 5565SOL     OW19648   0.831   2.976   6.566 -0.1789 -0.7814  0.1987
 5565SOL    HW119649   0.827   2.914   6.639  0.4084 -0.2245  0.7221
 5565SOL    HW219650   0.836   3.062   6.608  3.1635 -0.5663 -0.3650
 5566SOL     OW19651   4.199   2.847   5.206  0.3031  0.2861 -0.3675
 5566SOL    HW119652   4.167   2.757   5.205  0.3383  0.2760 -0.7068
 5566SOL    HW219653   4.205   2.871   5.114  1.8964  0.0643 -0.3459
 5567SOL     OW19654   7.710   6.089   3.499 -0.0916 -0.4547 -0.4612
 5567SOL    HW119655   7.664   6.011   3.468  0.1249  0.3375 -3.0260
 5567SOL    HW219656   7.666   6.162   3.455  2.1804  0.5230 -1.2629
 5568SOL     OW19657   7.216   7.838   4.757 -0.2167 -0.2884 -0.1244
 5568SOL    HW119658   7.208   7.922   4.713 -0.6199 -0.7275 -0.9173
 5568SOL    HW219659   7.217   7.859   4.851  0.6172  0.6605 -0.3290
 5569SOL     OW19660   6.129   4.595   6.884  0.1231 -0.6411  0.2196
 5569SOL    HW119661   6.089   4.564   6.803  0.0541 -0.1917  0.0799
 5569SOL    HW219662   6.170   4.517   6.922 -0.7303 -1.0648  0.2747
 5570SOL     OW19663   0.258   0.655   6.725 -0.1015  0.2335  0.2916
 5570SOL    HW119664   0.213   0.591   6.780 -0.4045  1.8651  2.0623
 5570SOL    HW219665   0.216   0.647   6.640 -3.1288  0.9590  1.5803
 5571SOL     OW19666   4.981   4.129   0.768 -0.5968 -0.4994 -0.4093
 5571SOL    HW119667   4.965   4.220   0.793  3.4913 -0.0469  1.4631
 5571SOL    HW219668   4.971   4.080   0.849  0.8999 -1.0255 -0.5053
 5572SOL     OW19669   3.314   7.959   4.926 -0.0128 -0.3574  0.3416
 5572SOL    HW119670   3.291   7.954   4.833 -1.2994  3.2129  0.3100
 5572SOL    HW219671   3.245   7.911   4.971 -0.7580 -0.0525 -0.4520
 5573SOL     OW19672   1.053   6.250   4.077 -0.5730 -0.2626  0.2807
 5573SOL    HW119673   1.118   6.286   4.016  1.5710 -2.6981  0.9429
 5573SOL    HW219674   0.985   6.316   4.081 -0.6447  0.2831 -4.4108
 5574SOL     OW19675   3.252   1.990   3.574  0.6987 -0.2929  0.3406
 5574SOL    HW119676   3.248   1.905   3.532  1.2157  0.3864 -1.1413
 5574SOL    HW219677   3.319   1.980   3.642  0.6501 -1.1032  0.2788
 5575SOL     OW19678   5.674   3.574   0.117  0.0536 -0.1592  0.9370
 5575SOL    HW119679   5.736   3.558   0.188 -0.4521  0.4889  1.5370
 5575SOL    HW219680   5.600   3.617   0.159 -0.2288  0.2927 -0.0009
 5576SOL     OW19681   0.560   5.320   4.667 -0.2114 -0.1193  0.1367
 5576SOL    HW119682   0.515   5.399   4.638  0.3521  0.2647  0.2893
 5576SOL    HW219683   0.584   5.338   4.758 -2.4742 -1.5388  1.0976
 5577SOL     OW19684   3.873   2.924   8.074  0.0659 -0.1584  0.3519
 5577SOL    HW119685   3.807   2.991   8.055 -0.7673 -0.6578  1.4155
 5577SOL    HW219686   3.956   2.965   8.047 -0.4271  1.2873  0.9056
 5578SOL     OW19687   4.581   4.199   4.229 -0.5539  0.4791 -0.3621
 5578SOL    HW119688   4.490   4.223   4.248  0.1329  2.2928  0.9061
 5578SOL    HW219689   4.580   4.175   4.137 -2.4219 -0.0664 -0.2410
 5579SOL     OW19690   7.299   5.913   7.017 -0.3285 -0.2433  0.2543
 5579SOL    HW119691   7.390   5.908   6.987 -0.7133 -0.2854 -0.9489
 5579SOL    HW219692   7.297   5.858   7.096  0.5937 -0.5702  0.0686
 5580SOL     OW19693   2.995   4.280   3.463  0.2426  0.4661  0.2501
 5580SOL    HW119694   2.901   4.285   3.446  0.6162  0.2253 -2.2888
 5580SOL    HW219695   3.025   4.207   3.409  2.0871  1.3662 -0.0269
 5581SOL     OW19696   0.915   4.334   3.825  0.6206  0.5383  0.5902
 5581SOL    HW119697   0.988   4.302   3.772 -0.3660 -1.4028  0.3319
 5581SOL    HW219698   0.952   4.407   3.874  2.7156 -0.2991  0.3679
 5582SOL     OW19699   4.313   0.449   4.012 -0.0577 -0.2957 -0.2010
 5582SOL    HW119700   4.243   0.416   4.069 -0.7744  0.0645 -0.8557
 5582SOL    HW219701   4.324   0.381   3.946 -0.1378 -0.1298 -0.3864
 5583SOL     OW19702   0.877   6.615   0.247 -0.0433  0.7624  0.6246
 5583SOL    HW119703   0.884   6.709   0.231  0.2811  0.7048  0.4172
 5583SOL    HW219704   0.921   6.602   0.331 -0.1882  0.8130  0.7079
 5584SOL     OW19705   4.778   6.641   0.275  0.5349 -0.3575 -0.0208
 5584SOL    HW119706   4.683   6.634   0.279  0.5651 -0.6504  0.2390
 5584SOL    HW219707   4.810   6.567   0.327  0.8866  0.7967  1.4508
 5585SOL     OW19708   0.969   7.844   5.883 -0.3060  0.1013  0.1327
 5585SOL    HW119709   1.014   7.768   5.919 -0.0755  0.2325  0.1225
 5585SOL    HW219710   1.033   7.884   5.824 -0.4029  0.3435  0.1913
 5586SOL     OW19711   4.543   3.905   5.306  0.1766  0.2901  0.1884
 5586SOL    HW119712   4.563   3.979   5.248  0.8541 -0.1772 -0.1961
 5586SOL    HW219713   4.613   3.842   5.289  0.8446  0.4521  2.0910
 5587SOL     OW19714   2.906   1.878   5.217  0.2305 -0.2558 -0.2388
 5587SOL    HW119715   2.912   1.833   5.132 -0.4860 -1.5361  0.3635
 5587SOL    HW219716   2.997   1.896   5.241  0.4243  0.7811 -1.5899
 5588SOL     OW19717   5.816   6.080   5.204 -0.0428 -0.2264 -0.7129
 5588SOL    HW119718   5.758   6.155   5.186  1.8710  1.3751 -0.5618
 5588SOL    HW219719   5.782   6.010   5.149 -0.2444  1.5891 -3.0395
 5589SOL     OW19720   0.085   4.058   5.127  0.7638  0.8203  0.5376
 5589SOL    HW119721   0.085   4.132   5.188 -1.3217  1.4227 -0.1044
 5589SOL    HW219722   0.035   4.090   5.052 -0.5519 -1.3593  0.4223
 5590SOL     OW19723   3.746   5.184   1.994 -0.2802 -0.4743 -0.3669
 5590SOL    HW119724   3.673   5.166   2.053  0.3328 -0.2143  0.4994
 5590SOL    HW219725   3.708   5.235   1.923 -0.9397 -0.3413  0.0746
 5591SOL     OW19726   8.101   5.951   4.497  0.8053 -0.1311  0.1453
 5591SOL    HW119727   8.141   6.032   4.463  2.2514 -0.5901  0.6794
 5591SOL    HW219728   8.082   5.970   4.589  0.1452 -0.0468 -0.0073
 5592SOL     OW19729   7.301   4.083   3.278  0.2602  0.4550 -0.5288
 5592SOL    HW119730   7.245   4.104   3.353 -0.4436 -1.5392 -0.4275
 5592SOL    HW219731   7.283   4.152   3.214 -0.4924  1.1872  0.4354
 5593SOL     OW19732   4.277   4.438   6.309 -1.0700  0.1512  0.0214
 5593SOL    HW119733   4.301   4.451   6.401 -0.3334 -1.7986  0.1616
 5593SOL    HW219734   4.361   4.425   6.265 -1.5143 -3.8532  0.0015
 5594SOL     OW19735   6.775   5.243   5.981 -0.0961  0.1686 -0.8044
 5594SOL    HW119736   6.810   5.220   5.894  0.7908 -0.6272 -0.2585
 5594SOL    HW219737   6.795   5.167   6.035 -2.8171 -0.4001 -0.4583
 5595SOL     OW19738   3.581   5.331   6.978 -0.1961  0.3724 -0.1991
 5595SOL    HW119739   3.591   5.275   6.901  0.4393  1.3860 -0.8795
 5595SOL    HW219740   3.639   5.406   6.961  1.7518 -0.4196  2.2695
 5596SOL     OW19741   6.820   2.873   5.940 -0.9116  0.3681  0.4274
 5596SOL    HW119742   6.833   2.925   6.019 -0.2974 -0.0471  0.6129
 5596SOL    HW219743   6.881   2.800   5.950  1.3997  1.8038 -1.7597
 5597SOL     OW19744   6.790   7.832   7.760  0.3059  0.1310 -0.5676
 5597SOL    HW119745   6.770   7.919   7.726  0.8452  0.4813 -0.0037
 5597SOL    HW219746   6.753   7.772   7.696 -2.7500  0.7108  0.5169
 5598SOL     OW19747   1.763   7.681   4.451  0.2025  0.1974  0.1907
 5598SOL    HW119748   1.764   7.755   4.512 -1.0284  1.0588 -0.8023
 5598SOL    HW219749   1.856   7.665   4.432  0.4881  1.6251  0.2573
 5599SOL     OW19750   7.087   2.843   3.752  0.5400  0.2033  0.0659
 5599SOL    HW119751   7.076   2.882   3.665 -2.2535 -0.7667 -0.0980
 5599SOL    HW219752   6.999   2.839   3.788  1.6791  1.3982  3.3925
 5600SOL     OW19753   1.034   7.214   0.402 -0.7853 -0.3550 -0.3053
 5600SOL    HW119754   1.110   7.157   0.414  0.8943  1.6055 -1.1707
 5600SOL    HW219755   1.070   7.299   0.379 -3.1618  1.2673  1.4387
 5601SOL     OW19756   3.693   7.028   5.635 -0.0911 -0.3302  0.4472
 5601SOL    HW119757   3.619   6.968   5.629 -0.6856  0.3831  0.5993
 5601SOL    HW219758   3.719   7.024   5.727 -0.3394 -0.1055  0.5274
 5602SOL     OW19759   5.651   5.065   5.844 -0.1530  0.2990  0.0970
 5602SOL    HW119760   5.626   5.149   5.806 -0.9123  0.3804  0.7428
 5602SOL    HW219761   5.743   5.053   5.818  0.3708  1.9312  1.0221
 5603SOL     OW19762   7.135   3.544   7.092  0.1169  0.3750  0.6166
 5603SOL    HW119763   7.211   3.557   7.036 -0.2890  0.8614  0.1674
 5603SOL    HW219764   7.159   3.471   7.149  0.7322  0.2114  0.1552
 5604SOL     OW19765   3.869   6.256   3.907 -0.8514 -0.0213 -0.3892
 5604SOL    HW119766   3.875   6.236   4.001 -0.6221  0.6483 -0.2556
 5604SOL    HW219767   3.880   6.172   3.864 -1.1102 -0.3581  0.1949
 5605SOL     OW19768   3.819   3.932   2.595  0.0937  0.3730  0.3516
 5605SOL    HW119769   3.800   3.860   2.655 -1.0893  1.0581  0.8443
 5605SOL    HW219770   3.912   3.922   2.573  0.1953 -0.6981  1.2048
 5606SOL     OW19771   2.786   3.613   1.314  0.6116 -0.2561  0.4906
 5606SOL    HW119772   2.870   3.574   1.336  0.4456 -0.2126  1.2269
 5606SOL    HW219773   2.732   3.601   1.392  0.6818  1.7910  0.9195
 5607SOL     OW19774   5.683   0.555   5.971 -0.1747  0.1832 -0.0359
 5607SOL    HW119775   5.649   0.466   5.959  1.3952 -0.3834 -0.5462
 5607SOL    HW219776   5.773   0.542   6.001 -0.0767  1.6097  0.3341
 5608SOL     OW19777   1.077   7.348   2.750 -0.0231  0.0720 -0.0522
 5608SOL    HW119778   1.121   7.432   2.738 -0.8829  0.6375  0.5701
 5608SOL    HW219779   0.989   7.362   2.715 -0.0536 -0.7024 -0.3047
 5609SOL     OW19780   2.629   5.282   7.483 -0.2657  0.5313 -0.5488
 5609SOL    HW119781   2.552   5.318   7.527  0.1425  1.3626 -0.4975
 5609SOL    HW219782   2.594   5.212   7.427 -1.5152  2.7317 -2.7473
 5610SOL     OW19783   4.147   2.494   2.319  0.3838  0.5304  0.1370
 5610SOL    HW119784   4.176   2.477   2.408 -1.6009  2.7026  1.2993
 5610SOL    HW219785   4.214   2.453   2.264  0.1222 -3.7176  2.4861
 5611SOL     OW19786   4.065   0.345   4.299 -0.5521 -0.7180  0.1389
 5611SOL    HW119787   4.069   0.250   4.288  1.2097 -0.5677 -0.7136
 5611SOL    HW219788   4.155   0.375   4.292 -1.0862  1.0557  0.2163
 5612SOL     OW19789   6.786   0.430   3.718 -0.0478  0.0147  0.1111
 5612SOL    HW119790   6.714   0.426   3.781  0.6265  1.6668  1.0356
 5612SOL    HW219791   6.743   0.447   3.634 -0.9409 -2.0604  0.0678
 5613SOL     OW19792   3.671   2.647   3.695  0.3607 -0.1815  0.2718
 5613SOL    HW119793   3.598   2.591   3.721  0.3183  0.0504  0.6520
 5613SOL    HW219794   3.739   2.629   3.760  1.4331 -1.9728 -1.2626
 5614SOL     OW19795   0.452   1.696   2.342 -0.5133 -0.3665  0.1977
 5614SOL    HW119796   0.459   1.619   2.399  0.0530 -1.5884 -1.4502
 5614SOL    HW219797   0.390   1.671   2.274 -0.6729  0.8071 -0.1099
 5615SOL     OW19798   2.680   3.090   1.802 -0.4639  0.1946  0.0115
 5615SOL    HW119799   2.729   3.019   1.843 -0.1250  2.0096  3.0572
 5615SOL    HW219800   2.589   3.062   1.807 -0.2387 -0.5906 -0.0861
 5616SOL     OW19801   3.847   3.836   0.265 -0.2203  0.2595 -0.1875
 5616SOL    HW119802   3.815   3.746   0.259 -1.4966  0.6694  0.1578
 5616SOL    HW219803   3.843   3.857   0.359  1.5896  0.1572 -0.0680
 5617SOL     OW19804   4.093   2.128   0.001  0.4465  0.8455  0.6997
 5617SOL    HW119805   4.024   2.066   0.023  0.1275  0.6463 -0.8071
 5617SOL    HW219806   4.105   2.180   0.081 -0.8363  0.3235  1.2458
 5618SOL     OW19807   3.834   4.774   4.020 -0.1217  0.1238  0.7993
 5618SOL    HW119808   3.798   4.735   4.100  0.1187  1.0805  1.3924
 5618SOL    HW219809   3.819   4.868   4.031  2.6298  0.6071  1.1369
 5619SOL     OW19810   1.977   2.750   1.832 -0.0091  0.1988  0.8862
 5619SOL    HW119811   1.899   2.787   1.873  0.5549  1.1324  1.1369
 5619SOL    HW219812   2.047   2.813   1.851  0.2028  0.9389 -1.9370
 5620SOL     OW19813   4.789   7.101   6.265 -0.0730 -0.1962 -0.3929
 5620SOL    HW119814   4.737   7.048   6.204  1.2263 -1.5406 -0.3866
 5620SOL    HW219815   4.871   7.118   6.218 -0.1927  1.2352 -0.1147
 5621SOL     OW19816   6.430   0.299   5.808  0.2721  0.5998  0.3643
 5621SOL    HW119817   6.491   0.232   5.776 -1.8730 -0.7422 -1.1485
 5621SOL    HW219818   6.367   0.251   5.861 -0.5210  1.6343  0.3879
 5622SOL     OW19819   6.184   4.124   6.054  0.3419 -0.7461 -0.1934
 5622SOL    HW119820   6.262   4.177   6.039 -0.0753 -0.0133  0.2003
 5622SOL    HW219821   6.158   4.143   6.144 -1.2796  0.3548 -0.8572
 5623SOL     OW19822   5.382   6.580   4.444 -0.6736 -0.2731 -0.7558
 5623SOL    HW119823   5.288   6.564   4.437 -1.2892  2.5822 -0.2897
 5623SOL    HW219824   5.402   6.562   4.536 -1.0374  0.2024 -0.5775
 5624SOL     OW19825   1.013   4.874   0.519 -0.2116 -0.1295 -0.5165
 5624SOL    HW119826   1.047   4.832   0.440  0.8110  1.0778 -0.7358
 5624SOL    HW219827   1.061   4.956   0.525 -0.1429 -0.2812  1.4724
 5625SOL     OW19828   1.006   6.755   4.771 -0.3831  0.0879  0.4878
 5625SOL    HW119829   1.093   6.794   4.760 -0.5983  0.1026 -1.5647
 5625SOL    HW219830   1.023   6.662   4.783 -0.0745  0.0485 -0.1843
 5626SOL     OW19831   0.912   0.186   3.652 -0.1959  0.0371 -0.7664
 5626SOL    HW119832   0.956   0.258   3.606  0.4368 -1.0511 -1.9127
 5626SOL    HW219833   0.929   0.203   3.745  0.5310  0.9824 -1.0610
 5627SOL     OW19834   6.730   7.391   4.133 -0.1664 -0.0384 -0.0439
 5627SOL    HW119835   6.674   7.435   4.197  0.2912 -0.3717  0.5955
 5627SOL    HW219836   6.797   7.347   4.186 -0.2829 -1.0356 -0.6995
 5628SOL     OW19837   7.859   1.439   5.533 -0.0049 -0.0754  0.1903
 5628SOL    HW119838   7.908   1.359   5.514 -0.3600 -0.5003  1.0351
 5628SOL    HW219839   7.822   1.465   5.448  0.2047 -0.7424 -0.1073
 5629SOL     OW19840   4.960   7.958   7.215 -0.7204  0.3840  0.3296
 5629SOL    HW119841   5.052   7.935   7.204 -0.5379  1.6886 -1.2074
 5629SOL    HW219842   4.960   8.054   7.223 -2.0280  0.5287 -0.9590
 5630SOL     OW19843   4.516   6.109   0.317 -0.3878 -0.2062 -0.3071
 5630SOL    HW119844   4.549   6.117   0.228  0.2492  0.6379 -0.0053
 5630SOL    HW219845   4.593   6.120   0.373 -0.6908 -1.2438  0.3467
 5631SOL     OW19846   1.021   5.476   0.403  0.1862 -0.8033 -0.5833
 5631SOL    HW119847   0.985   5.424   0.331 -1.1885  0.5846 -0.9487
 5631SOL    HW219848   0.950   5.536   0.427  1.5593  0.6246  0.0785
 5632SOL     OW19849   0.314   2.944   4.356 -0.1149  0.4438 -0.3657
 5632SOL    HW119850   0.305   3.021   4.300 -1.3434  0.3032 -0.3894
 5632SOL    HW219851   0.271   2.874   4.307 -0.7165  0.1930  0.4992
 5633SOL     OW19852   5.591   5.513   2.309 -0.1579  0.4535 -0.0900
 5633SOL    HW119853   5.511   5.562   2.328 -0.5307 -0.3101  0.3215
 5633SOL    HW219854   5.621   5.482   2.394  1.8134  2.5588  0.0974
 5634SOL     OW19855   1.739   1.307   2.504 -0.3830  0.1403 -0.2381
 5634SOL    HW119856   1.713   1.393   2.539  0.6779 -0.1789  1.4563
 5634SOL    HW219857   1.828   1.294   2.536 -0.6076 -1.6995 -0.2581
 5635SOL     OW19858   3.212   3.255   6.238  0.5222  0.3196 -0.4971
 5635SOL    HW119859   3.181   3.238   6.328  1.0175  1.3124 -0.1216
 5635SOL    HW219860   3.170   3.187   6.185 -0.0203 -0.1013  0.4412
 5636SOL     OW19861   0.637   8.079   3.759 -0.2782  0.3681  0.2351
 5636SOL    HW119862   0.664   7.995   3.797 -1.1315  0.3849  0.9027
 5636SOL    HW219863   0.683   8.082   3.674 -0.9304 -1.2027 -0.2202
 5637SOL     OW19864   6.499   7.308   3.946  0.0873  0.1886  0.2123
 5637SOL    HW119865   6.434   7.310   3.876 -0.4993  1.6733  0.7572
 5637SOL    HW219866   6.448   7.286   4.024  0.6871 -1.1587  0.2567
 5638SOL     OW19867   7.206   1.508   2.140 -0.3028 -0.2003  0.1847
 5638SOL    HW119868   7.145   1.581   2.138 -0.2733 -0.1852 -0.5781
 5638SOL    HW219869   7.150   1.430   2.138 -0.3216 -0.1899  0.3550
 5639SOL     OW19870   0.177   7.669   2.724  0.4059  0.2406 -0.1394
 5639SOL    HW119871   0.138   7.586   2.697  1.1620  0.5654 -2.4744
 5639SOL    HW219872   0.253   7.645   2.776  0.3483 -0.5168 -0.3990
 5640SOL     OW19873   7.759   6.019   6.634  0.2680  0.1400 -0.2655
 5640SOL    HW119874   7.673   6.048   6.663  0.3626 -1.0939  1.4388
 5640SOL    HW219875   7.776   5.941   6.686  2.0365 -0.1712 -1.2317
 5641SOL     OW19876   1.731   6.849   4.160  0.3806 -0.0605 -0.5324
 5641SOL    HW119877   1.688   6.796   4.228  2.0783  0.9093  1.3989
 5641SOL    HW219878   1.801   6.793   4.127  2.9975  1.2114  2.4041
 5642SOL     OW19879   5.837   3.028   0.799  0.5650 -0.3611  0.3104
 5642SOL    HW119880   5.917   3.081   0.800  0.9459 -0.9314  0.4581
 5642SOL    HW219881   5.868   2.937   0.804 -0.0635 -0.6178 -0.3002
 5643SOL     OW19882   3.212   3.834   2.158  0.0399  0.3536  0.2346
 5643SOL    HW119883   3.277   3.797   2.098  0.9747  2.9063 -0.4406
 5643SOL    HW219884   3.174   3.758   2.202  1.6456 -1.3835 -1.2270
 5644SOL     OW19885   6.512   1.285   3.666  0.3202 -0.4940  0.0641
 5644SOL    HW119886   6.529   1.373   3.699 -0.1453 -0.5446  0.4453
 5644SOL    HW219887   6.599   1.249   3.649  0.5705 -0.4230  1.1257
 5645SOL     OW19888   7.922   2.809   0.798 -0.3744 -0.0165 -0.7258
 5645SOL    HW119889   7.907   2.848   0.884  1.6865 -2.1817  0.7403
 5645SOL    HW219890   7.839   2.768   0.775 -0.8368  0.2364  0.4425
 5646SOL     OW19891   0.661   6.742   3.211 -0.3598 -0.5164  0.2219
 5646SOL    HW119892   0.675   6.770   3.302  0.3623  1.1687 -0.3740
 5646SOL    HW219893   0.748   6.721   3.178 -0.6735 -1.6097  0.0448
 5647SOL     OW19894   6.655   0.202   3.038 -0.1124  0.0701 -0.1091
 5647SOL    HW119895   6.727   0.142   3.055 -0.9158 -0.9743 -0.2456
 5647SOL    HW219896   6.618   0.220   3.124  0.3514  0.6586 -0.0327
 5648SOL     OW19897   1.463   3.795   4.433 -0.8183 -0.1845 -0.0463
 5648SOL    HW119898   1.421   3.759   4.511 -1.7194  0.9505  0.0189
 5648SOL    HW219899   1.496   3.881   4.460  0.5762 -0.5835 -0.4145
 5649SOL     OW19900   7.534   0.865   4.148 -0.4029 -0.0199  0.0861
 5649SOL    HW119901   7.600   0.805   4.115 -0.6103 -0.8185  1.0832
 5649SOL    HW219902   7.570   0.952   4.131  0.4869 -0.4312 -0.1969
 5650SOL     OW19903   3.888   4.804   5.029  0.2747  0.2736 -0.8214
 5650SOL    HW119904   3.922   4.893   5.033  1.7963 -0.1420 -2.8841
 5650SOL    HW219905   3.963   4.748   5.051 -0.3730 -0.5333 -0.6021
 5651SOL     OW19906   0.796   2.304   7.735  0.0585 -0.2418 -0.6769
 5651SOL    HW119907   0.838   2.381   7.698  0.4030  0.5351  1.2348
 5651SOL    HW219908   0.861   2.268   7.796 -0.6665 -1.1884 -0.4301
 5652SOL     OW19909   6.484   3.711   1.047  0.3202  0.3360  0.6347
 5652SOL    HW119910   6.524   3.747   0.969 -0.7377  0.6820  0.2362
 5652SOL    HW219911   6.558   3.681   1.101  1.0380 -0.3850 -0.7106
 5653SOL     OW19912   3.167   7.352   7.351 -0.0954  0.2287 -0.1219
 5653SOL    HW119913   3.127   7.268   7.330 -1.0202  0.5908  0.1291
 5653SOL    HW219914   3.219   7.375   7.274  0.6323 -0.8238  0.0270
 5654SOL     OW19915   4.251   0.185   4.102 -0.0890  0.0867  0.0973
 5654SOL    HW119916   4.174   0.138   4.068  0.4834 -0.8276  0.0338
 5654SOL    HW219917   4.318   0.118   4.111  0.5475  0.7806  0.6637
 5655SOL     OW19918   3.547   5.708   7.904  0.1501 -0.2697 -0.8468
 5655SOL    HW119919   3.621   5.686   7.961  0.1239 -1.4943 -1.2516
 5655SOL    HW219920   3.516   5.623   7.872 -1.6849  0.1847 -0.3800
 5656SOL     OW19921   0.327   0.619   5.474  0.3041  0.2656  0.0896
 5656SOL    HW119922   0.394   0.625   5.542 -0.9143 -0.5131  1.4045
 5656SOL    HW219923   0.342   0.697   5.420  1.3181  0.9057  1.2251
 5657SOL     OW19924   6.430   8.017   1.483 -0.0330  0.5956 -0.5797
 5657SOL    HW119925   6.438   8.108   1.511 -1.2141  1.3303 -2.4140
 5657SOL    HW219926   6.346   7.988   1.518 -1.2094  1.3151 -2.6205
 5658SOL     OW19927   1.082   2.041   1.554 -0.0361  0.8611 -0.1415
 5658SOL    HW119928   1.067   1.993   1.473  1.1406 -0.2994  0.2893
 5658SOL    HW219929   1.011   2.014   1.612 -1.0320  1.8929 -0.8378
 5659SOL     OW19930   5.896   4.796   6.432  0.7066  0.0296  0.3828
 5659SOL    HW119931   5.893   4.700   6.439 -1.8888  0.0805  1.0421
 5659SOL    HW219932   5.938   4.825   6.513 -0.7698 -0.5182  1.3915
 5660SOL     OW19933   2.279   1.353   6.376  0.0299  0.3825 -0.2802
 5660SOL    HW119934   2.275   1.444   6.407  0.6557  0.1893  0.4018
 5660SOL    HW219935   2.195   1.339   6.333  0.0427  1.3767 -0.6594
 5661SOL     OW19936   7.480   0.534   8.009 -0.5032 -0.1604  0.0794
 5661SOL    HW119937   7.513   0.549   7.920 -0.3545 -0.4916  0.0777
 5661SOL    HW219938   7.496   0.441   8.025  3.0420  0.5760  1.8799
 5662SOL     OW19939   2.290   2.833   1.923 -0.2229 -0.0424 -0.0582
 5662SOL    HW119940   2.317   2.775   1.852  0.9893  0.2331  0.1489
 5662SOL    HW219941   2.338   2.914   1.907  0.8457 -0.2947  1.5856
 5663SOL     OW19942   5.782   4.037   2.035  0.7342 -0.2035 -0.9525
 5663SOL    HW119943   5.810   3.953   1.999  0.9128 -0.7919  0.4855
 5663SOL    HW219944   5.694   4.050   1.999 -0.3495 -2.2634  0.7157
 5664SOL     OW19945   0.303   0.877   4.676 -0.1221 -0.0382 -0.0469
 5664SOL    HW119946   0.256   0.961   4.675  0.6693  0.4318 -1.4840
 5664SOL    HW219947   0.284   0.840   4.762 -0.3597  1.7031  0.6996
 5665SOL     OW19948   3.245   7.834   7.968  0.2620  0.0491  0.2258
 5665SOL    HW119949   3.278   7.904   8.024 -0.0255  0.6651 -0.3534
 5665SOL    HW219950   3.296   7.757   7.992  3.6927  1.3888 -2.0673
 5666SOL     OW19951   7.128   5.240   5.182 -0.3965 -0.6757 -0.3310
 5666SOL    HW119952   7.110   5.254   5.089 -1.7574 -0.6675 -0.0839
 5666SOL    HW219953   7.127   5.145   5.194  0.1938 -0.6953 -0.3888
 5667SOL     OW19954   3.879   6.373   5.338 -0.2078  0.0828 -0.6635
 5667SOL    HW119955   3.871   6.321   5.258 -0.6363  1.4578 -1.5478
 5667SOL    HW219956   3.792   6.369   5.379  0.3358 -1.6616  0.4582
 5668SOL     OW19957   1.467   7.475   6.381  0.0644 -1.1296  1.0692
 5668SOL    HW119958   1.443   7.507   6.468 -0.3237  1.8974 -0.0149
 5668SOL    HW219959   1.550   7.518   6.361 -1.8637  1.9277 -1.6034
 5669SOL     OW19960   0.011   6.461   3.562  0.3744  0.2455  0.0971
 5669SOL    HW119961   0.055   6.543   3.583  0.5433 -0.2091  1.6063
 5669SOL    HW219962  -0.079   6.474   3.592  0.4016 -0.1151  0.3416
 5670SOL     OW19963   2.151   3.336   4.013 -0.1820  0.0715 -0.8366
 5670SOL    HW119964   2.207   3.300   4.082  0.8837  1.0306 -1.1801
 5670SOL    HW219965   2.100   3.404   4.057 -1.4548 -1.0840 -0.4244
 5671SOL     OW19966   2.532   3.569   3.203 -0.2085 -0.0483 -0.7508
 5671SOL    HW119967   2.522   3.580   3.298  1.9050  2.5053 -0.6972
 5671SOL    HW219968   2.606   3.508   3.195  0.2626  0.5138 -0.7237
 5672SOL     OW19969   4.007   3.067   0.650  0.0480  0.4051 -0.1648
 5672SOL    HW119970   4.019   2.992   0.592  0.3525  1.0544 -0.9555
 5672SOL    HW219971   3.929   3.046   0.700  1.2988 -1.4217  1.1767
 5673SOL     OW19972   7.795   3.711   4.383 -0.4159  0.5448 -0.0400
 5673SOL    HW119973   7.788   3.787   4.325 -0.0946 -0.5983 -1.6593
 5673SOL    HW219974   7.855   3.652   4.337 -0.6856 -0.7076  1.1581
 5674SOL     OW19975   7.943   6.800   6.985  0.1853  0.4656 -0.8675
 5674SOL    HW119976   7.965   6.775   6.895  1.0808  1.2772 -0.8922
 5674SOL    HW219977   7.848   6.810   6.985  0.3310  2.5235 -2.2928
 5675SOL     OW19978   6.717   3.894   2.052 -0.7307  0.1313  0.0470
 5675SOL    HW119979   6.675   3.812   2.028  0.7604 -0.6001 -0.2112
 5675SOL    HW219980   6.724   3.891   2.148  1.9419 -1.4969 -0.0837
 5676SOL     OW19981   5.925   6.509   2.332  0.3557  0.2056  0.1290
 5676SOL    HW119982   5.905   6.453   2.257  1.2116 -0.2304  0.2081
 5676SOL    HW219983   5.992   6.461   2.381  2.0136  1.7921 -0.4343
 5677SOL     OW19984   6.421   7.232   1.417 -0.1820  0.1884  0.1062
 5677SOL    HW119985   6.364   7.308   1.408 -1.2858 -0.6168  0.0864
 5677SOL    HW219986   6.363   7.162   1.446  0.8827 -0.5552  0.5156
 5678SOL     OW19987   3.955   1.854   7.921 -0.0303 -0.3191  0.0611
 5678SOL    HW119988   3.939   1.948   7.915  0.4619 -0.2404 -0.0654
 5678SOL    HW219989   3.878   1.819   7.967  0.1311  0.2494  0.7846
 5679SOL     OW19990   3.380   3.300   5.947  0.1868  0.7065  0.8876
 5679SOL    HW119991   3.368   3.314   6.040 -0.2014  0.8994  0.8112
 5679SOL    HW219992   3.310   3.350   5.906 -0.8714 -0.9315  0.5754
 5680SOL     OW19993   8.069   0.527   0.749  0.0177  0.0710 -0.0156
 5680SOL    HW119994   7.996   0.578   0.784  0.1484  0.2338  0.0233
 5680SOL    HW219995   8.049   0.518   0.656  0.0376  0.2714 -0.0402
 5681SOL     OW19996   7.461   7.558   7.205 -0.1134  0.3214 -0.8421
 5681SOL    HW119997   7.538   7.588   7.255 -1.3635 -0.2016  1.5197
 5681SOL    HW219998   7.401   7.633   7.207 -1.7451 -0.8769  1.9476
 5682SOL     OW19999   6.760   6.594   1.800  0.2619  0.6126 -0.1813
 5682SOL    HW120000   6.816   6.612   1.876 -1.4139 -1.3701  1.6635
 5682SOL    HW220001   6.671   6.610   1.831 -0.5828 -1.4967 -1.2526
 5683SOL     OW20002   5.826   7.758   3.502  0.3546 -0.0386  0.7743
 5683SOL    HW120003   5.737   7.792   3.492  0.7371  0.6884 -0.4113
 5683SOL    HW220004   5.816   7.663   3.498 -0.4874 -0.0242  1.9198
 5684SOL     OW20005   5.308   1.691   2.327  0.3371  0.2419  0.5637
 5684SOL    HW120006   5.277   1.781   2.324 -2.2451 -0.5442  1.1327
 5684SOL    HW220007   5.275   1.657   2.410  0.5483 -1.4673 -0.0044
 5685SOL     OW20008   0.176   4.799   1.317 -0.0045 -0.2940 -0.0764
 5685SOL    HW120009   0.173   4.803   1.412  1.2783  1.3953 -0.0631
 5685SOL    HW220010   0.254   4.747   1.298  0.5608  0.5735 -0.1793
 5686SOL     OW20011   1.766   3.044   0.799 -0.2788 -0.0062  1.1471
 5686SOL    HW120012   1.691   3.091   0.838  0.2910  1.7377  0.2466
 5686SOL    HW220013   1.741   3.030   0.708  0.6215  0.9294  0.7423
 5687SOL     OW20014   0.099   7.726   0.946 -0.6045 -0.9332 -0.5063
 5687SOL    HW120015   0.049   7.782   0.887 -0.0201 -0.3335 -0.4404
 5687SOL    HW220016   0.090   7.638   0.909 -2.1942 -0.9386 -0.1650
 5688SOL     OW20017   0.956   2.994   1.721  0.0395  0.0770 -0.1447
 5688SOL    HW120018   1.018   3.043   1.776 -0.8474  2.5343 -1.2000
 5688SOL    HW220019   0.896   2.953   1.784  0.5151  0.7825  0.7978
 5689SOL     OW20020   6.443   3.427   3.519  0.3845  0.6345 -0.0260
 5689SOL    HW120021   6.434   3.335   3.495 -0.5336  0.7037  0.0336
 5689SOL    HW220022   6.365   3.469   3.483 -0.5811  0.9031  2.2593
 5690SOL     OW20023   3.397   7.839   0.656 -0.5471  0.2079  0.2324
 5690SOL    HW120024   3.456   7.882   0.595 -1.4543 -1.0020 -1.5977
 5690SOL    HW220025   3.329   7.904   0.674 -1.1293  0.0805 -1.3550
 5691SOL     OW20026   1.490   3.159   3.409  0.1136  0.0470 -0.0246
 5691SOL    HW120027   1.510   3.227   3.473  2.7608  0.0459 -0.7396
 5691SOL    HW220028   1.469   3.082   3.461 -0.2793  0.6863  0.7912
 5692SOL     OW20029   3.258   7.767   2.782 -0.3523 -0.0254  0.0493
 5692SOL    HW120030   3.241   7.837   2.845  0.3766 -1.0524  1.4337
 5692SOL    HW220031   3.177   7.716   2.781  0.3500 -1.2872  1.8990
 5693SOL     OW20032   0.800   4.896   5.710 -0.0002  0.0451 -0.4594
 5693SOL    HW120033   0.834   4.905   5.798  0.9434  0.3817 -0.8462
 5693SOL    HW220034   0.712   4.934   5.714  0.4675  1.1029  0.0695
 5694SOL     OW20035   4.830   1.020   2.682  0.0283  0.6803 -0.3644
 5694SOL    HW120036   4.841   1.092   2.620 -0.1299  1.9834  1.0605
 5694SOL    HW220037   4.916   1.011   2.723  0.5968 -1.2382 -1.7897
 5695SOL     OW20038   6.425   3.384   5.081 -0.1535 -0.4460 -0.6973
 5695SOL    HW120039   6.500   3.343   5.038  1.9067  0.6870  1.5147
 5695SOL    HW220040   6.422   3.473   5.046 -0.8166 -0.6369 -1.1456
 5696SOL     OW20041   5.604   7.431   7.774  0.2205 -0.2634  0.0155
 5696SOL    HW120042   5.611   7.352   7.827  4.6473  0.4147  0.8194
 5696SOL    HW220043   5.589   7.399   7.685  2.5226 -2.1448  0.2197
 5697SOL     OW20044   5.622   5.034   3.285  0.6259  0.2711 -0.3923
 5697SOL    HW120045   5.583   4.998   3.206 -2.0641  0.9128  0.5281
 5697SOL    HW220046   5.581   4.986   3.357  2.7263 -0.0585  0.6874
 5698SOL     OW20047   4.395   6.952   1.945 -0.1001  0.0113  0.1468
 5698SOL    HW120048   4.446   6.879   1.911 -0.6644 -0.5434  0.4852
 5698SOL    HW220049   4.447   7.030   1.922 -0.3926 -0.3290 -1.9079
 5699SOL     OW20050   5.388   3.672   4.365 -0.4032  0.0682  0.4872
 5699SOL    HW120051   5.331   3.730   4.416 -0.3880 -0.5145  1.1712
 5699SOL    HW220052   5.428   3.614   4.430 -0.3353 -0.6415 -0.1827
 5700SOL     OW20053   3.336   1.986   1.710  0.0967 -0.4629 -0.2716
 5700SOL    HW120054   3.405   2.047   1.685 -2.1819  2.1313 -0.6397
 5700SOL    HW220055   3.351   1.969   1.803  1.2959 -0.0968 -0.3832
 5701SOL     OW20056   6.949   5.381   6.578 -0.0676  0.0673 -0.1885
 5701SOL    HW120057   7.002   5.453   6.611 -1.2212 -0.0610  2.1241
 5701SOL    HW220058   7.010   5.328   6.526  1.0663  2.0418 -0.9651
 5702SOL     OW20059   3.099   4.946   3.419 -0.4360  0.4771  0.2580
 5702SOL    HW120060   3.084   4.936   3.513  1.2215  0.2281  0.5167
 5702SOL    HW220061   3.129   5.036   3.409  1.0409 -0.0002  0.2169
 5703SOL     OW20062   6.254   5.916   2.971  0.2266  0.1643 -0.2430
 5703SOL    HW120063   6.332   5.866   2.994  1.5052  2.2296  0.2420
 5703SOL    HW220064   6.251   5.987   3.035 -1.7793  0.4582 -0.5760
 5704SOL     OW20065   4.051   8.091   7.273  0.0108 -0.3180  0.1245
 5704SOL    HW120066   4.074   8.012   7.321  1.0811 -0.9949 -1.4152
 5704SOL    HW220067   3.956   8.095   7.277 -0.1013 -1.9558 -0.1445
 5705SOL     OW20068   5.232   1.657   4.386  0.2002 -0.5721  0.0408
 5705SOL    HW120069   5.267   1.743   4.408  2.0386 -1.1610 -0.3289
 5705SOL    HW220070   5.248   1.648   4.292 -0.5666 -1.0582 -0.0487
 5706SOL     OW20071   1.091   1.795   5.967  0.0307 -0.1921 -0.1852
 5706SOL    HW120072   1.137   1.786   5.884 -0.0102  1.3521 -0.4099
 5706SOL    HW220073   1.018   1.735   5.961  0.2448 -0.3735 -1.1173
 5707SOL     OW20074   4.959   7.723   4.715  0.0017 -0.7026  0.5887
 5707SOL    HW120075   5.037   7.774   4.695 -0.4782 -0.0490  0.3445
 5707SOL    HW220076   4.981   7.676   4.796  0.8218 -0.9298  0.2398
 5708SOL     OW20077   5.859   3.259   4.711 -0.2979  0.6202  0.2227
 5708SOL    HW120078   5.783   3.207   4.686  0.3458  0.0018 -0.5066
 5708SOL    HW220079   5.823   3.342   4.740 -1.3267 -0.0830  1.0314
 5709SOL     OW20080   1.103   4.683   7.299  1.0819 -0.1188 -0.2905
 5709SOL    HW120081   1.039   4.718   7.361 -0.4079 -1.6443 -0.9128
 5709SOL    HW220082   1.126   4.597   7.334 -0.4548 -1.3911 -2.2575
 5710SOL     OW20083   4.449   6.557   1.370 -0.2548 -0.0398  0.1569
 5710SOL    HW120084   4.540   6.586   1.377 -0.3120 -0.0834  1.2490
 5710SOL    HW220085   4.401   6.613   1.431 -1.1410  0.6522 -1.1373
 5711SOL     OW20086   1.822   6.862   4.976  0.1694  0.2478 -0.2668
 5711SOL    HW120087   1.909   6.874   4.938  0.6757  2.4538  1.4382
 5711SOL    HW220088   1.828   6.780   5.025  0.0352 -1.6972 -3.2222
 5712SOL     OW20089   6.539   8.089   2.614  0.3268  0.3745 -0.0957
 5712SOL    HW120090   6.573   8.000   2.610  0.3583  0.3394  0.7695
 5712SOL    HW220091   6.510   8.100   2.705 -3.4307 -0.1080 -1.0571
 5713SOL     OW20092   5.539   5.195   4.205 -0.2422  0.0659 -0.0589
 5713SOL    HW120093   5.495   5.165   4.284  0.1418 -1.1189 -0.2845
 5713SOL    HW220094   5.567   5.115   4.161  2.0957  0.7317  0.0513
 5714SOL     OW20095   0.559   0.940   5.989  0.1342  0.3856 -0.4167
 5714SOL    HW120096   0.598   0.992   5.918  1.2079 -0.0560 -0.1652
 5714SOL    HW220097   0.466   0.938   5.968  0.2612  1.3128 -1.1390
 5715SOL     OW20098   1.822   0.590   1.217  0.1064  0.8543 -0.1352
 5715SOL    HW120099   1.900   0.642   1.235  0.6764  0.1252 -0.4230
 5715SOL    HW220100   1.854   0.516   1.166 -0.8120  0.6498 -0.4373
 5716SOL     OW20101   4.694   2.361   2.746  0.0058  0.2150  0.6104
 5716SOL    HW120102   4.717   2.448   2.778 -0.6902  1.3807 -1.8352
 5716SOL    HW220103   4.599   2.357   2.752 -0.3851  1.2069 -2.6630
 5717SOL     OW20104   1.746   3.963   6.102 -0.1435 -0.0170 -0.3894
 5717SOL    HW120105   1.782   4.048   6.126 -0.6482  0.0305  0.2298
 5717SOL    HW220106   1.654   3.967   6.130  0.6703 -2.0872  3.2344
 5718SOL     OW20107   1.207   7.203   6.845 -0.1954  0.0841 -0.1530
 5718SOL    HW120108   1.226   7.111   6.863 -0.4087 -0.1569 -1.0905
 5718SOL    HW220109   1.111   7.210   6.853 -0.0894  0.4907  1.0199
 5719SOL     OW20110   7.972   4.759   6.147  0.0122 -0.4425  0.5244
 5719SOL    HW120111   8.052   4.795   6.185  1.2554 -1.6250 -0.8253
 5719SOL    HW220112   7.926   4.720   6.221  1.4744 -1.1000  1.1450
 5720SOL     OW20113   0.582   3.530   3.873  0.3102  0.1663 -0.2620
 5720SOL    HW120114   0.653   3.573   3.920  0.4436  0.1617 -0.4563
 5720SOL    HW220115   0.625   3.488   3.798 -0.0005  0.8491 -0.8405
 5721SOL     OW20116   2.416   3.540   3.538  0.2187 -0.1938 -0.0044
 5721SOL    HW120117   2.348   3.607   3.529  0.5809 -0.0574 -2.6895
 5721SOL    HW220118   2.367   3.457   3.536 -0.0777 -0.0609  1.2590
 5722SOL     OW20119   7.273   2.308   4.314  0.0342  0.5501 -0.0171
 5722SOL    HW120120   7.259   2.234   4.373 -0.0496 -0.3828 -1.1876
 5722SOL    HW220121   7.186   2.334   4.286  0.0244  1.4394  0.7739
 5723SOL     OW20122   3.323   3.044   4.809  0.0620 -0.8730  0.0689
 5723SOL    HW120123   3.402   3.026   4.861  0.2308 -0.6670 -0.1121
 5723SOL    HW220124   3.333   3.135   4.782 -0.4651 -0.7010  0.4335
 5724SOL     OW20125   3.679   1.009   2.445  0.1295  0.3883 -0.0059
 5724SOL    HW120126   3.693   0.917   2.422 -2.4241  0.1427 -0.9951
 5724SOL    HW220127   3.766   1.042   2.465  1.3130 -1.9071 -0.8932
 5725SOL     OW20128   3.557   2.108   5.206 -0.0039  0.2611 -0.7939
 5725SOL    HW120129   3.524   2.186   5.162 -1.1699  1.4726  1.9639
 5725SOL    HW220130   3.652   2.111   5.193 -0.0101  2.2579 -0.6543
 5726SOL     OW20131   2.816   6.135   0.816 -0.0494  0.0026 -0.5163
 5726SOL    HW120132   2.731   6.117   0.856 -1.7883 -0.4805 -4.0664
 5726SOL    HW220133   2.873   6.066   0.849 -1.3332 -0.3580  1.0558
 5727SOL     OW20134   7.549   0.717   0.057 -0.3127 -0.3818 -0.1016
 5727SOL    HW120135   7.597   0.787   0.013  2.6945 -1.8193  0.6820
 5727SOL    HW220136   7.527   0.655  -0.012  0.8005 -0.6968 -0.1794
 5728SOL     OW20137   1.275   7.696   2.290  0.6141  0.1520 -0.1284
 5728SOL    HW120138   1.211   7.654   2.348  0.9714 -0.2486 -0.0203
 5728SOL    HW220139   1.344   7.631   2.280  0.2459 -0.0479 -1.5392
 5729SOL     OW20140   3.837   7.910   3.917 -0.1076 -0.9802  0.3114
 5729SOL    HW120141   3.742   7.916   3.903  0.1271 -1.1382 -1.5514
 5729SOL    HW220142   3.866   8.001   3.924 -0.2719 -0.8869 -0.1605
 5730SOL     OW20143   2.286   7.236   2.472 -0.6444 -0.3167  0.6554
 5730SOL    HW120144   2.213   7.218   2.532  0.0042 -1.5337  1.0920
 5730SOL    HW220145   2.244   7.280   2.398 -1.7431 -0.5120  1.1281
 5731SOL     OW20146   6.567   2.966   5.270 -0.0688  0.4997 -0.1836
 5731SOL    HW120147   6.550   3.060   5.271 -0.9199  0.3570  0.4648
 5731SOL    HW220148   6.556   2.939   5.361  0.8952 -0.1089 -0.2399
 5732SOL     OW20149   4.355   0.787   0.118 -0.4681  0.2665  0.7364
 5732SOL    HW120150   4.427   0.830   0.163  0.2288 -0.2613  0.1464
 5732SOL    HW220151   4.296   0.759   0.188 -0.3698  1.1667  1.1902
 5733SOL     OW20152   4.381   7.785   3.639 -1.1518 -0.0731 -0.7667
 5733SOL    HW120153   4.412   7.824   3.557 -0.0521  0.0472 -0.3012
 5733SOL    HW220154   4.315   7.847   3.671 -0.2139  0.8680 -0.5912
 5734SOL     OW20155   2.299   1.073   7.993  0.1021 -0.5066 -0.3103
 5734SOL    HW120156   2.256   0.996   7.956 -1.0003 -0.1688  0.2212
 5734SOL    HW220157   2.238   1.105   8.060  0.8614  0.4189 -0.0309
 5735SOL     OW20158   2.441   5.400   4.377  0.3656 -0.5494 -0.1929
 5735SOL    HW120159   2.385   5.338   4.423  1.0107 -1.0340 -0.0461
 5735SOL    HW220160   2.512   5.418   4.437  0.7038 -0.4326 -0.6222
 5736SOL     OW20161   4.910   5.728   5.846  0.1047 -0.4302 -0.0457
 5736SOL    HW120162   4.984   5.748   5.902 -0.7483  1.6082  0.4530
 5736SOL    HW220163   4.836   5.775   5.885 -0.9823 -0.6685 -1.6914
 5737SOL     OW20164   0.023   0.513   2.879  0.4896 -0.1414 -0.0248
 5737SOL    HW120165   0.043   0.573   2.808 -0.2306 -0.4899 -0.5295
 5737SOL    HW220166   0.076   0.435   2.862 -1.3915 -1.1791 -1.5185
 5738SOL     OW20167   1.031   1.559   3.300 -0.3406  0.3351  0.4490
 5738SOL    HW120168   1.041   1.641   3.347  0.7985  0.3675  0.1875
 5738SOL    HW220169   1.115   1.515   3.311 -0.2559  0.0745 -1.0086
 5739SOL     OW20170   2.600   4.771   6.826  0.5401  0.1860  0.0844
 5739SOL    HW120171   2.694   4.754   6.830  0.4872 -0.2555 -0.4307
 5739SOL    HW220172   2.560   4.700   6.878  0.4942  0.4470  0.4127
 5740SOL     OW20173   3.961   4.245   7.040  0.7524 -0.2306  0.4857
 5740SOL    HW120174   4.034   4.255   7.101 -0.6801  0.0776  2.2415
 5740SOL    HW220175   3.931   4.335   7.025 -0.4845 -0.4798  1.3697
 5741SOL     OW20176   0.259   3.618   3.726 -0.4076  0.2034 -0.3060
 5741SOL    HW120177   0.196   3.651   3.661 -0.7663  1.7705  0.7740
 5741SOL    HW220178   0.344   3.648   3.695 -0.7729  2.9613  0.9749
 5742SOL     OW20179   3.093   5.519   6.685  0.1955  0.2054  0.0740
 5742SOL    HW120180   3.073   5.583   6.617  1.2223 -1.4445 -1.8787
 5742SOL    HW220181   3.044   5.440   6.660  1.2407 -0.7024  0.7616
 5743SOL     OW20182   3.996   1.960   4.490 -0.1954 -0.0712  0.6961
 5743SOL    HW120183   4.073   1.974   4.545  0.2844 -3.3504  1.0685
 5743SOL    HW220184   3.943   1.896   4.538 -0.7014 -1.6000 -1.6984
 5744SOL     OW20185   1.557   7.548   2.573 -0.5126 -0.1129 -0.4359
 5744SOL    HW120186   1.591   7.637   2.568 -1.3294  0.1889 -0.7890
 5744SOL    HW220187   1.539   7.523   2.482  1.0126 -1.1738 -0.4878
 5745SOL     OW20188   0.721   5.380   5.661 -0.3883  0.9445  0.0842
 5745SOL    HW120189   0.785   5.411   5.598 -1.5895  0.6721 -1.3157
 5745SOL    HW220190   0.771   5.370   5.743  1.5917 -0.2754 -1.1852
 5746SOL     OW20191   3.591   6.500   1.281 -0.5423  0.1245 -0.1865
 5746SOL    HW120192   3.626   6.588   1.297 -0.1640 -0.2984  1.5495
 5746SOL    HW220193   3.541   6.509   1.200 -0.6701  1.9822  0.0354
 5747SOL     OW20194   1.922   2.249   1.384 -0.1774 -0.4645  0.6239
 5747SOL    HW120195   1.964   2.334   1.379  0.3166 -0.7754 -1.0457
 5747SOL    HW220196   1.995   2.186   1.380 -0.5603 -0.9735  1.4501
 5748SOL     OW20197   7.346   4.837   3.351  0.1629 -0.2695 -0.3666
 5748SOL    HW120198   7.395   4.857   3.430  0.3461  0.2888 -0.6128
 5748SOL    HW220199   7.294   4.916   3.334 -1.8373 -1.2897  0.6168
 5749SOL     OW20200   6.122   0.466   7.871 -0.6935 -0.0167 -0.1714
 5749SOL    HW120201   6.127   0.385   7.820 -0.5675 -0.4582  0.5365
 5749SOL    HW220202   6.034   0.501   7.852 -1.0493 -0.7282  0.1268
 5750SOL     OW20203   5.631   0.730   7.312  0.0798 -0.1042  0.1499
 5750SOL    HW120204   5.634   0.788   7.388  1.7691 -0.1862  0.1849
 5750SOL    HW220205   5.650   0.787   7.238  0.9636 -0.4510  0.0973
 5751SOL     OW20206   3.475   4.327   3.516  0.7723 -0.0748  0.0634
 5751SOL    HW120207   3.507   4.412   3.547  0.4772  0.0497  0.0279
 5751SOL    HW220208   3.534   4.305   3.443  0.2973  0.5253 -0.5155
 5752SOL     OW20209   1.894   0.152   2.320 -0.4546 -0.2981 -0.1595
 5752SOL    HW120210   1.867   0.234   2.279  1.4023 -0.0687 -1.0169
 5752SOL    HW220211   1.820   0.127   2.375 -2.6957 -0.0757 -2.8383
 5753SOL     OW20212   5.892   2.286   3.352  0.3079 -0.4371  0.2301
 5753SOL    HW120213   5.847   2.230   3.416  1.4266  1.1679  2.5518
 5753SOL    HW220214   5.968   2.320   3.399  1.3965  0.5784 -2.1032
 5754SOL     OW20215   4.887   0.676   2.126 -0.2882  0.6783 -0.4079
 5754SOL    HW120216   4.982   0.686   2.125 -0.3353  1.4378 -2.3797
 5754SOL    HW220217   4.870   0.600   2.070 -0.8580  0.9424 -0.6084
 5755SOL     OW20218   7.051   3.909   7.882  0.4499 -0.0156  0.5253
 5755SOL    HW120219   7.113   3.887   7.952 -0.3943 -0.9659  0.9909
 5755SOL    HW220220   6.965   3.902   7.923 -0.0696 -0.6601 -0.6301
 5756SOL     OW20221   7.449   1.802   2.107 -0.1593 -0.2127  0.1531
 5756SOL    HW120222   7.528   1.795   2.052  0.5332 -0.5892  1.1706
 5756SOL    HW220223   7.400   1.722   2.089 -0.1191 -0.1676 -0.1779
 5757SOL     OW20224   2.202   6.631   3.865 -0.3603  0.0934  0.0046
 5757SOL    HW120225   2.212   6.696   3.795 -1.2463 -0.9099 -1.1022
 5757SOL    HW220226   2.271   6.567   3.848 -0.7003 -0.2533 -0.0705
 5758SOL     OW20227   1.503   7.621   6.021  0.4455 -0.0271 -0.7716
 5758SOL    HW120228   1.522   7.673   5.944  1.0189 -1.3755 -1.5823
 5758SOL    HW220229   1.456   7.680   6.080  1.6288  1.5697 -1.3695
 5759SOL     OW20230   3.894   5.318   5.442  0.1655 -0.2468 -0.3425
 5759SOL    HW120231   3.939   5.366   5.512  0.7244 -0.5592 -0.4824
 5759SOL    HW220232   3.809   5.295   5.479 -0.0927  0.7966 -0.2493
 5760SOL     OW20233   6.880   1.173   3.994  0.5987  0.2787  0.3079
 5760SOL    HW120234   6.844   1.090   3.961  1.4388  0.2307 -0.5068
 5760SOL    HW220235   6.950   1.195   3.934  3.1154 -0.4728  2.7386
 5761SOL     OW20236   6.101   5.286   1.826  0.1336 -0.3394  0.0963
 5761SOL    HW120237   6.017   5.331   1.834 -0.3285 -0.7274 -1.9525
 5761SOL    HW220238   6.167   5.352   1.848 -0.5999  0.8868 -1.2230
 5762SOL     OW20239   3.081   2.108   5.866 -0.0618  0.1697 -0.4061
 5762SOL    HW120240   2.992   2.075   5.879  0.1101  0.1530  0.8972
 5762SOL    HW220241   3.072   2.175   5.798 -0.8300 -0.7616 -1.2668
 5763SOL     OW20242   7.443   3.379   5.688 -0.3896 -0.1613 -0.2884
 5763SOL    HW120243   7.402   3.293   5.682  0.7138 -0.7644  0.5788
 5763SOL    HW220244   7.485   3.380   5.773 -0.5547  1.3330 -0.1961
 5764SOL     OW20245   1.568   0.467   5.758  0.1131 -0.9856  0.1749
 5764SOL    HW120246   1.651   0.484   5.713 -1.0403 -0.8399 -2.0506
 5764SOL    HW220247   1.564   0.534   5.826  0.5596  0.8831 -1.5169
 5765SOL     OW20248   0.735   0.490   2.306 -0.2065  0.1050  0.1154
 5765SOL    HW120249   0.718   0.583   2.317 -1.9104 -0.2427  0.7401
 5765SOL    HW220250   0.650   0.453   2.283  0.6696 -1.1386 -1.3445
 5766SOL     OW20251   1.901   8.052   7.149  0.4989 -0.3678  0.5003
 5766SOL    HW120252   1.838   7.980   7.146  0.5995 -0.4330 -0.7840
 5766SOL    HW220253   1.913   8.076   7.057  0.8451  0.9602  0.8817
 5767SOL     OW20254   3.734   2.935   0.996  0.5067  0.1094  0.5112
 5767SOL    HW120255   3.721   2.850   1.038  0.1174 -0.1095 -0.0462
 5767SOL    HW220256   3.788   2.984   1.058 -1.3140  0.3530  2.0096
 5768SOL     OW20257   0.628   2.537   7.497 -0.4829  0.9821  0.0910
 5768SOL    HW120258   0.544   2.546   7.542 -1.0631  1.3196 -1.0188
 5768SOL    HW220259   0.673   2.620   7.512  0.0445  0.4824  1.4163
 5769SOL     OW20260   3.822   7.363   3.320  0.1067 -0.2460  0.6099
 5769SOL    HW120261   3.855   7.329   3.237 -0.9240 -0.5058  0.2882
 5769SOL    HW220262   3.893   7.349   3.382  1.6938  1.7635 -0.6137
 5770SOL     OW20263   7.728   4.866   8.115 -0.5656  0.2376  0.1424
 5770SOL    HW120264   7.748   4.939   8.174  0.6850  0.2867 -0.3200
 5770SOL    HW220265   7.639   4.884   8.083 -0.5989  1.0871  0.6967
 5771SOL     OW20266   6.093   5.219   1.573 -0.3875 -0.2375  0.1384
 5771SOL    HW120267   6.069   5.235   1.665  0.1596  0.4904  0.1653
 5771SOL    HW220268   6.187   5.200   1.576 -0.4524 -0.6039 -0.2263
 5772SOL     OW20269   5.205   0.109   1.305 -0.5280  0.0838  0.0797
 5772SOL    HW120270   5.184   0.184   1.361 -1.2307 -1.0267  1.3732
 5772SOL    HW220271   5.240   0.043   1.366  2.1223  0.0915 -1.3191
 5773SOL     OW20272   2.154   6.749   2.703 -0.1980 -0.6831  0.0979
 5773SOL    HW120273   2.168   6.713   2.790 -0.7621  0.1691  0.5555
 5773SOL    HW220274   2.077   6.806   2.712  0.9770  1.0879 -0.4297
 5774SOL     OW20275   3.232   6.834   5.206  0.0274  0.2574 -0.1211
 5774SOL    HW120276   3.242   6.766   5.140 -0.7117  1.6755 -1.7794
 5774SOL    HW220277   3.300   6.899   5.184  0.4062  0.3155  1.1294
 5775SOL     OW20278   7.064   7.865   2.020  0.1808  0.1243  0.2052
 5775SOL    HW120279   7.070   7.943   2.075 -0.3486  1.5314 -1.6398
 5775SOL    HW220280   7.151   7.856   1.982  0.0222  0.2732 -0.1912
 5776SOL     OW20281   3.602   7.184   4.528 -0.6861  0.8034  0.4445
 5776SOL    HW120282   3.555   7.100   4.529  0.4824  0.1328 -0.1928
 5776SOL    HW220283   3.606   7.209   4.436  0.7426  0.5389  0.4207
 5777SOL     OW20284   5.910   5.947   7.307 -0.6566 -1.1720 -0.2205
 5777SOL    HW120285   5.904   6.041   7.291  1.3475 -1.4269 -3.2963
 5777SOL    HW220286   5.954   5.940   7.392  0.8129  0.7369 -0.7523
 5778SOL     OW20287   3.933   0.668   4.269 -0.1367 -0.1364  0.3188
 5778SOL    HW120288   3.920   0.700   4.358  0.2846 -1.1310  0.7610
 5778SOL    HW220289   3.964   0.578   4.281 -0.7348 -0.5124 -0.8509
 5779SOL     OW20290   7.047   1.491   6.412  0.1531 -0.0282 -0.2734
 5779SOL    HW120291   7.012   1.578   6.393  0.1089 -0.2572 -1.2885
 5779SOL    HW220292   6.985   1.431   6.370 -0.5338 -0.6163  1.5000
 5780SOL     OW20293   6.014   6.223   2.917 -0.5356  0.6118  0.1838
 5780SOL    HW120294   6.010   6.132   2.889 -0.3814  0.5363  0.4061
 5780SOL    HW220295   6.096   6.256   2.880 -0.9725  0.8922 -0.5779
 5781SOL     OW20296   6.250   1.100   6.074 -0.0671  0.0751 -0.2985
 5781SOL    HW120297   6.211   1.015   6.052  2.0149 -1.1172  0.3568
 5781SOL    HW220298   6.247   1.150   5.992 -2.9275  0.1261 -0.2822
 5782SOL     OW20299   2.380   0.941   1.500  0.0902 -0.2197 -0.3247
 5782SOL    HW120300   2.427   0.994   1.435 -2.9802  1.7631 -1.0825
 5782SOL    HW220301   2.358   0.861   1.452  0.2680  0.0268 -0.8314
 5783SOL     OW20302   3.094   4.914   3.987 -0.1409 -0.3029 -0.1795
 5783SOL    HW120303   3.085   5.008   3.972  0.7971 -0.3505 -1.1841
 5783SOL    HW220304   3.188   4.902   4.003 -0.3017 -1.0275  0.2659
 5784SOL     OW20305   0.166   5.005   5.112  0.3173  0.6465  0.1443
 5784SOL    HW120306   0.172   5.035   5.202 -1.2505  2.4579 -0.2729
 5784SOL    HW220307   0.218   4.925   5.109  0.0275  0.2781  2.7513
 5785SOL     OW20308   1.518   0.964   4.500 -0.0687  0.3406 -0.4471
 5785SOL    HW120309   1.556   1.052   4.498  1.0280  0.0195  1.8905
 5785SOL    HW220310   1.495   0.945   4.410 -0.8179  3.2138 -0.9536
 5786SOL     OW20311   4.293   1.717   2.592 -0.2343 -0.0107  0.4423
 5786SOL    HW120312   4.384   1.747   2.599 -0.0179 -0.8639  1.7951
 5786SOL    HW220313   4.253   1.774   2.526  1.1266  0.7525  0.2454
 5787SOL     OW20314   7.659   1.377   4.523 -0.1299 -0.2461 -0.0941
 5787SOL    HW120315   7.714   1.300   4.506 -0.1362 -0.6790  1.5844
 5787SOL    HW220316   7.588   1.343   4.578 -0.4989  0.8382  0.1179
 5788SOL     OW20317   3.077   3.912   4.087  0.5599 -0.3368  0.3247
 5788SOL    HW120318   3.105   3.821   4.082  2.2213  0.1624 -0.0451
 5788SOL    HW220319   3.087   3.946   3.998 -4.1280 -0.8293 -0.6820
 5789SOL     OW20320   2.923   7.284   3.249  0.1846 -0.1106  0.1489
 5789SOL    HW120321   2.874   7.263   3.329 -0.3249 -1.1703 -0.4194
 5789SOL    HW220322   3.005   7.321   3.281  0.5912 -1.7907  1.2388
 5790SOL     OW20323   1.450   8.030   2.511 -0.1541  0.0814 -0.7514
 5790SOL    HW120324   1.508   8.079   2.570 -0.7415  0.8943 -0.8389
 5790SOL    HW220325   1.367   8.078   2.513 -0.9042 -1.1909 -0.4686
 5791SOL     OW20326   2.579   3.148   6.540  0.2221  0.2142  0.4459
 5791SOL    HW120327   2.552   3.141   6.449 -0.4173  0.3304  0.6250
 5791SOL    HW220328   2.497   3.154   6.589  0.4959 -1.3851  1.1598
 5792SOL     OW20329   5.337   7.490   0.518  0.0192 -0.0153 -0.2613
 5792SOL    HW120330   5.278   7.557   0.484  0.4632 -0.0270 -1.0915
 5792SOL    HW220331   5.412   7.539   0.552  0.0911 -0.0589 -0.3562
 5793SOL     OW20332   7.171   7.644   6.245  0.0142  0.3351 -0.0719
 5793SOL    HW120333   7.242   7.695   6.285  2.0547 -0.8130 -1.9721
 5793SOL    HW220334   7.096   7.703   6.243  0.4909  1.2262  3.1099
 5794SOL     OW20335   3.881   6.440   7.228 -0.3234  0.2709  0.1971
 5794SOL    HW120336   3.863   6.346   7.220 -0.1278  0.2743 -0.3501
 5794SOL    HW220337   3.961   6.444   7.279  0.0785  0.1015 -0.4061
 5795SOL     OW20338   5.980   5.502   2.455 -0.0519  0.2270  0.4766
 5795SOL    HW120339   6.013   5.468   2.371  1.2254 -0.7205  1.3187
 5795SOL    HW220340   5.955   5.592   2.436 -0.8138 -0.2987 -1.1744
 5796SOL     OW20341   6.506   3.095   6.686  0.3149 -0.1707 -0.1739
 5796SOL    HW120342   6.601   3.086   6.687  0.3491  0.1515  1.1970
 5796SOL    HW220343   6.488   3.172   6.740 -0.6766  0.4773 -1.3676
 5797SOL     OW20344   6.582   7.589   2.219 -0.2443  0.0437 -0.0406
 5797SOL    HW120345   6.642   7.529   2.262  0.6070  0.3296 -0.7977
 5797SOL    HW220346   6.597   7.673   2.263  1.1690  0.5120 -1.3432
 5798SOL     OW20347   0.106   3.375   3.579  0.3674  0.6573  0.5981
 5798SOL    HW120348   0.080   3.417   3.497 -2.0836  0.5166  1.2172
 5798SOL    HW220349   0.201   3.364   3.572  0.3890  1.7931 -1.6585
 5799SOL     OW20350   7.470   0.188   6.084 -0.2764  0.1483  0.7771
 5799SOL    HW120351   7.408   0.206   6.013 -0.9588 -0.1742  1.2812
 5799SOL    HW220352   7.556   0.207   6.046 -0.7593  1.9046  0.4702
 5800SOL     OW20353   2.246   3.765   3.740  0.4413  0.0851  0.1654
 5800SOL    HW120354   2.270   3.847   3.697 -2.4630  1.2951  0.6495
 5800SOL    HW220355   2.200   3.715   3.673 -1.5237  0.7283  0.9714
 5801SOL     OW20356   3.800   7.461   8.073  0.1721 -0.1645  0.3246
 5801SOL    HW120357   3.781   7.376   8.034  1.3090  0.4746 -1.7611
 5801SOL    HW220358   3.725   7.478   8.131 -1.6453 -1.1671 -1.5962
 5802SOL     OW20359   1.599   3.633   7.965 -0.4859 -0.3617 -0.2247
 5802SOL    HW120360   1.518   3.681   7.983 -0.4225 -0.6408  0.9048
 5802SOL    HW220361   1.579   3.580   7.888 -1.9066 -1.5771  0.9245
 5803SOL     OW20362   1.851   1.751   1.313  0.0262 -0.0927  0.2211
 5803SOL    HW120363   1.913   1.681   1.294  0.1874 -0.1813  1.0383
 5803SOL    HW220364   1.765   1.711   1.298  0.1549 -0.0170 -0.7571
 5804SOL     OW20365   7.697   4.037   4.060  0.5838 -0.8157  0.2222
 5804SOL    HW120366   7.640   4.040   4.137  0.5950  0.2547  0.2002
 5804SOL    HW220367   7.762   4.105   4.076  0.0073  0.0983 -1.1906
 5805SOL     OW20368   3.942   2.665   2.282 -0.0953 -0.3860  0.2092
 5805SOL    HW120369   3.938   2.723   2.358  2.2351  1.7127 -1.1577
 5805SOL    HW220370   4.034   2.639   2.275 -0.1246 -0.1032 -2.1686
 5806SOL     OW20371   4.187   3.786   1.281 -0.1213 -0.3678  0.3107
 5806SOL    HW120372   4.168   3.878   1.298  0.5443  0.1094 -1.3041
 5806SOL    HW220373   4.271   3.787   1.234  0.7723 -1.9312  1.7536
 5807SOL     OW20374   0.701   8.000   7.813  0.2973 -0.4844  0.4917
 5807SOL    HW120375   0.694   7.932   7.747 -2.1403 -0.0956  0.2633
 5807SOL    HW220376   0.774   7.972   7.869 -0.8794 -3.5030  0.6855
 5808SOL     OW20377   3.707   3.248   1.943 -0.1193  0.3601 -0.0443
 5808SOL    HW120378   3.767   3.320   1.956  1.7850 -1.3081  0.9863
 5808SOL    HW220379   3.757   3.184   1.892 -1.9691 -0.0138 -1.5235
 5809SOL     OW20380   1.059   7.033   7.926  0.7649  0.0648 -0.1240
 5809SOL    HW120381   1.065   7.091   8.002  1.8234  0.9429 -0.8356
 5809SOL    HW220382   0.970   7.045   7.893  0.2618 -0.3950  1.0047
 5810SOL     OW20383   1.962   2.427   5.327  0.6129  0.3529 -0.2709
 5810SOL    HW120384   1.961   2.467   5.240  1.5693 -0.5638 -0.7113
 5810SOL    HW220385   2.050   2.393   5.337  0.5175  0.4494  1.0756
 5811SOL     OW20386   5.982   5.420   0.574 -0.1241 -0.1582  0.6104
 5811SOL    HW120387   6.066   5.466   0.584 -0.2926  0.2252  0.2712
 5811SOL    HW220388   5.916   5.487   0.594 -0.4510  0.3064 -1.8009
 5812SOL     OW20389   7.203   4.640   2.294 -0.5738  0.2416  0.4541
 5812SOL    HW120390   7.190   4.684   2.210 -0.2717  0.3005  0.4365
 5812SOL    HW220391   7.289   4.598   2.286 -1.4202 -1.4558 -0.0104
 5813SOL     OW20392   7.886   2.619   5.249  0.4082  0.1953  0.3120
 5813SOL    HW120393   7.870   2.525   5.241  1.4680 -0.2353  2.5680
 5813SOL    HW220394   7.816   2.652   5.305  0.4239  0.6274  0.0866
 5814SOL     OW20395   4.619   3.416   2.039 -0.2159 -0.3168 -0.0433
 5814SOL    HW120396   4.625   3.503   2.078 -3.7316 -0.7951  2.0345
 5814SOL    HW220397   4.594   3.359   2.112  0.3827 -2.7905 -1.6477
 5815SOL     OW20398   2.163   4.369   7.504 -0.3572 -0.4166 -0.2251
 5815SOL    HW120399   2.189   4.287   7.544 -0.2455 -0.2575  0.0303
 5815SOL    HW220400   2.164   4.433   7.575 -0.9820 -0.3040 -0.3025
 5816SOL     OW20401   1.148   0.536   1.412  0.0720  0.3045 -0.8460
 5816SOL    HW120402   1.117   0.626   1.406  1.2371  0.8019  0.0406
 5816SOL    HW220403   1.236   0.539   1.374  0.4591 -0.2631 -0.0246
 5817SOL     OW20404   0.858   0.926   0.967  0.8369  0.0873 -0.5301
 5817SOL    HW120405   0.809   0.851   0.932  1.0568 -0.0792 -0.4792
 5817SOL    HW220406   0.903   0.963   0.890  0.7463  0.1536 -0.5512
 5818SOL     OW20407   0.183   7.322   5.314  0.2973  0.1706  0.0771
 5818SOL    HW120408   0.158   7.414   5.310  2.8376  0.9536  0.1294
 5818SOL    HW220409   0.194   7.296   5.223  0.6344  0.2732  0.0845
 5819SOL     OW20410   6.495   6.422   2.049 -0.5364 -0.7872  0.2381
 5819SOL    HW120411   6.469   6.353   2.110  0.6645 -1.3218  0.1549
 5819SOL    HW220412   6.463   6.392   1.964 -2.4013  0.0559  0.5734
 5820SOL     OW20413   5.866   2.230   4.572  0.2731  0.4802 -0.3775
 5820SOL    HW120414   5.891   2.153   4.520  0.5896  0.0387  0.4071
 5820SOL    HW220415   5.936   2.238   4.637 -0.9864 -0.0539  1.1069
 5821SOL     OW20416   1.274   8.012   3.439  0.5158 -0.5312 -0.1592
 5821SOL    HW120417   1.292   8.105   3.455  1.0609 -0.7572  0.5838
 5821SOL    HW220418   1.232   8.010   3.353 -0.4237  0.5021  0.2486
 5822SOL     OW20419   2.150   5.891   0.995  0.0817 -0.1948 -0.1181
 5822SOL    HW120420   2.087   5.952   0.956  0.4012 -0.6066 -1.3359
 5822SOL    HW220421   2.174   5.931   1.078 -1.2339  0.3328  0.0334
 5823SOL     OW20422   7.787   2.122   4.961  0.1547  0.0428  0.4219
 5823SOL    HW120423   7.798   2.179   4.885  1.4802 -1.6321 -0.7152
 5823SOL    HW220424   7.714   2.064   4.937 -0.5117  0.5531  1.1466
 5824SOL     OW20425   3.953   2.608   2.786  0.2456  0.4024  0.1537
 5824SOL    HW120426   4.019   2.665   2.827  1.0700 -0.3233 -0.1307
 5824SOL    HW220427   3.890   2.669   2.747  2.5741  1.2699 -2.6144
 5825SOL     OW20428   5.269   2.144   4.081 -0.2109  0.0010  0.5623
 5825SOL    HW120429   5.287   2.056   4.047  0.0297  0.0469  0.5750
 5825SOL    HW220430   5.341   2.161   4.142 -0.4494  0.0613  0.8317
 5826SOL     OW20431   0.943   0.967   3.179  0.1799  0.5149 -0.3576
 5826SOL    HW120432   0.959   1.057   3.153  2.0079  0.0567 -1.0250
 5826SOL    HW220433   1.031   0.928   3.186 -0.5557 -1.2500 -0.2533
 5827SOL     OW20434   5.634   5.826   7.724  0.4458  0.3653  0.1935
 5827SOL    HW120435   5.634   5.921   7.728  1.1311  0.3285  1.2895
 5827SOL    HW220436   5.725   5.801   7.740  0.5661 -0.4425 -1.4841
 5828SOL     OW20437   2.696   3.885   4.253  0.3111 -0.1801  0.1058
 5828SOL    HW120438   2.743   3.966   4.239  1.1536 -0.6496  0.1410
 5828SOL    HW220439   2.763   3.822   4.278 -0.2753 -0.9799 -0.2656
 5829SOL     OW20440   7.438   2.043   2.529 -0.1656  0.3038  0.4505
 5829SOL    HW120441   7.446   1.949   2.545 -0.7800 -0.1042 -1.3743
 5829SOL    HW220442   7.384   2.075   2.602 -2.0297 -1.2199 -0.1506
 5830SOL     OW20443   1.976   4.498   5.813 -0.0391 -0.8013  0.4100
 5830SOL    HW120444   1.924   4.418   5.799  0.2606 -0.9723  0.2721
 5830SOL    HW220445   1.973   4.511   5.908  0.6993 -1.5139  0.5404
 5831SOL     OW20446   6.644   2.262   4.271  0.2817 -0.2721  0.3304
 5831SOL    HW120447   6.623   2.181   4.224 -0.3540  0.4396 -0.6453
 5831SOL    HW220448   6.697   2.233   4.345 -0.1655 -1.6117  0.1573
 5832SOL     OW20449   6.847   2.835   4.944  0.0292  0.2153 -0.0442
 5832SOL    HW120450   6.794   2.869   5.017  0.7326  1.8611 -0.2497
 5832SOL    HW220451   6.886   2.755   4.978 -1.3419 -0.1970  0.6447
 5833SOL     OW20452   4.161   5.002   2.170 -0.1933 -0.0891 -0.1194
 5833SOL    HW120453   4.092   5.065   2.148  0.6181  0.3125 -1.6662
 5833SOL    HW220454   4.159   4.997   2.266 -1.8454  0.4864 -0.0791
 5834SOL     OW20455   0.055   3.873   0.275  0.0815  0.3926 -0.5609
 5834SOL    HW120456   0.053   3.814   0.350  0.4886  0.5922 -0.3928
 5834SOL    HW220457   0.121   3.939   0.297  1.1928 -0.3070 -1.6769
 5835SOL     OW20458   3.819   2.859   4.065 -0.0534 -0.2421  0.2527
 5835SOL    HW120459   3.726   2.838   4.061 -0.2198  0.5081  0.0252
 5835SOL    HW220460   3.823   2.941   4.113  0.7912 -1.9930  3.4402
 5836SOL     OW20461   5.072   7.119   2.243  0.4117  0.7870  0.1950
 5836SOL    HW120462   4.987   7.075   2.236  1.0787 -0.5248 -0.0011
 5836SOL    HW220463   5.125   7.060   2.295  1.1827  1.6461  0.4058
 5837SOL     OW20464   3.532   5.118   6.795 -0.4183 -0.6840 -0.9359
 5837SOL    HW120465   3.576   5.037   6.820  0.1787 -0.0943 -0.0334
 5837SOL    HW220466   3.441   5.105   6.818 -0.6597 -1.7212 -2.3426
 5838SOL     OW20467   3.930   3.289   7.604 -0.2668  0.3763 -0.4096
 5838SOL    HW120468   3.986   3.364   7.587  1.2178 -0.1913  1.5842
 5838SOL    HW220469   3.937   3.235   7.526 -1.2100  2.1515 -1.7990
 5839SOL     OW20470   7.576   4.790   1.391 -0.0465 -0.0541  0.3794
 5839SOL    HW120471   7.594   4.711   1.442 -0.7179  0.2202  1.0803
 5839SOL    HW220472   7.480   4.799   1.395 -0.1984 -0.4980 -1.6849
 5840SOL     OW20473   2.218   5.081   4.824  0.6906 -0.4698 -0.0693
 5840SOL    HW120474   2.214   5.176   4.822 -0.0496 -0.5041 -0.7184
 5840SOL    HW220475   2.143   5.055   4.877 -0.6472 -0.7535 -2.0105
 5841SOL     OW20476   3.676   5.260   1.740 -0.0694 -0.5025  0.8131
 5841SOL    HW120477   3.603   5.255   1.678 -0.6488 -0.5683  1.4891
 5841SOL    HW220478   3.727   5.336   1.711 -1.9922  1.3757  1.9920
 5842SOL     OW20479   7.633   0.105   4.297 -0.4123  0.6837  1.0118
 5842SOL    HW120480   7.696   0.033   4.307 -1.8181 -0.5569  1.3083
 5842SOL    HW220481   7.657   0.146   4.214  0.6622  0.1271  1.0235
 5843SOL     OW20482   1.670   3.249   5.473 -0.0281 -0.8933 -1.0538
 5843SOL    HW120483   1.625   3.277   5.393  0.7651  0.8609 -0.9539
 5843SOL    HW220484   1.743   3.196   5.442  0.0762 -0.5066 -1.4938
 5844SOL     OW20485   5.858   6.120   6.774 -0.1572 -0.2266  0.6740
 5844SOL    HW120486   5.871   6.085   6.686  0.0599  0.8022  0.2766
 5844SOL    HW220487   5.782   6.178   6.766  0.1845  0.2847  1.0270
 5845SOL     OW20488   2.386   8.021   5.603 -0.0305 -0.2226  0.0589
 5845SOL    HW120489   2.472   8.030   5.644 -0.7911  2.1502  1.3476
 5845SOL    HW220490   2.401   8.045   5.511  0.9572 -1.4617 -0.1168
 5846SOL     OW20491   7.820   3.869   4.675 -0.6862 -0.0029 -0.0475
 5846SOL    HW120492   7.773   3.805   4.622 -0.6756 -0.5906  0.6421
 5846SOL    HW220493   7.752   3.916   4.723 -0.6007 -0.6854  0.7623
 5847SOL     OW20494   4.760   6.867   7.161 -0.5522 -0.6679 -0.2089
 5847SOL    HW120495   4.818   6.929   7.206 -1.3186 -0.4316  0.4913
 5847SOL    HW220496   4.684   6.860   7.219 -1.3736 -0.7012 -1.2670
 5848SOL     OW20497   4.113   7.353   7.872 -0.5151 -0.0467 -0.4096
 5848SOL    HW120498   4.135   7.341   7.964 -0.2666 -0.9319 -0.5742
 5848SOL    HW220499   4.139   7.271   7.830 -1.7504 -0.1347 -1.0594
 5849SOL     OW20500   0.677   1.147   7.336 -0.7192 -0.8208 -0.6779
 5849SOL    HW120501   0.732   1.155   7.414 -2.6696 -0.5188  0.7319
 5849SOL    HW220502   0.664   1.053   7.325 -2.4382 -0.8177  0.8967
 5850SOL     OW20503   2.418   5.336   7.614  0.4044  0.2159  0.4659
 5850SOL    HW120504   2.335   5.378   7.636  0.3691  1.4387 -1.7267
 5850SOL    HW220505   2.430   5.270   7.682 -1.2250  1.5163  2.1247
 5851SOL     OW20506   1.570   2.565   5.546  0.1207 -0.2384  0.1474
 5851SOL    HW120507   1.545   2.642   5.496  1.9475 -0.5871 -1.4563
 5851SOL    HW220508   1.528   2.576   5.631  0.1684  2.4183 -0.0942
 5852SOL     OW20509   4.787   3.951   1.197 -0.7104  0.2706  0.5372
 5852SOL    HW120510   4.759   3.864   1.169  0.7983  0.3445 -1.4316
 5852SOL    HW220511   4.857   3.934   1.261 -1.0955  0.0509  0.9020
 5853SOL     OW20512   3.210   4.212   4.342 -0.4015 -0.1848 -0.1620
 5853SOL    HW120513   3.149   4.278   4.310  0.1523 -0.0489 -0.9803
 5853SOL    HW220514   3.277   4.206   4.274 -0.9615 -2.3277 -0.6162
 5854SOL     OW20515   7.592   1.603   1.122 -0.2585  0.4297  0.0497
 5854SOL    HW120516   7.534   1.546   1.172  1.7143  0.4153  2.5062
 5854SOL    HW220517   7.631   1.544   1.056  1.1544 -0.9880  2.0397
 5855SOL     OW20518   7.557   4.498   5.913  0.4923  0.0067  0.3381
 5855SOL    HW120519   7.634   4.548   5.884 -0.0898  0.6851 -0.0655
 5855SOL    HW220520   7.538   4.533   6.001  0.1982  0.3781  0.1317
 5856SOL     OW20521   7.296   6.700   7.345 -0.1949  0.1711 -0.1493
 5856SOL    HW120522   7.314   6.682   7.438  0.9630  1.7170 -0.0395
 5856SOL    HW220523   7.379   6.682   7.301 -0.0628  1.5686 -0.5279
 5857SOL     OW20524   7.272   3.665   3.671  0.1208 -0.4165  0.2106
 5857SOL    HW120525   7.201   3.730   3.672 -0.6150 -1.1437  2.5051
 5857SOL    HW220526   7.234   3.587   3.712  0.9153 -2.4602 -2.6705
 5858SOL     OW20527   3.254   6.891   3.122  0.3094 -0.5089  0.7872
 5858SOL    HW120528   3.212   6.895   3.208 -1.0443  1.5065  0.1228
 5858SOL    HW220529   3.338   6.936   3.135  0.4408 -0.8595  1.1952
 5859SOL     OW20530   2.637   6.102   5.774  0.0828  0.0872 -0.1486
 5859SOL    HW120531   2.645   6.028   5.713  0.5695  1.7812 -2.2482
 5859SOL    HW220532   2.727   6.130   5.789  0.0127 -0.6027  1.8376
 5860SOL     OW20533   0.101   4.598   4.128  0.7793  0.5491 -0.0804
 5860SOL    HW120534   0.072   4.519   4.174  0.2547  0.9934  0.3633
 5860SOL    HW220535   0.058   4.670   4.174 -0.4985  0.9589 -1.8177
 5861SOL     OW20536   5.256   2.053   1.603 -0.3909  0.2805 -0.4747
 5861SOL    HW120537   5.295   1.967   1.585  0.4309  0.8134 -1.3579
 5861SOL    HW220538   5.204   2.039   1.682 -0.6842 -1.1479 -0.8839
 5862SOL     OW20539   2.144   5.942   6.048 -0.1579  0.3520 -0.1475
 5862SOL    HW120540   2.166   6.020   6.099  1.3569  0.4998 -0.9623
 5862SOL    HW220541   2.228   5.900   6.031 -0.6566  0.0463 -2.0734
 5863SOL     OW20542   3.179   5.732   0.938  0.2306  0.1854  0.2944
 5863SOL    HW120543   3.238   5.762   1.007  0.9305  0.3594 -0.3747
 5863SOL    HW220544   3.123   5.667   0.981  0.7077  0.2346  1.0031
 5864SOL     OW20545   2.526   5.496   5.844 -0.7815  0.3411  0.1955
 5864SOL    HW120546   2.515   5.555   5.769  1.0520  0.4487 -0.0341
 5864SOL    HW220547   2.553   5.413   5.804 -0.5922  0.1657  0.6924
 5865SOL     OW20548   1.752   0.134   7.175  0.4240  0.3928  0.2462
 5865SOL    HW120549   1.759   0.169   7.264  1.9501  0.1574  0.2368
 5865SOL    HW220550   1.810   0.058   7.174  1.1299  0.9185 -1.2033
 5866SOL     OW20551   3.911   3.846   4.096 -1.0297  0.4246  0.0780
 5866SOL    HW120552   3.979   3.794   4.139  0.1859  0.5131 -1.6564
 5866SOL    HW220553   3.840   3.784   4.081  0.1533 -0.6512 -1.4011
 5867SOL     OW20554   5.919   7.430   0.036  0.1210 -0.0923  0.2065
 5867SOL    HW120555   5.945   7.408  -0.054  1.6112  1.1944  0.2831
 5867SOL    HW220556   5.934   7.524   0.043 -0.0050 -0.1676  1.8133
 5868SOL     OW20557   4.291   0.900   3.381  0.0726  0.0023  0.1200
 5868SOL    HW120558   4.293   0.970   3.447 -0.6451 -0.0712  0.2248
 5868SOL    HW220559   4.258   0.824   3.429  0.8769 -0.4310  0.0152
 5869SOL     OW20560   2.497   6.874   4.743 -0.1733  0.0124 -0.5729
 5869SOL    HW120561   2.456   6.884   4.657 -1.1515  0.6262 -0.0493
 5869SOL    HW220562   2.575   6.930   4.739 -0.7274  0.7882 -0.7423
 5870SOL     OW20563   6.012   0.903   4.682 -0.0499  0.1031  0.2688
 5870SOL    HW120564   6.101   0.894   4.717  0.5082 -0.1480 -1.1517
 5870SOL    HW220565   5.970   0.967   4.739  0.4881 -0.9923  1.9794
 5871SOL     OW20566   4.654   1.268   5.660 -1.0694 -0.3820  0.0730
 5871SOL    HW120567   4.704   1.286   5.580 -1.7985  1.2934 -0.0436
 5871SOL    HW220568   4.657   1.172   5.669  0.5142 -0.4750 -0.9695
 5872SOL     OW20569   1.865   0.469   0.380  0.0935  0.1145 -0.2949
 5872SOL    HW120570   1.831   0.383   0.357 -1.1993 -0.4672  3.1462
 5872SOL    HW220571   1.955   0.454   0.407  0.2671  0.0647 -0.9058
 5873SOL     OW20572   1.828   4.379   5.248 -0.4507 -0.1561 -0.1681
 5873SOL    HW120573   1.855   4.288   5.259  0.7921  0.0614 -1.2308
 5873SOL    HW220574   1.896   4.429   5.294  0.9661  0.3875 -2.6798
 5874SOL     OW20575   0.916   4.476   0.269 -0.6226  0.0977  0.2162
 5874SOL    HW120576   0.982   4.518   0.214 -0.1379  0.3835  1.0003
 5874SOL    HW220577   0.953   4.479   0.358 -2.1771  1.3318  0.8734
 5875SOL     OW20578   1.802   0.418   2.349 -0.4029 -0.6333 -0.2467
 5875SOL    HW120579   1.736   0.485   2.330 -1.1675 -0.9366  1.1705
 5875SOL    HW220580   1.882   0.468   2.366 -1.4461  0.2039  2.9674
 5876SOL     OW20581   4.195   0.581   5.379 -0.1778 -0.2215 -0.4288
 5876SOL    HW120582   4.121   0.555   5.323 -0.8103 -0.6436  0.5774
 5876SOL    HW220583   4.162   0.657   5.428  0.2966  0.0049 -0.4495
 5877SOL     OW20584   5.219   3.095   6.990  0.0458  0.1148  0.5108
 5877SOL    HW120585   5.282   3.139   7.046  0.0268 -1.5056  1.8792
 5877SOL    HW220586   5.134   3.118   7.027 -0.2402  1.9025 -1.0429
 5878SOL     OW20587   7.588   5.494   0.794  0.3778 -0.3928  0.4497
 5878SOL    HW120588   7.518   5.556   0.812  0.7467  0.4432 -0.9083
 5878SOL    HW220589   7.654   5.544   0.747  1.6167 -1.3253  1.1261
 5879SOL     OW20590   7.943   1.709   7.986  0.2211 -0.3300  0.5895
 5879SOL    HW120591   8.011   1.771   8.010 -1.0365  1.1645  0.4895
 5879SOL    HW220592   7.986   1.624   7.987  2.2083  0.6171 -0.0411
 5880SOL     OW20593   4.360   3.835   2.200 -0.5600  0.5839 -0.1351
 5880SOL    HW120594   4.412   3.904   2.160  0.6462  1.5906  2.9004
 5880SOL    HW220595   4.295   3.812   2.133  0.1706  3.2991 -1.9313
 5881SOL     OW20596   2.917   6.251   1.189  0.0123 -0.4038  0.1232
 5881SOL    HW120597   2.851   6.191   1.223 -0.3731 -0.5349 -0.8123
 5881SOL    HW220598   2.868   6.330   1.166 -0.1702 -1.0900 -2.1448
 5882SOL     OW20599   0.444   3.299   4.014  0.0993  0.3405  0.2811
 5882SOL    HW120600   0.427   3.370   3.952  0.4148  0.3501  0.2067
 5882SOL    HW220601   0.539   3.289   4.014  0.0433 -0.2249  0.1254
 5883SOL     OW20602   2.663   0.904   5.617  0.1709  0.0539  0.1974
 5883SOL    HW120603   2.752   0.890   5.649 -0.0218  2.0059  1.8658
 5883SOL    HW220604   2.674   0.941   5.530  0.8769 -1.6195 -0.4641
 5884SOL     OW20605   1.390   0.412   0.847 -0.3949  0.0978 -0.5009
 5884SOL    HW120606   1.340   0.493   0.861 -1.8120 -0.8941  0.4254
 5884SOL    HW220607   1.465   0.439   0.795 -0.9259  1.9843 -0.3517
 5885SOL     OW20608   5.373   8.102   3.244 -0.1218 -0.6812 -0.3061
 5885SOL    HW120609   5.284   8.101   3.208  0.5239  0.8404 -2.1361
 5885SOL    HW220610   5.424   8.151   3.179  2.5590 -3.4356 -0.5054
 5886SOL     OW20611   6.083   0.555   5.611 -0.2991  0.2705  0.7709
 5886SOL    HW120612   6.105   0.463   5.594  2.2741  0.8096  0.7723
 5886SOL    HW220613   5.991   0.553   5.635 -0.2767 -2.3389  0.9691
 5887SOL     OW20614   1.158   7.883   6.924 -0.1235  0.0426 -0.1866
 5887SOL    HW120615   1.074   7.840   6.944 -1.3648  0.5300 -3.6767
 5887SOL    HW220616   1.162   7.956   6.985 -0.2008 -2.1923  2.7593
 5888SOL     OW20617   0.948   4.767   3.138  0.5763  0.2992  0.2517
 5888SOL    HW120618   0.893   4.731   3.069 -0.8249  3.3172 -0.3708
 5888SOL    HW220619   0.893   4.768   3.216  1.3411 -0.8300  0.8414
 5889SOL     OW20620   6.800   0.875   8.020  0.5140  0.0759 -0.1005
 5889SOL    HW120621   6.728   0.818   7.994  0.0334  0.4774  0.3309
 5889SOL    HW220622   6.812   0.935   7.946  0.2250  0.1821 -0.0601
 5890SOL     OW20623   7.646   3.567   6.063  0.1544  0.0725 -0.4375
 5890SOL    HW120624   7.727   3.519   6.046  0.0240 -0.4125  0.2763
 5890SOL    HW220625   7.588   3.504   6.105 -0.6085  0.4124 -0.9503
 5891SOL     OW20626   5.889   0.285   1.576  0.1874  0.1503 -0.3956
 5891SOL    HW120627   5.843   0.292   1.660 -0.5053 -0.9546 -0.6645
 5891SOL    HW220628   5.855   0.358   1.524 -0.2048  0.1801 -0.1003
 5892SOL     OW20629   6.564   1.446   6.640  0.2329  0.1196 -0.1009
 5892SOL    HW120630   6.565   1.373   6.577  0.8804  0.9648 -1.1154
 5892SOL    HW220631   6.603   1.519   6.591 -1.1747  1.3816  0.6098
 5893SOL     OW20632   0.373   5.194   6.624 -0.2797 -0.0969 -0.2968
 5893SOL    HW120633   0.313   5.265   6.648  1.2761  1.1233  0.2193
 5893SOL    HW220634   0.438   5.194   6.695 -0.5630 -2.4730  0.0372
 5894SOL     OW20635   1.437   5.424   1.678  0.1417  0.3322 -0.2583
 5894SOL    HW120636   1.458   5.482   1.751 -0.2589 -0.2149  0.2987
 5894SOL    HW220637   1.361   5.374   1.708  0.4749 -0.4766 -0.7314
 5895SOL     OW20638   0.126   7.447   5.024 -0.1392  0.0672 -0.1113
 5895SOL    HW120639   0.108   7.363   4.982  0.3970 -0.3054  0.4079
 5895SOL    HW220640   0.212   7.472   4.991  0.0550  0.0240  0.3674
 5896SOL     OW20641   2.754   1.997   0.481  0.3720  0.5881  0.2159
 5896SOL    HW120642   2.777   1.921   0.427  0.2314  0.7097 -0.0129
 5896SOL    HW220643   2.838   2.027   0.516  0.2642 -0.7118  1.6976
 5897SOL     OW20644   1.821   6.334   7.697 -0.2067 -0.1118  0.4995
 5897SOL    HW120645   1.774   6.256   7.666 -0.0102  0.3740 -1.1448
 5897SOL    HW220646   1.756   6.381   7.750 -1.1465 -0.1605 -0.5604
 5898SOL     OW20647   6.090   7.325   7.672  0.1683 -0.6190  0.3505
 5898SOL    HW120648   6.145   7.303   7.747  1.7572 -0.1800 -0.6311
 5898SOL    HW220649   6.136   7.290   7.596 -1.5920 -1.3909 -0.4277
 5899SOL     OW20650   4.447   4.559   6.517 -0.2261  0.5196  0.1759
 5899SOL    HW120651   4.526   4.574   6.465 -1.2715  2.8493 -0.8556
 5899SOL    HW220652   4.448   4.465   6.534  1.5109  0.0853 -1.8647
 5900SOL     OW20653   6.358   4.532   4.813  0.2595 -0.2556  0.0033
 5900SOL    HW120654   6.345   4.607   4.755  0.1217 -0.8661 -0.7831
 5900SOL    HW220655   6.450   4.507   4.799  0.1478 -0.5741 -0.1688
 5901SOL     OW20656   1.688   6.100   7.664  0.6132 -0.4818 -0.3273
 5901SOL    HW120657   1.730   6.014   7.674  1.5430  0.0811  0.7928
 5901SOL    HW220658   1.601   6.089   7.704  0.6997 -0.9252 -0.2559
 5902SOL     OW20659   7.481   2.431   7.618  0.0560 -0.2033  0.0086
 5902SOL    HW120660   7.395   2.416   7.656 -0.2112  0.0419 -0.4927
 5902SOL    HW220661   7.539   2.370   7.665  0.4080  2.2366  3.1420
 5903SOL     OW20662   5.550   4.499   2.989 -0.0968 -0.5479  0.2809
 5903SOL    HW120663   5.479   4.454   3.036  0.0106  0.3561  1.3444
 5903SOL    HW220664   5.505   4.560   2.931 -0.2036 -0.6488  0.2557
 5904SOL     OW20665   0.371   6.024   4.466  0.1158 -0.1638  0.6205
 5904SOL    HW120666   0.281   6.032   4.498 -0.0656 -2.8604  1.0380
 5904SOL    HW220667   0.423   6.075   4.528 -1.1432  1.8541  0.0760
 5905SOL     OW20668   2.807   7.400   5.866 -0.0795  0.7589  0.3311
 5905SOL    HW120669   2.713   7.389   5.851 -0.0838  0.3941  0.6227
 5905SOL    HW220670   2.821   7.495   5.861 -0.2591  0.7364 -0.8743
 5906SOL     OW20671   2.159   5.332   3.404 -0.6119 -0.1236 -0.9861
 5906SOL    HW120672   2.235   5.390   3.396  0.1631 -0.4608  2.4268
 5906SOL    HW220673   2.195   5.248   3.433 -2.2173 -0.4955  0.0856
 5907SOL     OW20674   2.420   7.058   4.336  0.2355  0.0662  0.1834
 5907SOL    HW120675   2.472   7.097   4.407  1.6917  0.5522 -1.0828
 5907SOL    HW220676   2.330   7.086   4.354  0.5416  0.0684  1.8929
 5908SOL     OW20677   8.062   1.115   1.872  0.1441 -0.3817  0.6377
 5908SOL    HW120678   8.019   1.144   1.953  0.5704  0.8045  0.4634
 5908SOL    HW220679   8.106   1.193   1.840  0.1985 -0.9068 -0.6109
 5909SOL     OW20680   2.692   6.923   1.389 -0.3078  0.5688 -0.3915
 5909SOL    HW120681   2.756   6.937   1.319  0.5438  2.4519  0.6619
 5909SOL    HW220682   2.607   6.935   1.347  0.1159  0.2852 -1.3630
 5910SOL     OW20683   2.985   0.579   7.784 -0.1622  0.3636  0.3081
 5910SOL    HW120684   2.945   0.493   7.766 -0.4079  0.4270  0.5415
 5910SOL    HW220685   3.076   0.559   7.803  0.0324  0.2594 -0.6723
 5911SOL     OW20686   6.672   7.935   3.850 -0.1556 -0.3779  0.8051
 5911SOL    HW120687   6.717   8.002   3.799 -0.4451 -0.7034  0.1070
 5911SOL    HW220688   6.624   7.884   3.785 -0.2139 -1.0498  1.3641
 5912SOL     OW20689   1.595   3.540   6.800  0.3973  0.4839  0.0627
 5912SOL    HW120690   1.560   3.531   6.712  2.7036  0.7855 -0.9725
 5912SOL    HW220691   1.618   3.633   6.808 -0.8637  0.7226  1.4696
 5913SOL     OW20692   5.887   4.226   3.515  0.8025 -0.1101  0.4637
 5913SOL    HW120693   5.924   4.205   3.600  2.9791  1.4970 -0.0090
 5913SOL    HW220694   5.792   4.224   3.529  1.0815  1.3181  3.2637
 5914SOL     OW20695   2.545   0.729   6.666 -0.5148  0.5131 -0.0826
 5914SOL    HW120696   2.603   0.693   6.734 -0.1268  0.5210 -0.4014
 5914SOL    HW220697   2.469   0.671   6.667 -0.9662  1.1025  1.0364
 5915SOL     OW20698   6.268   1.445   3.802  0.3929 -0.1014 -0.3582
 5915SOL    HW120699   6.362   1.466   3.808  0.4387  0.0134 -1.2468
 5915SOL    HW220700   6.231   1.475   3.885  1.0178  0.5454 -0.3015
 5916SOL     OW20701   5.620   2.243   8.066 -0.0166 -0.4281  0.5254
 5916SOL    HW120702   5.530   2.270   8.082 -0.1652 -1.7281  2.0898
 5916SOL    HW220703   5.618   2.147   8.070  1.4885 -0.4773  0.9404
 5917SOL     OW20704   2.693   1.431   7.373  0.0920 -0.6629  0.1000
 5917SOL    HW120705   2.703   1.414   7.467 -2.6443  0.6036  0.7150
 5917SOL    HW220706   2.630   1.366   7.343  1.3415 -1.4067 -1.0575
 5918SOL     OW20707   5.462   4.818   5.366  0.0359 -0.0710 -0.8599
 5918SOL    HW120708   5.537   4.832   5.309  0.1725 -0.0844 -0.6863
 5918SOL    HW220709   5.498   4.769   5.440  0.1286  1.0205 -0.1527
 5919SOL     OW20710   2.653   0.403   1.702  0.4430  0.5993 -0.2897
 5919SOL    HW120711   2.623   0.339   1.766  0.3603 -0.1460 -1.0634
 5919SOL    HW220712   2.608   0.484   1.726 -0.5742  0.0091 -0.1853
 5920SOL     OW20713   6.323   6.147   1.535 -0.4392 -0.1691  0.1542
 5920SOL    HW120714   6.282   6.232   1.521 -0.3110 -0.1740 -0.2727
 5920SOL    HW220715   6.416   6.162   1.524 -0.3210 -0.1691  1.0762
 5921SOL     OW20716   3.923   7.134   6.151  0.9658 -0.1961 -0.1940
 5921SOL    HW120717   3.966   7.186   6.083  1.1398  0.7433  0.6174
 5921SOL    HW220718   3.972   7.052   6.152 -0.3159 -1.1167 -2.6167
 5922SOL     OW20719   1.396   5.597   3.387 -0.7110 -0.3062  0.0728
 5922SOL    HW120720   1.357   5.543   3.318 -1.2251 -0.5047  0.5179
 5922SOL    HW220721   1.490   5.595   3.367 -0.8552 -0.3181 -0.6502
 5923SOL     OW20722   3.225   5.213   6.321  0.3447  0.3580 -0.4502
 5923SOL    HW120723   3.263   5.133   6.285  0.9854  0.5076 -0.1203
 5923SOL    HW220724   3.291   5.281   6.304  0.7218  0.4179  1.0811
 5924SOL     OW20725   3.833   6.400   6.911 -0.5201 -0.2262  0.6094
 5924SOL    HW120726   3.783   6.477   6.936 -0.4490 -0.0833  0.3137
 5924SOL    HW220727   3.789   6.327   6.955  0.2770  0.1457  2.1154
 5925SOL     OW20728   6.358   4.907   3.786 -0.3735  0.5744 -0.4325
 5925SOL    HW120729   6.389   4.982   3.836 -1.1373 -0.1001  1.0961
 5925SOL    HW220730   6.430   4.844   3.789 -1.0286 -0.1459  1.3241
 5926SOL     OW20731   4.719   6.252   6.957 -0.2381  0.4929 -0.1491
 5926SOL    HW120732   4.815   6.252   6.955 -0.2197 -0.1972  0.2270
 5926SOL    HW220733   4.696   6.317   7.024  0.0291 -0.6515  1.0894
 5927SOL     OW20734   0.067   2.841   0.007 -0.3899  0.5586  0.6743
 5927SOL    HW120735  -0.018   2.812   0.038  0.0087  0.8041  2.0452
 5927SOL    HW220736   0.120   2.761   0.003 -0.5412  0.4762  0.2782
 5928SOL     OW20737   7.180   1.830   7.727  0.0646 -0.0170  0.1107
 5928SOL    HW120738   7.219   1.797   7.808  1.3258  1.0150 -0.0319
 5928SOL    HW220739   7.214   1.919   7.719 -3.7347  1.6785  0.8434
 5929SOL     OW20740   1.308   5.731   1.674 -0.2778  0.1497  0.2694
 5929SOL    HW120741   1.352   5.792   1.614  0.8545 -0.3436  0.5600
 5929SOL    HW220742   1.263   5.670   1.616 -1.2119  1.0865 -0.0278
 5930SOL     OW20743   4.424   5.516   5.931  0.4326 -0.1778  0.1537
 5930SOL    HW120744   4.392   5.428   5.910  0.7719 -0.3507  0.3680
 5930SOL    HW220745   4.385   5.537   6.016  0.8587 -0.3714  0.3955
 5931SOL     OW20746   4.099   4.612   5.026  0.2933 -0.2697  0.0697
 5931SOL    HW120747   4.146   4.594   4.945  1.2465  1.1893  0.2595
 5931SOL    HW220748   4.146   4.561   5.092  1.1991  0.5898  0.1254
 5932SOL     OW20749   5.283   1.335   4.587 -0.3128 -0.4651 -0.0352
 5932SOL    HW120750   5.372   1.331   4.623 -0.6527  0.7111  1.0099
 5932SOL    HW220751   5.291   1.296   4.500  0.9966 -1.4101  0.4665
 5933SOL     OW20752   5.522   7.454   5.498 -0.0442 -0.3336  0.7420
 5933SOL    HW120753   5.535   7.362   5.524 -1.3589 -0.8407 -0.2517
 5933SOL    HW220754   5.438   7.478   5.537 -1.6896 -0.8701 -2.2041
 5934SOL     OW20755   3.967   3.186   5.731 -0.0635 -0.1892  0.4283
 5934SOL    HW120756   3.967   3.114   5.668 -0.0292  1.5738 -1.6825
 5934SOL    HW220757   4.058   3.196   5.757  0.2357  0.3152 -0.7698
 5935SOL     OW20758   2.700   7.885   5.597 -0.2685 -0.1001 -0.2009
 5935SOL    HW120759   2.795   7.877   5.598 -0.2195 -0.6763 -2.6739
 5935SOL    HW220760   2.682   7.969   5.640  1.5807  1.2872 -1.9086
 5936SOL     OW20761   4.632   3.437   6.182  0.1792 -0.1601 -0.0336
 5936SOL    HW120762   4.714   3.469   6.144  0.6409 -1.7237 -0.4236
 5936SOL    HW220763   4.585   3.398   6.108 -0.8481  0.5497  0.2233
 5937SOL     OW20764   2.514   5.664   5.056 -0.0554  1.0056  0.2229
 5937SOL    HW120765   2.445   5.656   4.990  0.0824  0.4032  0.1427
 5937SOL    HW220766   2.473   5.710   5.129 -0.0083  2.3480 -0.5694
 5938SOL     OW20767   7.849   7.896   2.684 -0.1476  0.0254  0.1412
 5938SOL    HW120768   7.891   7.812   2.702  1.5649  0.6727 -0.6063
 5938SOL    HW220769   7.859   7.909   2.590  1.1789  1.7940  0.4574
 5939SOL     OW20770   4.071   0.275   0.415 -0.1818 -0.2666 -0.1372
 5939SOL    HW120771   4.140   0.338   0.438 -1.4082  0.4067  1.9477
 5939SOL    HW220772   4.062   0.283   0.320  0.1939  2.2208 -0.0216
 5940SOL     OW20773   7.866   7.327   2.701  0.5915  0.2901  0.3054
 5940SOL    HW120774   7.925   7.311   2.627  0.3693 -1.1731  0.4286
 5940SOL    HW220775   7.792   7.269   2.686 -0.3122  1.2921  0.7525
 5941SOL     OW20776   2.681   3.769   7.820 -0.4043  0.3046  0.0307
 5941SOL    HW120777   2.714   3.679   7.826 -1.5815 -0.2021 -0.8195
 5941SOL    HW220778   2.756   3.820   7.788 -0.3413 -0.7713 -1.6523
 5942SOL     OW20779   2.295   6.734   2.001  0.2687  0.2023 -0.3941
 5942SOL    HW120780   2.387   6.723   2.023  0.4922  0.9352 -0.9302
 5942SOL    HW220781   2.292   6.731   1.906 -0.6022 -2.2435 -0.3424
 5943SOL     OW20782   1.370   7.135   7.984 -0.1412 -0.2148  0.2806
 5943SOL    HW120783   1.287   7.160   8.024 -0.3625  0.9946 -0.8909
 5943SOL    HW220784   1.426   7.112   8.059 -0.7820  1.2509  1.2506
 5944SOL     OW20785   4.785   0.510   3.671  0.0265  0.4405 -0.2812
 5944SOL    HW120786   4.730   0.577   3.629 -1.1526 -0.4439 -0.1858
 5944SOL    HW220787   4.731   0.475   3.741  1.5647  1.1096  1.3042
 5945SOL     OW20788   4.038   7.883   1.711  0.1233  0.5798  0.1575
 5945SOL    HW120789   4.067   7.966   1.747 -0.0424  0.9810 -0.6240
 5945SOL    HW220790   4.097   7.818   1.750 -0.4828  0.9025  1.6864
 5946SOL     OW20791   1.128   7.693   4.265  0.5772 -0.5929  0.1745
 5946SOL    HW120792   1.050   7.667   4.216 -0.2695  4.1613 -1.5442
 5946SOL    HW220793   1.201   7.676   4.205  0.1126  0.4005 -0.7059
 5947SOL     OW20794   2.993   6.148   0.069  0.2704 -0.5057  0.3508
 5947SOL    HW120795   2.933   6.080   0.037 -0.6797  1.1549 -1.5831
 5947SOL    HW220796   2.941   6.197   0.133  0.0852 -0.0554 -0.1384
 5948SOL     OW20797   7.155   6.741   4.301 -0.0959  0.2661 -0.1624
 5948SOL    HW120798   7.176   6.819   4.249 -1.0827  1.2420  0.8280
 5948SOL    HW220799   7.220   6.741   4.371  0.1068  0.0019 -0.3493
 5949SOL     OW20800   5.789   2.479   2.118 -0.5220  0.1146 -0.5009
 5949SOL    HW120801   5.804   2.550   2.181  0.8809  0.9142 -1.6598
 5949SOL    HW220802   5.724   2.515   2.057  1.1444  1.0241 -1.8633
 5950SOL     OW20803   5.865   3.217   2.950 -0.0778 -0.1113 -0.2340
 5950SOL    HW120804   5.843   3.198   3.041  0.3943  0.5020  0.0155
 5950SOL    HW220805   5.917   3.143   2.921  0.3136 -0.0055  0.1954
 5951SOL     OW20806   8.085   3.470   2.382  0.1971  0.0991 -0.2322
 5951SOL    HW120807   8.178   3.472   2.359  0.9509 -2.0757  2.1385
 5951SOL    HW220808   8.050   3.396   2.334  0.4547 -0.9419  1.1234
 5952SOL     OW20809   7.830   0.648   3.114  0.4178 -0.1775 -0.1941
 5952SOL    HW120810   7.790   0.685   3.035  2.1011 -1.6663 -1.8289
 5952SOL    HW220811   7.920   0.628   3.089  1.0045 -0.7564  2.1092
 5953SOL     OW20812   1.912   3.712   0.739  0.1124 -0.3975 -0.3572
 5953SOL    HW120813   1.906   3.729   0.645  0.1190  0.3588 -0.2326
 5953SOL    HW220814   1.884   3.622   0.750 -1.3382 -0.0399 -0.9277
 5954SOL     OW20815   0.339   1.930   2.784  0.2089  0.7303  0.2478
 5954SOL    HW120816   0.258   1.879   2.787  0.6490 -0.1038 -1.0627
 5954SOL    HW220817   0.313   2.014   2.745  0.2857 -0.3437 -2.3530
 5955SOL     OW20818   0.204   2.387   0.722 -0.0288 -0.3107 -0.1219
 5955SOL    HW120819   0.135   2.424   0.667  0.5897 -0.6023 -1.1194
 5955SOL    HW220820   0.180   2.411   0.811 -1.8880 -1.1528 -0.3606
 5956SOL     OW20821   1.314   4.813   3.955  0.2644 -0.0149 -0.7074
 5956SOL    HW120822   1.287   4.850   4.038  0.4983  0.0165 -0.6431
 5956SOL    HW220823   1.397   4.768   3.975  0.0087 -0.5294 -0.7922
 5957SOL     OW20824   6.198   1.812   1.876 -0.9698  0.4495 -0.4006
 5957SOL    HW120825   6.179   1.891   1.926  1.3974  1.3997 -0.8878
 5957SOL    HW220826   6.136   1.814   1.804 -0.9362  1.9060 -0.4201
 5958SOL     OW20827   4.466   6.570   4.680  0.1057  0.3282  0.0950
 5958SOL    HW120828   4.479   6.665   4.676 -1.3703  0.6660  1.8478
 5958SOL    HW220829   4.387   6.554   4.629 -0.1350  0.1776  0.5079
 5959SOL     OW20830   5.549   3.471   4.549 -0.1666 -0.3746  0.4490
 5959SOL    HW120831   5.479   3.410   4.527 -0.5410 -0.0999  0.8568
 5959SOL    HW220832   5.629   3.430   4.514 -0.4023 -1.1238  0.7728
 5960SOL     OW20833   6.446   6.074   4.207  0.1380 -0.1316 -0.0986
 5960SOL    HW120834   6.393   5.996   4.221  0.4102 -0.6377 -1.6809
 5960SOL    HW220835   6.385   6.147   4.212 -0.0573 -0.3743  1.7813
 5961SOL     OW20836   3.367   1.302   2.463 -0.2209  0.4695 -0.3132
 5961SOL    HW120837   3.336   1.386   2.428 -0.8984  0.0375 -0.7857
 5961SOL    HW220838   3.405   1.258   2.388  3.9861  1.9624  0.6607
 5962SOL     OW20839   6.244   5.532   0.149 -0.0643  0.0654 -0.0846
 5962SOL    HW120840   6.205   5.568   0.069 -0.7965 -0.5915 -0.0260
 5962SOL    HW220841   6.333   5.569   0.150 -0.2732  0.6268 -0.8367
 5963SOL     OW20842   6.500   3.911   5.366 -0.2325  0.1694  0.2945
 5963SOL    HW120843   6.434   3.851   5.402 -1.3814  0.3993 -1.2773
 5963SOL    HW220844   6.452   3.962   5.301  1.4030  0.7164 -0.5416
 5964SOL     OW20845   2.215   3.756   7.028  0.1887 -0.1971 -0.0985
 5964SOL    HW120846   2.266   3.825   7.071 -0.6978  0.8426 -0.6631
 5964SOL    HW220847   2.165   3.716   7.100  0.4436 -0.0182  0.1816
 5965SOL     OW20848   4.103   0.977   0.103  0.2173 -0.6398 -0.3168
 5965SOL    HW120849   4.169   1.037   0.069 -0.7207 -0.0401 -1.1215
 5965SOL    HW220850   4.112   0.898   0.050  1.2914 -1.1569  0.5859
 5966SOL     OW20851   5.018   3.267   1.950  0.1058 -0.1387 -0.0029
 5966SOL    HW120852   4.983   3.196   1.897 -1.2613 -0.3100  1.0492
 5966SOL    HW220853   5.008   3.345   1.896  0.8142 -0.6169 -0.8356
 5967SOL     OW20854   6.910   5.968   7.870 -0.0267 -1.1020 -0.6840
 5967SOL    HW120855   6.975   5.989   7.803 -0.7437 -0.6695 -1.2620
 5967SOL    HW220856   6.956   5.910   7.931  0.3327 -2.3668 -2.1198
 5968SOL     OW20857   3.582   2.626   0.483 -0.4238  0.3839 -0.0610
 5968SOL    HW120858   3.493   2.636   0.449 -0.2649 -0.0968 -0.6532
 5968SOL    HW220859   3.570   2.586   0.569 -0.7462 -1.0173 -0.7170
 5969SOL     OW20860   3.052   1.373   0.997  0.0357  0.2559  0.4052
 5969SOL    HW120861   3.126   1.349   1.052 -1.4186 -1.8615  1.5762
 5969SOL    HW220862   2.993   1.421   1.055  0.8267  2.9201 -0.7827
 5970SOL     OW20863   3.573   5.317   1.182 -0.5610  0.1574  0.4705
 5970SOL    HW120864   3.487   5.326   1.223 -0.1071  4.1557  1.0146
 5970SOL    HW220865   3.557   5.332   1.089 -0.7712 -2.4251  0.0300
 5971SOL     OW20866   0.539   4.783   4.507 -0.5836  0.2662  0.0999
 5971SOL    HW120867   0.492   4.766   4.589  1.2204  0.9239  1.3294
 5971SOL    HW220868   0.557   4.697   4.471  0.2470 -0.1135  1.3838
 5972SOL     OW20869   0.557   1.986   2.077  0.5387  0.3763 -0.1025
 5972SOL    HW120870   0.539   2.006   2.169  1.1573  0.7151 -0.0482
 5972SOL    HW220871   0.626   2.048   2.052  2.5921 -1.6923  0.0862
 5973SOL     OW20872   0.110   0.675   4.846 -0.3508 -0.3778 -0.1549
 5973SOL    HW120873   0.060   0.618   4.786 -1.1861  1.5154 -1.3758
 5973SOL    HW220874   0.063   0.758   4.843  0.5770  0.2690  1.9036
 5974SOL     OW20875   3.254   4.761   5.388  0.0810  0.9415  0.8564
 5974SOL    HW120876   3.343   4.780   5.417  0.0243  1.3112  0.7972
 5974SOL    HW220877   3.215   4.711   5.460  1.0139 -1.1359 -0.0062
 5975SOL     OW20878   6.704   4.393   4.505  0.2774  0.1963  0.7337
 5975SOL    HW120879   6.666   4.375   4.591 -2.6629  0.3787 -0.3889
 5975SOL    HW220880   6.647   4.460   4.467  2.5360  1.4273 -0.7049
 5976SOL     OW20881   7.640   5.236   4.656 -0.3923  0.0143  0.0877
 5976SOL    HW120882   7.656   5.289   4.734  0.1776 -0.7947  0.5350
 5976SOL    HW220883   7.545   5.223   4.656 -0.4652  0.5190  0.3140
 5977SOL     OW20884   7.800   4.668   4.267  0.1356 -0.1770  0.2779
 5977SOL    HW120885   7.888   4.706   4.274 -0.3361  0.6806  2.1008
 5977SOL    HW220886   7.748   4.737   4.226  0.6126 -1.3568 -2.6208
 5978SOL     OW20887   4.379   2.627   8.100 -0.3335  0.8006 -0.2412
 5978SOL    HW120888   4.343   2.543   8.128 -1.6882  1.0501 -1.1511
 5978SOL    HW220889   4.364   2.629   8.005 -0.4992  2.1523 -0.2038
 5979SOL     OW20890   0.952   6.307   0.416  0.2611  0.8959  0.6339
 5979SOL    HW120891   0.891   6.249   0.461  0.9500  1.5731  2.5383
 5979SOL    HW220892   0.964   6.267   0.330 -0.7570 -0.7183  1.1969
 5980SOL     OW20893   4.334   7.997   1.166  0.5177  0.2179 -0.4686
 5980SOL    HW120894   4.396   7.987   1.094 -0.6686  0.6063 -1.5815
 5980SOL    HW220895   4.249   7.974   1.129 -0.1780  0.7629  0.7103
 5981SOL     OW20896   6.143   4.080   5.671 -0.0995 -0.1136 -0.4149
 5981SOL    HW120897   6.220   4.101   5.724 -0.0754  0.6912 -0.7543
 5981SOL    HW220898   6.158   3.990   5.643  0.8360  0.0974 -0.6519
 5982SOL     OW20899   3.328   4.816   4.080 -0.1475  0.7101 -0.0722
 5982SOL    HW120900   3.402   4.869   4.048  0.7461 -1.0872 -1.1485
 5982SOL    HW220901   3.362   4.771   4.157 -0.4543  0.6212  0.0132
 5983SOL     OW20902   5.609   6.656   1.606 -0.1146  0.3514 -0.1654
 5983SOL    HW120903   5.582   6.703   1.685  0.9385  0.2020  0.2892
 5983SOL    HW220904   5.580   6.566   1.620 -0.8282  0.5324 -0.4048
 5984SOL     OW20905   7.287   5.434   7.319 -0.3983 -0.4962  0.5686
 5984SOL    HW120906   7.208   5.472   7.358 -1.4475 -0.7729 -1.1653
 5984SOL    HW220907   7.254   5.377   7.249  1.3668  1.2963 -1.8996
 5985SOL     OW20908   2.740   6.501   6.813  0.2488 -0.0406  0.1849
 5985SOL    HW120909   2.709   6.548   6.890 -0.8717  1.1194 -0.9303
 5985SOL    HW220910   2.746   6.409   6.841 -1.5338  0.1384  1.2501
 5986SOL     OW20911   7.087   0.625   1.890  0.1918  0.0374 -0.3219
 5986SOL    HW120912   7.119   0.537   1.906 -1.4187 -0.5835 -0.2910
 5986SOL    HW220913   7.075   0.663   1.977  1.3060  0.4713 -0.3421
 5987SOL     OW20914   4.996   0.907   6.777 -0.2338  0.5188 -0.1300
 5987SOL    HW120915   5.049   0.986   6.779  0.3782  0.1048  0.9174
 5987SOL    HW220916   4.927   0.925   6.714  0.8459  1.2756 -1.1311
 5988SOL     OW20917   3.828   1.875   2.083  0.5610 -0.1603  0.8582
 5988SOL    HW120918   3.876   1.912   2.009  0.7774 -0.8213  0.6692
 5988SOL    HW220919   3.750   1.931   2.090  0.0155 -0.7039 -0.5107
 5989SOL     OW20920   6.589   4.317   4.767 -0.0449  0.1489  0.1191
 5989SOL    HW120921   6.635   4.236   4.788  1.7110  0.5624 -1.7629
 5989SOL    HW220922   6.631   4.384   4.821 -1.1128 -0.0688  1.2548
 5990SOL     OW20923   0.496   3.144   7.069  0.3432 -0.0321 -0.0659
 5990SOL    HW120924   0.462   3.207   7.134  1.8834  0.0782  0.6678
 5990SOL    HW220925   0.438   3.155   6.994 -0.1822  1.3843  0.5012
 5991SOL     OW20926   5.895   6.280   7.627 -0.2818 -0.1986 -0.2884
 5991SOL    HW120927   5.986   6.254   7.618 -0.6902 -2.2774  0.9159
 5991SOL    HW220928   5.887   6.313   7.716 -0.7616 -0.3531 -0.2671
 5992SOL     OW20929   0.812   8.104   3.507 -0.0413 -0.0932  0.4315
 5992SOL    HW120930   0.845   8.181   3.554  0.0204  0.8346 -1.0902
 5992SOL    HW220931   0.861   8.102   3.425  0.0938 -1.8874  0.5009
 5993SOL     OW20932   5.850   2.968   5.341 -0.2124 -0.3256 -0.2664
 5993SOL    HW120933   5.879   3.047   5.295  0.2629 -0.0508  0.4833
 5993SOL    HW220934   5.800   2.919   5.276  1.2527 -0.4220 -1.3828
 5994SOL     OW20935   5.250   5.680   0.445 -0.3174  0.2370  0.3559
 5994SOL    HW120936   5.251   5.585   0.456  1.3310  0.0415 -1.0680
 5994SOL    HW220937   5.283   5.715   0.528 -1.8001 -0.3440  1.2314
 5995SOL     OW20938   3.862   5.071   3.580 -0.4075  0.2414  0.3202
 5995SOL    HW120939   3.909   4.987   3.572 -1.3180 -0.2788  0.2783
 5995SOL    HW220940   3.841   5.095   3.490  0.3280  0.7980  0.2938
 5996SOL     OW20941   5.963   5.531   4.002 -0.1970 -0.3712  0.0823
 5996SOL    HW120942   5.941   5.609   4.052  0.0319 -1.2521  1.6412
 5996SOL    HW220943   5.904   5.532   3.928  0.8429  2.0754 -0.8097
 5997SOL     OW20944   3.756   7.113   3.618 -0.5574  0.0799 -0.2615
 5997SOL    HW120945   3.837   7.115   3.669 -1.9888 -1.6874  2.2995
 5997SOL    HW220946   3.780   7.070   3.536  0.7636 -2.1121  1.1918
 5998SOL     OW20947   4.288   5.664   3.373 -0.4244 -0.0890  0.1332
 5998SOL    HW120948   4.288   5.743   3.427 -0.8310 -0.7538  1.1354
 5998SOL    HW220949   4.375   5.625   3.387  0.0515  0.5383 -0.9344
 5999SOL     OW20950   2.238   0.911   0.220  0.1654  0.0617  0.1630
 5999SOL    HW120951   2.290   0.989   0.205 -1.2503  0.9816 -0.1963
 5999SOL    HW220952   2.301   0.844   0.247  1.3610  1.4307  0.8727
 6000SOL     OW20953   0.039   1.082   3.973  0.0021 -0.0112 -0.3315
 6000SOL    HW120954   0.106   1.130   3.923 -0.4296 -0.3376 -1.2516
 6000SOL    HW220955   0.065   1.092   4.064  1.4171 -0.2676 -0.6766
 6001SOL     OW20956   0.863   5.379   4.569 -0.1820  0.5809 -0.0721
 6001SOL    HW120957   0.959   5.383   4.577 -0.0406 -0.2081 -1.1466
 6001SOL    HW220958   0.831   5.443   4.632  1.0501  0.6801  0.4790
 6002SOL     OW20959   2.570   7.483   1.842  0.4516  0.1290 -1.0571
 6002SOL    HW120960   2.628   7.537   1.897 -0.2306  1.3536 -1.4875
 6002SOL    HW220961   2.625   7.456   1.769  0.5614  1.1162 -1.3609
 6003SOL     OW20962   0.443   3.490   7.260  0.4304  0.5583  0.5808
 6003SOL    HW120963   0.520   3.546   7.260  1.1879 -0.2954  3.4808
 6003SOL    HW220964   0.425   3.474   7.353 -2.6109 -0.1685 -0.0137
 6004SOL     OW20965   0.503   1.259   0.572  0.6195  0.0622 -0.0696
 6004SOL    HW120966   0.426   1.284   0.622  0.1624 -2.9470  0.9251
 6004SOL    HW220967   0.568   1.235   0.639  1.6710  0.4881 -0.9129
 6005SOL     OW20968   5.291   0.475   2.776 -0.0322 -0.3263 -0.3187
 6005SOL    HW120969   5.318   0.469   2.685  0.4526 -1.1935 -0.1263
 6005SOL    HW220970   5.201   0.442   2.777 -0.5867  1.0907 -0.7060
 6006SOL     OW20971   3.856   4.433   2.823  0.0790 -0.0142  1.1073
 6006SOL    HW120972   3.785   4.378   2.857 -0.8976 -0.3399 -1.2212
 6006SOL    HW220973   3.919   4.439   2.895 -0.4594 -2.9850  1.9682
 6007SOL     OW20974   6.319   5.595   1.143  0.4439 -0.2157  0.2513
 6007SOL    HW120975   6.291   5.609   1.052  1.7847  0.2685 -0.1149
 6007SOL    HW220976   6.278   5.666   1.191  0.5626  0.1437 -0.1677
 6008SOL     OW20977   2.582   3.683   1.515 -0.5187  0.1481 -0.2412
 6008SOL    HW120978   2.550   3.772   1.533  0.4740  0.6128 -0.6532
 6008SOL    HW220979   2.504   3.633   1.493 -1.0563  1.0263 -0.3769
 6009SOL     OW20980   2.967   7.738   7.539  0.3290 -0.1432  0.3455
 6009SOL    HW120981   3.002   7.701   7.620  0.6016  0.0912  0.3372
 6009SOL    HW220982   3.028   7.808   7.516  1.1988 -1.2911 -0.9816
 6010SOL     OW20983   5.144   1.940   0.832 -0.3671  0.1910 -0.3975
 6010SOL    HW120984   5.213   1.874   0.826 -0.1538  0.3709  0.0784
 6010SOL    HW220985   5.163   2.001   0.761  0.2840  0.5471  0.0871
 6011SOL     OW20986   5.653   2.938   7.936  0.2706  0.2116 -0.3368
 6011SOL    HW120987   5.700   2.976   8.010 -0.3014 -1.1420  0.7603
 6011SOL    HW220988   5.709   2.957   7.860  2.0659 -0.4375  0.7745
 6012SOL     OW20989   6.805   5.952   4.070  0.4742  0.5710 -0.1455
 6012SOL    HW120990   6.746   6.005   4.124  0.9844  1.1690 -0.1607
 6012SOL    HW220991   6.799   5.991   3.983 -0.0439 -0.1447 -0.4464
 6013SOL     OW20992   4.498   5.294   5.296 -0.5504  0.0959  0.3835
 6013SOL    HW120993   4.591   5.274   5.307 -0.1729  1.3303 -0.2802
 6013SOL    HW220994   4.485   5.292   5.201 -1.1144  0.2461  0.4552
 6014SOL     OW20995   8.097   4.816   2.811  0.7851 -0.0592  0.2657
 6014SOL    HW120996   8.064   4.826   2.722 -1.2357 -0.8870  0.8580
 6014SOL    HW220997   8.086   4.723   2.830  1.4747  0.0485  1.2821
 6015SOL     OW20998   5.270   7.633   1.950  0.0149 -0.6398 -0.2454
 6015SOL    HW120999   5.318   7.628   1.868 -0.1384 -1.9323 -0.2855
 6015SOL    HW221000   5.179   7.618   1.926 -0.3873  1.4066 -0.1210
 6016SOL     OW21001   1.404   3.308   1.610 -0.2139  0.3382  0.0619
 6016SOL    HW121002   1.446   3.314   1.524 -1.3693  2.1125 -0.4376
 6016SOL    HW221003   1.342   3.236   1.601 -0.9169  1.0355 -0.8980
 6017SOL     OW21004   4.411   1.272   6.168 -0.2074  0.5754 -0.0464
 6017SOL    HW121005   4.422   1.178   6.182 -0.3238  0.6671  0.6853
 6017SOL    HW221006   4.499   1.308   6.178 -0.2027  0.5734 -0.0815
 6018SOL     OW21007   7.917   3.435   4.732 -0.3256  0.0783  0.4612
 6018SOL    HW121008   7.846   3.395   4.681  1.2087 -1.0681 -0.8856
 6018SOL    HW221009   7.924   3.380   4.810 -1.2051  0.4804  0.8343
 6019SOL     OW21010   4.256   6.824   2.686 -0.0525 -0.0507  0.3648
 6019SOL    HW121011   4.305   6.763   2.632 -1.2742  0.1554 -1.0528
 6019SOL    HW221012   4.211   6.881   2.623 -2.2238 -0.3455  1.5385
 6020SOL     OW21013   0.352   7.167   3.822 -0.2482 -0.1082  0.1738
 6020SOL    HW121014   0.364   7.112   3.899 -1.4011  0.0905  0.5261
 6020SOL    HW221015   0.305   7.244   3.855 -0.2876  0.2236 -0.6347
 6021SOL     OW21016   0.059   0.819   7.827 -0.1991 -0.4534  0.3288
 6021SOL    HW121017   0.068   0.908   7.794  1.8008 -0.6755  0.1071
 6021SOL    HW221018   0.019   0.829   7.914  0.9104  0.7712  0.7292
 6022SOL     OW21019   6.600   4.905   0.956  0.2818  0.0215 -0.7945
 6022SOL    HW121020   6.583   4.999   0.961 -1.4773 -0.3030  0.1616
 6022SOL    HW221021   6.585   4.882   0.864  0.1583  0.5912 -0.9187
 6023SOL     OW21022   4.069   6.704   6.921 -0.7171  0.0535  0.1925
 6023SOL    HW121023   4.006   6.714   6.849  0.4622 -0.0480 -0.8895
 6023SOL    HW221024   4.137   6.647   6.885 -1.0414 -1.6115  2.0374
 6024SOL     OW21025   1.979   2.414   1.021  0.2134  0.1254 -0.1389
 6024SOL    HW121026   2.040   2.383   1.089 -0.2006 -0.6323 -0.1025
 6024SOL    HW221027   2.027   2.485   0.977 -0.3641  2.3083  2.4528
 6025SOL     OW21028   0.184   6.794   7.954  0.0315  0.0459 -0.1459
 6025SOL    HW121029   0.223   6.713   7.986  0.7695  0.5251  0.2064
 6025SOL    HW221030   0.171   6.779   7.860 -0.0433 -0.5544 -0.0440
 6026SOL     OW21031   3.142   6.599   0.989 -0.0822  0.1036  0.7030
 6026SOL    HW121032   3.094   6.663   0.937  0.7630  0.4699  0.3480
 6026SOL    HW221033   3.165   6.530   0.927  0.4283  0.2611  0.7134
 6027SOL     OW21034   2.129   6.958   2.023 -0.0955 -0.1896  0.2003
 6027SOL    HW121035   2.181   6.878   2.017 -2.6668 -1.9508 -0.2630
 6027SOL    HW221036   2.192   7.028   2.008  2.6772 -1.9289  2.6132
 6028SOL     OW21037   3.400   6.072   2.064 -0.2222  0.4420 -0.0690
 6028SOL    HW121038   3.380   6.048   2.155 -1.1915 -0.0956 -0.4187
 6028SOL    HW221039   3.485   6.031   2.047 -1.2196 -1.6602 -0.2154
 6029SOL     OW21040   7.701   1.479   7.112 -0.1062  0.4009  0.5894
 6029SOL    HW121041   7.617   1.433   7.123  0.3729 -0.2249  1.8515
 6029SOL    HW221042   7.758   1.415   7.070  0.2031  0.2569  1.2171
 6030SOL     OW21043   6.901   0.659   4.806  0.0215  0.3494  1.0950
 6030SOL    HW121044   6.909   0.587   4.869  0.3952 -1.1368 -0.5505
 6030SOL    HW221045   6.991   0.673   4.774 -0.5321 -1.2166 -1.4298
 6031SOL     OW21046   4.547   6.806   8.014 -0.7386  0.2183 -0.0206
 6031SOL    HW121047   4.508   6.889   7.986 -0.3142  0.1892 -0.7397
 6031SOL    HW221048   4.631   6.831   8.052 -1.6169  0.3308  1.9881
 6032SOL     OW21049   7.902   6.403   8.082  0.2764  0.2371 -0.8236
 6032SOL    HW121050   7.914   6.373   7.992  0.1291  0.2274 -0.8404
 6032SOL    HW221051   7.990   6.406   8.118  0.2466 -0.6800 -0.6664
 6033SOL     OW21052   0.361   1.587   5.368  0.0258 -0.0493 -0.7190
 6033SOL    HW121053   0.415   1.572   5.445 -1.7181  1.3005  0.8467
 6033SOL    HW221054   0.391   1.521   5.305  1.7978 -0.9090  0.9179
 6034SOL     OW21055   3.115   8.071   2.348 -0.3779 -0.3417 -0.3140
 6034SOL    HW121056   3.052   8.047   2.281 -0.8320 -2.0762  0.6591
 6034SOL    HW221057   3.070   8.136   2.402 -0.2464  0.5636 -1.2638
 6035SOL     OW21058   0.699   3.244   7.998 -0.3639  0.2818 -0.0234
 6035SOL    HW121059   0.632   3.177   7.985 -1.0130  1.0631 -0.8727
 6035SOL    HW221060   0.780   3.203   7.966 -0.2351 -0.9448  1.7187
 6036SOL     OW21061   0.635   3.652   5.951  0.1528  0.0705  0.3555
 6036SOL    HW121062   0.691   3.726   5.927  0.1555  0.8260  2.5118
 6036SOL    HW221063   0.696   3.579   5.965  0.1411 -0.4388 -1.8643
 6037SOL     OW21064   7.550   3.569   7.054  0.4821 -0.0603  0.0783
 6037SOL    HW121065   7.509   3.483   7.068 -0.2499  0.6042  2.3738
 6037SOL    HW221066   7.479   3.625   7.025  0.5622  0.1828  0.3456
 6038SOL     OW21067   7.082   3.483   7.792  0.0356  0.1091 -0.3022
 6038SOL    HW121068   7.174   3.505   7.776 -0.0574  0.5264 -0.2782
 6038SOL    HW221069   7.068   3.504   7.884 -0.4014  1.1942 -0.6083
 6039SOL     OW21070   7.380   3.671   7.254  0.6841 -0.3426 -0.1358
 6039SOL    HW121071   7.461   3.653   7.206  1.5523  2.4120  0.0831
 6039SOL    HW221072   7.333   3.734   7.198  0.3815  0.7578  1.2975
 6040SOL     OW21073   4.603   1.930   3.065 -0.0626  0.0009 -0.4587
 6040SOL    HW121074   4.563   1.954   2.981  0.5400  2.4144 -0.1349
 6040SOL    HW221075   4.693   1.906   3.043 -0.0556  0.1258 -0.5697
 6041SOL     OW21076   3.486   7.900   2.692 -0.0312  0.2382  0.0969
 6041SOL    HW121077   3.473   7.944   2.608  0.0335  0.2490  0.0928
 6041SOL    HW221078   3.409   7.844   2.701  0.3296 -0.3466 -0.3304
 6042SOL     OW21079   3.417   5.047   2.366 -0.4911 -0.4931 -0.6221
 6042SOL    HW121080   3.369   5.129   2.368 -1.0399 -0.8070 -0.6343
 6042SOL    HW221081   3.471   5.049   2.445 -0.0012  0.1686 -0.9693
 6043SOL     OW21082   0.621   3.453   0.718 -0.2764 -0.3711 -0.5096
 6043SOL    HW121083   0.577   3.462   0.633  1.0799  0.0199 -1.1931
 6043SOL    HW221084   0.673   3.373   0.709 -0.9900 -0.9504  0.3701
 6044SOL     OW21085   1.468   3.158   2.596  0.0885 -0.4787 -0.1946
 6044SOL    HW121086   1.437   3.073   2.625 -0.3004 -0.4910 -0.6262
 6044SOL    HW221087   1.560   3.161   2.621 -0.0479 -0.7841  0.3516
 6045SOL     OW21088   5.082   5.676   1.533 -0.0539 -0.1891  0.0901
 6045SOL    HW121089   5.081   5.696   1.627 -0.3753  0.5907 -0.0756
 6045SOL    HW221090   5.025   5.599   1.525  1.2066 -1.2383  0.7325
 6046SOL     OW21091   2.750   0.787   6.929  0.4239 -0.6422  0.0438
 6046SOL    HW121092   2.794   0.815   7.009 -0.1445  0.4578 -0.0073
 6046SOL    HW221093   2.711   0.702   6.951  0.6377 -0.5517  0.7936
 6047SOL     OW21094   1.696   3.096   7.840 -0.0366  0.0919  0.6551
 6047SOL    HW121095   1.735   3.009   7.837  1.9754  0.9729 -1.0067
 6047SOL    HW221096   1.729   3.134   7.921 -1.0563 -0.6815  1.4762
 6048SOL     OW21097   3.021   5.713   0.076  0.1829  0.1550 -0.4337
 6048SOL    HW121098   3.022   5.776   0.004 -0.9645  0.1012 -0.5283
 6048SOL    HW221099   3.060   5.633   0.039 -0.2984  0.1619 -0.9738
 6049SOL     OW21100   1.835   1.697   6.404  0.4676  0.0310  0.4827
 6049SOL    HW121101   1.749   1.678   6.365  0.0944 -0.7153  1.5992
 6049SOL    HW221102   1.824   1.784   6.443  0.6796  0.5521 -0.5851
 6050SOL     OW21103   1.126   8.078   7.811  0.2561  0.1883  0.9300
 6050SOL    HW121104   1.185   8.003   7.812 -0.6432 -0.5615 -0.1305
 6050SOL    HW221105   1.089   8.081   7.899 -0.8277 -1.5652  0.5820
 6051SOL     OW21106   3.562   5.794   4.477  0.1321 -0.1146  0.4622
 6051SOL    HW121107   3.551   5.801   4.572  0.6439  0.6594  0.4783
 6051SOL    HW221108   3.642   5.743   4.466  1.0427  1.2377  0.4997
 6052SOL     OW21109   0.159   4.776   6.648 -0.4950 -0.0460  0.1100
 6052SOL    HW121110   0.165   4.686   6.617 -1.6228 -1.0526  2.5205
 6052SOL    HW221111   0.178   4.770   6.741 -2.4955  1.8732  0.7144
 6053SOL     OW21112   3.293   0.768   4.915 -0.2462 -0.0932  0.5436
 6053SOL    HW121113   3.295   0.749   5.008 -0.7918  1.6510  0.9495
 6053SOL    HW221114   3.227   0.837   4.906 -0.1565 -0.1746 -1.1245
 6054SOL     OW21115   2.232   1.771   5.397  0.5729  0.2228 -0.4450
 6054SOL    HW121116   2.282   1.852   5.387 -0.8463  1.2312  0.3616
 6054SOL    HW221117   2.155   1.783   5.342  1.4159 -1.5580 -2.1400
 6055SOL     OW21118   0.368   6.779   0.793 -0.0452  0.0622 -0.7320
 6055SOL    HW121119   0.431   6.773   0.721 -0.0366  1.1885 -0.8357
 6055SOL    HW221120   0.286   6.807   0.751  0.3189  2.1357 -0.1669
 6056SOL     OW21121   4.751   1.052   7.451 -0.1318  0.0660  0.0773
 6056SOL    HW121122   4.690   0.979   7.446 -0.1416  0.1743 -1.9502
 6056SOL    HW221123   4.811   1.029   7.523 -1.3475 -0.9507  0.7956
 6057SOL     OW21124   1.468   6.089   0.825 -0.6025  0.1812 -0.3968
 6057SOL    HW121125   1.464   6.048   0.911 -0.9390 -1.0510 -0.9759
 6057SOL    HW221126   1.533   6.158   0.835 -0.3178 -0.2203  0.7301
 6058SOL     OW21127   6.268   2.650   7.525 -0.0986 -0.0380 -0.1354
 6058SOL    HW121128   6.213   2.589   7.575 -0.5750  1.2186  0.9445
 6058SOL    HW221129   6.356   2.616   7.535 -0.2584 -0.1483  1.1251
 6059SOL     OW21130   7.885   7.503   5.733  0.7360 -0.2383 -0.2981
 6059SOL    HW121131   7.947   7.489   5.661  1.1239 -1.1187  0.1953
 6059SOL    HW221132   7.921   7.453   5.806 -0.3228 -0.3829  0.1400
 6060SOL     OW21133   8.027   5.691   3.434 -0.1574  0.2972  0.3323
 6060SOL    HW121134   8.076   5.735   3.364 -0.7151  1.2437  0.5188
 6060SOL    HW221135   8.065   5.725   3.514 -1.1080  1.0569  0.4815
 6061SOL     OW21136   7.345   0.898   3.560  0.6688  0.0554 -0.5352
 6061SOL    HW121137   7.314   0.810   3.540 -1.2214  0.2259  1.2985
 6061SOL    HW221138   7.396   0.923   3.483 -2.1272 -1.0607 -2.9672
 6062SOL     OW21139   7.785   5.041   7.233 -0.0061 -0.3370 -0.0340
 6062SOL    HW121140   7.839   4.989   7.173 -1.3814  0.0296 -1.6773
 6062SOL    HW221141   7.832   5.039   7.316  0.9151 -2.6495 -0.5406
 6063SOL     OW21142   1.170   6.292   0.694  0.1838  0.2580  0.6906
 6063SOL    HW121143   1.122   6.278   0.613  1.2224  1.5767 -0.2161
 6063SOL    HW221144   1.203   6.206   0.718  2.5845  0.2351 -2.1254
 6064SOL     OW21145   4.080   2.900   4.387  0.0129 -0.0601  0.1937
 6064SOL    HW121146   3.998   2.930   4.348  0.5266  0.9782 -0.1109
 6064SOL    HW221147   4.069   2.917   4.481  0.7879  2.4184 -0.0861
 6065SOL     OW21148   4.547   2.641   2.821  0.6967  0.2308  0.3432
 6065SOL    HW121149   4.621   2.651   2.761  0.8789  1.0972  0.6930
 6065SOL    HW221150   4.586   2.653   2.908  0.2750 -0.0746  0.5768
 6066SOL     OW21151   4.508   1.555   6.297 -0.3034  0.5225  0.5341
 6066SOL    HW121152   4.430   1.604   6.323  1.0490  1.7177  2.6225
 6066SOL    HW221153   4.518   1.488   6.364  0.3717  0.2804  0.1994
 6067SOL     OW21154   0.055   1.505   3.103 -0.1044 -0.2335 -0.4245
 6067SOL    HW121155  -0.015   1.456   3.061 -0.9115  0.4987  0.0376
 6067SOL    HW221156   0.011   1.562   3.165  0.7729  1.2570 -1.1133
 6068SOL     OW21157   2.756   0.932   7.423  0.1378  0.1444  0.7057
 6068SOL    HW121158   2.692   0.871   7.462  0.5912 -0.8583 -0.0730
 6068SOL    HW221159   2.744   1.013   7.472 -0.9389 -0.3722  1.3446
 6069SOL     OW21160   3.679   7.373   5.879  0.0866 -0.0315  0.2214
 6069SOL    HW121161   3.723   7.457   5.890 -1.0305  0.7026 -0.7011
 6069SOL    HW221162   3.660   7.367   5.786 -1.2058 -0.5817  0.4895
 6070SOL     OW21163   4.479   6.464   2.664  0.0214 -0.0510 -0.0710
 6070SOL    HW121164   4.470   6.527   2.593  0.2115 -1.3363 -1.2775
 6070SOL    HW221165   4.542   6.400   2.631  0.1568 -0.6432  1.2891
 6071SOL     OW21166   7.798   2.682   5.001 -0.1578 -0.2996 -0.2691
 6071SOL    HW121167   7.838   2.644   5.079 -2.9881 -3.9062 -0.2818
 6071SOL    HW221168   7.706   2.692   5.024 -0.1987  3.6986 -1.5179
 6072SOL     OW21169   0.233   1.573   2.147  0.2675 -0.0199  0.1055
 6072SOL    HW121170   0.179   1.513   2.094 -0.4787  2.1323 -1.7352
 6072SOL    HW221171   0.318   1.572   2.103  1.9778 -3.3744  2.9787
 6073SOL     OW21172   8.123   4.771   3.321  0.2397  0.1376  0.2349
 6073SOL    HW121173   8.188   4.739   3.258  3.1687 -0.4884  3.2669
 6073SOL    HW221174   8.101   4.858   3.290  1.0486 -0.3687 -1.9668
 6074SOL     OW21175   2.715   3.705   1.906 -0.7078 -0.4316  0.2387
 6074SOL    HW121176   2.796   3.746   1.934 -0.3665  1.3741 -2.8722
 6074SOL    HW221177   2.743   3.636   1.845 -1.4359  0.5230 -1.2376
 6075SOL     OW21178   2.859   3.990   0.038  0.0686  0.2432  0.0059
 6075SOL    HW121179   2.828   3.937   0.111  0.0304  1.5312  0.9714
 6075SOL    HW221180   2.953   4.001   0.054  0.4411 -1.0337 -1.1912
 6076SOL     OW21181   4.829   6.884   8.015  0.2910  0.3686  0.2648
 6076SOL    HW121182   4.795   6.973   8.005  1.2090  0.8613  1.2748
 6076SOL    HW221183   4.907   6.882   7.960 -0.4823 -0.2685 -0.8416
 6077SOL     OW21184   5.527   4.703   4.782  0.1005  0.1251  0.2222
 6077SOL    HW121185   5.474   4.683   4.705  1.2373 -4.1950  0.2905
 6077SOL    HW221186   5.467   4.690   4.856  0.3484 -1.4637  0.1810
 6078SOL     OW21187   0.559   1.523   6.870 -0.3400  0.1370 -0.5592
 6078SOL    HW121188   0.480   1.473   6.889 -0.0033  0.0422  0.6382
 6078SOL    HW221189   0.604   1.470   6.804 -0.6634 -0.4468 -0.3235
 6079SOL     OW21190   7.325   0.896   0.182 -0.1487  0.6822  0.2420
 6079SOL    HW121191   7.373   0.854   0.111 -0.6396  2.3704 -1.1394
 6079SOL    HW221192   7.392   0.910   0.250  1.2252  2.2919 -1.3296
 6080SOL     OW21193   2.503   0.657   5.339  0.1535 -0.2891  0.0897
 6080SOL    HW121194   2.479   0.676   5.430  1.0890  1.8190 -0.0414
 6080SOL    HW221195   2.580   0.601   5.345  0.0192 -0.4183  0.5942
 6081SOL     OW21196   5.864   7.771   5.256  0.2406 -0.2143 -0.1276
 6081SOL    HW121197   5.807   7.723   5.317 -0.3353  0.1196 -0.3884
 6081SOL    HW221198   5.827   7.859   5.253 -2.7176 -1.2374 -4.4047
 6082SOL     OW21199   5.957   6.785   5.146  0.4389 -0.2474 -0.8129
 6082SOL    HW121200   5.872   6.805   5.107 -0.1248  0.0472  0.4906
 6082SOL    HW221201   5.996   6.871   5.163 -0.2983 -0.2420  1.2337
 6083SOL     OW21202   5.237   2.745   0.669  0.6999  0.2439 -0.6337
 6083SOL    HW121203   5.277   2.680   0.726 -0.3372  0.3374  0.2359
 6083SOL    HW221204   5.240   2.706   0.581 -1.3769 -1.7410  0.0974
 6084SOL     OW21205   5.337   3.006   3.066 -0.0526 -0.3700  0.3514
 6084SOL    HW121206   5.319   2.979   2.976  1.4657 -0.2172 -0.0235
 6084SOL    HW221207   5.333   3.101   3.064  0.7626 -0.3309  0.2542
 6085SOL     OW21208   3.391   3.349   4.775 -0.0743 -0.3496 -0.3311
 6085SOL    HW121209   3.459   3.321   4.837 -1.0625 -0.2428  0.8569
 6085SOL    HW221210   3.424   3.323   4.689  1.8777  0.5252  0.0997
 6086SOL     OW21211   1.918   0.836   7.479  0.4028  0.0347  0.2814
 6086SOL    HW121212   1.892   0.788   7.558 -1.1916  0.0748 -0.1669
 6086SOL    HW221213   1.952   0.769   7.420 -1.2362 -0.5205 -0.1077
 6087SOL     OW21214   7.037   7.693   2.645 -0.0158 -0.1974  0.3653
 6087SOL    HW121215   7.048   7.738   2.562  3.8584 -1.4563  0.0345
 6087SOL    HW221216   7.029   7.764   2.710  0.7804  0.8711 -0.6606
 6088SOL     OW21217   7.863   0.092   3.193  0.2500  0.7024  0.0334
 6088SOL    HW121218   7.851   0.047   3.110 -1.6374 -1.3438  1.3179
 6088SOL    HW221219   7.791   0.155   3.197  0.3212  0.7786  0.1187
 6089SOL     OW21220   3.861   6.174   7.256 -0.1611  0.6985  0.3125
 6089SOL    HW121221   3.924   6.145   7.322  0.7348  0.1463 -0.7474
 6089SOL    HW221222   3.806   6.097   7.241 -0.6263  0.9489  0.6872
 6090SOL     OW21223   7.120   3.317   7.257 -0.4457  0.5376 -0.5889
 6090SOL    HW121224   7.040   3.317   7.309 -0.7901  3.3414 -0.9423
 6090SOL    HW221225   7.113   3.240   7.201 -1.6069 -0.7242  1.2086
 6091SOL     OW21226   2.920   6.450   2.932  0.6970  0.2747  0.7694
 6091SOL    HW121227   3.012   6.427   2.916  0.7277  1.4228 -0.9482
 6091SOL    HW221228   2.924   6.523   2.994  1.0044  0.8745  0.0557
 6092SOL     OW21229   6.130   3.071   5.130 -0.2480  0.3763  0.0095
 6092SOL    HW121230   6.165   3.021   5.204 -3.2302 -0.6913  0.8255
 6092SOL    HW221231   6.056   3.119   5.166 -2.1155 -0.5596 -2.2968
 6093SOL     OW21232   5.304   7.825   4.399  0.2305  0.2398  0.0967
 6093SOL    HW121233   5.220   7.843   4.356 -0.9703 -0.5432  1.9470
 6093SOL    HW221234   5.307   7.729   4.406  2.2583  0.1137 -1.6829
 6094SOL     OW21235   2.776   3.989   6.373 -0.1275  0.3232 -0.1480
 6094SOL    HW121236   2.756   3.898   6.348 -0.6877  0.2270  0.6193
 6094SOL    HW221237   2.757   3.993   6.467 -1.7414  1.6579 -0.4742
 6095SOL     OW21238   0.416   2.627   7.652 -0.3934  0.1565 -0.1902
 6095SOL    HW121239   0.406   2.678   7.732 -1.2388  0.2826 -0.3700
 6095SOL    HW221240   0.355   2.554   7.663 -0.3344  0.0436 -0.6147
 6096SOL     OW21241   6.307   1.370   6.728  0.0704  0.1753 -0.2752
 6096SOL    HW121242   6.245   1.305   6.761  0.2373  2.0531  4.5220
 6096SOL    HW221243   6.393   1.335   6.751  0.2774  1.0033  0.2599
 6097SOL     OW21244   1.934   6.866   4.569  0.0622  0.5157  0.0964
 6097SOL    HW121245   1.893   6.781   4.583  1.7252 -0.0396  2.0992
 6097SOL    HW221246   1.931   6.908   4.655  2.8246  0.7689  0.1548
 6098SOL     OW21247   7.733   0.918   6.154  0.3381 -0.3170 -0.4757
 6098SOL    HW121248   7.742   1.014   6.153 -1.9188  0.0507  2.4375
 6098SOL    HW221249   7.813   0.888   6.197  2.6429 -0.1798 -4.2542
 6099SOL     OW21250   1.699   3.075   5.159 -0.3469 -0.5113 -0.1322
 6099SOL    HW121251   1.605   3.089   5.170 -0.3782  0.7668 -1.6758
 6099SOL    HW221252   1.717   2.993   5.206 -2.3432 -1.1306 -0.3654
 6100SOL     OW21253   1.808   7.771   1.045  0.3651 -0.3376  0.5353
 6100SOL    HW121254   1.883   7.766   1.103  0.8405 -0.4555 -0.0746
 6100SOL    HW221255   1.836   7.725   0.965 -0.6834 -1.2198  0.6460
 6101SOL     OW21256   7.971   5.986   4.254  0.2910 -0.1971 -0.1829
 6101SOL    HW121257   7.929   6.060   4.298 -1.9600 -1.3297 -0.3287
 6101SOL    HW221258   8.019   5.941   4.323 -2.0122 -1.1186  0.8816
 6102SOL     OW21259   4.944   5.655   3.623 -0.3458  0.1690 -0.4600
 6102SOL    HW121260   4.915   5.614   3.541 -1.6716 -0.5797  0.3451
 6102SOL    HW221261   5.002   5.725   3.595 -0.9976  0.1237 -2.0697
 6103SOL     OW21262   6.170   1.241   1.888 -0.2596 -0.8820 -0.3026
 6103SOL    HW121263   6.137   1.187   1.960 -0.5171 -0.5740 -0.1892
 6103SOL    HW221264   6.237   1.187   1.847 -0.0275 -1.0102  0.2420
 6104SOL     OW21265   0.109   7.221   6.448  0.0246 -0.2921 -0.1720
 6104SOL    HW121266   0.108   7.303   6.398 -0.2477 -0.3203 -0.2106
 6104SOL    HW221267   0.058   7.240   6.527 -0.3620 -0.5396 -0.3601
 6105SOL     OW21268   6.313   7.711   3.552 -0.0806  0.7630  0.1384
 6105SOL    HW121269   6.249   7.649   3.585  0.0459  0.4168 -0.2726
 6105SOL    HW221270   6.263   7.792   3.540 -0.3510  0.6074  0.1959
 6106SOL     OW21271   7.121   3.680   4.627 -0.3716  0.7792 -0.4838
 6106SOL    HW121272   7.115   3.615   4.697  1.3173 -0.2476 -1.2174
 6106SOL    HW221273   7.215   3.698   4.620 -0.4495  0.5404 -2.7496
 6107SOL     OW21274   6.119   4.673   6.125  0.8217  0.0973 -0.4178
 6107SOL    HW121275   6.060   4.741   6.159 -1.1572 -1.4796 -0.4934
 6107SOL    HW221276   6.184   4.721   6.074 -1.2787  1.8815 -1.6085
 6108SOL     OW21277   0.596   4.297   0.603 -0.0425  0.7189 -0.8071
 6108SOL    HW121278   0.506   4.290   0.573  0.2755 -2.2822 -1.3634
 6108SOL    HW221279   0.646   4.241   0.544  1.6588 -0.1841  1.3227
 6109SOL     OW21280   6.484   6.515   6.448 -0.1978  0.4486 -0.5417
 6109SOL    HW121281   6.451   6.595   6.490 -0.9595 -0.2990  0.3370
 6109SOL    HW221282   6.416   6.490   6.386 -0.2101  0.1866 -0.4244
 6110SOL     OW21283   4.656   1.528   4.744 -0.4564 -0.1386  0.0820
 6110SOL    HW121284   4.601   1.454   4.772 -0.9680  0.7048  1.4138
 6110SOL    HW221285   4.656   1.523   4.649 -0.3344 -1.9484  0.1369
 6111SOL     OW21286   6.122   7.182   2.844 -0.2517 -0.0378  0.0410
 6111SOL    HW121287   6.134   7.273   2.871  1.1001  0.4151 -1.8470
 6111SOL    HW221288   6.065   7.186   2.767  1.4772 -0.5032 -1.3470
 6112SOL     OW21289   5.929   4.410   6.169  0.4102  0.2471  0.0804
 6112SOL    HW121290   5.987   4.483   6.144  0.4788  0.1035 -0.1878
 6112SOL    HW221291   5.923   4.416   6.264 -0.4917  1.2952 -0.0244
 6113SOL     OW21292   1.008   5.211   1.082 -0.4116 -0.1367 -0.0472
 6113SOL    HW121293   0.983   5.222   1.173 -2.6814  0.5810 -0.6704
 6113SOL    HW221294   1.063   5.287   1.063 -1.2374  0.5845  0.3474
 6114SOL     OW21295   8.042   3.487   2.065 -0.1296  0.0926 -0.3178
 6114SOL    HW121296   8.047   3.560   2.126 -2.9034  0.3493 -0.2729
 6114SOL    HW221297   8.082   3.519   1.985  0.3552  0.9960  0.2720
 6115SOL     OW21298   4.897   6.442   8.045  0.5302  0.1049  0.0637
 6115SOL    HW121299   4.955   6.492   7.988 -0.3421 -0.6820 -1.6041
 6115SOL    HW221300   4.813   6.488   8.041  0.0821 -0.7300 -0.4245
 6116SOL     OW21301   4.244   4.958   7.146  0.2800 -0.1722  0.4624
 6116SOL    HW121302   4.240   4.923   7.057  1.4692  0.0017  0.3224
 6116SOL    HW221303   4.320   4.915   7.186 -0.8229 -0.9961  1.7415
 6117SOL     OW21304   1.646   2.223   7.117  0.4676 -0.2588  0.5353
 6117SOL    HW121305   1.617   2.240   7.207  2.1275  1.0127  0.8843
 6117SOL    HW221306   1.650   2.128   7.111 -0.4218 -0.3852  1.5493
 6118SOL     OW21307   6.165   7.066   1.777  0.9084 -0.2838 -0.1498
 6118SOL    HW121308   6.233   7.107   1.830 -0.0902 -0.5130  1.3804
 6118SOL    HW221309   6.146   7.130   1.708  1.7202  0.3559  0.2091
 6119SOL     OW21310   7.202   6.941   0.487 -0.6178 -0.0352 -0.2897
 6119SOL    HW121311   7.163   6.999   0.421 -1.0478  3.0266  2.4048
 6119SOL    HW221312   7.293   6.971   0.494 -0.8408  0.3519  1.1348
 6120SOL     OW21313   2.002   1.604   2.537 -0.4137  0.2075 -0.3828
 6120SOL    HW121314   2.000   1.510   2.521 -1.3142  0.0662  0.4655
 6120SOL    HW221315   2.063   1.639   2.472 -0.6048 -0.8717 -1.1491
 6121SOL     OW21316   4.285   6.865   7.461 -0.0124  0.2937  0.8205
 6121SOL    HW121317   4.329   6.920   7.525  1.2083 -1.4043  1.5143
 6121SOL    HW221318   4.200   6.845   7.500 -0.1808  1.0860  0.8719
 6122SOL     OW21319   2.151   6.067   6.374  0.0584  0.6635 -0.1339
 6122SOL    HW121320   2.133   6.073   6.468 -0.6024  0.5546 -0.2506
 6122SOL    HW221321   2.175   5.976   6.359  2.1343  1.0814  0.2532
 6123SOL     OW21322   3.683   2.188   7.616  0.1153 -0.8055  0.0526
 6123SOL    HW121323   3.754   2.239   7.578 -1.0515 -0.1090 -1.2597
 6123SOL    HW221324   3.647   2.245   7.684 -0.3184 -0.4283 -0.4897
 6124SOL     OW21325   1.585   4.049   0.260 -0.0259 -0.6482 -0.8044
 6124SOL    HW121326   1.491   4.061   0.273  0.2944  2.1514 -0.3546
 6124SOL    HW221327   1.615   4.005   0.340 -0.7469 -0.0396 -0.1823
 6125SOL     OW21328   3.968   0.391   2.561 -0.0303 -0.2409  0.0082
 6125SOL    HW121329   3.915   0.354   2.632  1.4008 -2.0965  0.1729
 6125SOL    HW221330   4.053   0.409   2.602 -0.2667  2.1766 -0.3875
 6126SOL     OW21331   1.267   7.824   1.298  0.9956 -0.6492  0.1882
 6126SOL    HW121332   1.184   7.817   1.345  0.7843  0.1302 -0.0534
 6126SOL    HW221333   1.299   7.912   1.319  0.0534  0.4147 -2.4586
 6127SOL     OW21334   0.803   7.976   6.277  0.7454  0.1562 -0.2854
 6127SOL    HW121335   0.756   7.899   6.309  0.4187  0.2954 -0.4214
 6127SOL    HW221336   0.894   7.947   6.268  0.5357 -0.3719 -0.8362
 6128SOL     OW21337   1.580   1.111   6.352 -0.1033  0.1860  0.4951
 6128SOL    HW121338   1.635   1.114   6.273 -1.6092  0.1563 -0.6058
 6128SOL    HW221339   1.640   1.129   6.424  1.9069 -2.4301 -0.3448
 6129SOL     OW21340   1.991   5.525   6.111  0.0529  0.0550 -0.4459
 6129SOL    HW121341   2.057   5.461   6.138 -0.3878 -0.5783 -0.8287
 6129SOL    HW221342   2.040   5.605   6.095  0.7617 -0.4619 -0.9220
 6130SOL     OW21343   5.653   3.628   4.281  0.2601 -0.4119  0.1793
 6130SOL    HW121344   5.686   3.697   4.339 -0.7491  1.0852 -0.9376
 6130SOL    HW221345   5.560   3.622   4.302  0.4036 -1.7031  0.4972
 6131SOL     OW21346   6.639   2.793   3.527 -0.9125 -0.5459  0.4477
 6131SOL    HW121347   6.680   2.877   3.545  0.5709 -1.7730  3.3531
 6131SOL    HW221348   6.560   2.793   3.581 -0.9199 -1.0096  0.4398
 6132SOL     OW21349   0.693   7.899   1.202 -0.0680 -0.0556  0.5840
 6132SOL    HW121350   0.760   7.831   1.206  0.3136  0.2949  0.1782
 6132SOL    HW221351   0.623   7.861   1.148  0.9084  0.5195 -1.1576
 6133SOL     OW21352   1.177   4.445   5.563  0.1494 -0.0582 -0.1371
 6133SOL    HW121353   1.252   4.411   5.610  0.9768  0.6147 -0.9373
 6133SOL    HW221354   1.178   4.540   5.581  0.7626  0.2876 -1.8496
 6134SOL     OW21355   2.346   6.717   1.726 -0.3352  0.2868 -0.0509
 6134SOL    HW121356   2.265   6.697   1.679  0.6171 -1.0504 -1.2377
 6134SOL    HW221357   2.414   6.714   1.658  0.7008  1.6058  0.8667
 6135SOL     OW21358   7.064   6.767   2.559  0.3572  0.5213  0.3036
 6135SOL    HW121359   6.992   6.788   2.619 -0.5038 -0.8385 -0.1981
 6135SOL    HW221360   7.021   6.759   2.473  1.3803  1.2760 -0.2979
 6136SOL     OW21361   5.493   3.584   6.985 -0.3373  0.0691  0.5761
 6136SOL    HW121362   5.570   3.641   6.990  0.2394 -0.5855 -0.4465
 6136SOL    HW221363   5.504   3.522   7.057 -1.1370  1.3996  1.9069
 6137SOL     OW21364   7.328   5.634   0.781 -0.4997  0.5952  0.0174
 6137SOL    HW121365   7.389   5.707   0.783 -0.1898  0.3223  1.9910
 6137SOL    HW221366   7.242   5.675   0.783 -0.3598  0.9123 -0.2148
 6138SOL     OW21367   2.233   0.745   3.910 -0.0874 -0.4430  0.2864
 6138SOL    HW121368   2.247   0.819   3.969 -1.3165  0.2226 -0.2257
 6138SOL    HW221369   2.320   0.708   3.897  1.1760  2.9251 -2.0652
 6139SOL     OW21370   3.770   0.284   0.198  0.5937  0.2055 -0.6521
 6139SOL    HW121371   3.694   0.337   0.221  0.7103 -0.2984  0.9607
 6139SOL    HW221372   3.831   0.295   0.270  0.8651 -1.6472 -0.5402
 6140SOL     OW21373   6.405   2.819   0.557  0.0182  0.0112  0.5642
 6140SOL    HW121374   6.463   2.843   0.629  0.4821  0.7157 -0.0319
 6140SOL    HW221375   6.385   2.902   0.514  0.5665 -0.4999 -0.7307
 6141SOL     OW21376   7.551   8.075   2.477  0.6354  0.2821 -0.0345
 6141SOL    HW121377   7.510   7.990   2.488 -0.7580  1.0115  0.5947
 6141SOL    HW221378   7.578   8.077   2.385 -0.5734 -0.2989 -0.4181
 6142SOL     OW21379   3.418   4.759   6.535  0.2626 -0.1980 -0.2092
 6142SOL    HW121380   3.364   4.682   6.515 -0.3615  0.1540  0.0809
 6142SOL    HW221381   3.369   4.805   6.603  0.9358  0.1383  0.0520
 6143SOL     OW21382   8.076   2.498   7.202 -0.3645 -0.7435 -0.1124
 6143SOL    HW121383   7.998   2.541   7.239 -0.0510 -0.2099 -0.0632
 6143SOL    HW221384   8.147   2.524   7.260  0.6139  2.1564 -2.3927
 6144SOL     OW21385   0.799   3.969   6.448  0.1343  0.3717 -0.1959
 6144SOL    HW121386   0.783   4.059   6.478 -0.0656  0.7803 -1.4673
 6144SOL    HW221387   0.878   3.976   6.394 -0.6789  0.0722 -1.4729
 6145SOL     OW21388   5.171   3.913   3.116 -0.3064 -0.3540  0.1037
 6145SOL    HW121389   5.096   3.867   3.079 -0.0313  0.1035 -1.0692
 6145SOL    HW221390   5.195   3.977   3.049  0.5391  0.1479  0.8703
 6146SOL     OW21391   5.509   0.736   4.983  0.4078  0.2389 -0.4347
 6146SOL    HW121392   5.516   0.673   4.912  1.0016 -0.4339  0.2075
 6146SOL    HW221393   5.590   0.788   4.977  1.0505 -0.6202  0.4824
 6147SOL     OW21394   3.899   5.308   7.332  0.1938  0.1134  0.1257
 6147SOL    HW121395   3.884   5.214   7.320  0.2637  0.0385  0.6085
 6147SOL    HW221396   3.828   5.336   7.390  0.2029  0.3495  0.0252
 6148SOL     OW21397   2.583   2.597   1.323 -0.1514  0.0816 -0.4241
 6148SOL    HW121398   2.668   2.611   1.365  0.3373  0.5353 -1.5282
 6148SOL    HW221399   2.598   2.618   1.231 -1.1455 -1.0781 -0.8777
 6149SOL     OW21400   7.116   3.357   4.966  0.5251 -0.0994 -0.3109
 6149SOL    HW121401   7.082   3.445   4.954  1.4771  0.0969 -1.9065
 6149SOL    HW221402   7.042   3.300   4.944 -0.0420  0.2865  0.5592
 6150SOL     OW21403   5.563   5.259   5.245 -0.3313  0.0327  0.2049
 6150SOL    HW121404   5.592   5.347   5.224  1.4290 -0.5261  0.0890
 6150SOL    HW221405   5.582   5.249   5.339  1.4194 -0.8625 -0.1982
 6151SOL     OW21406   6.300   2.500   2.569 -0.1719 -0.2800  0.1455
 6151SOL    HW121407   6.205   2.497   2.552  0.1104 -2.1416 -1.4323
 6151SOL    HW221408   6.322   2.593   2.563 -2.2723  0.5726  3.2502
 6152SOL     OW21409   2.048   3.612   5.128  0.2455  0.2046 -0.1965
 6152SOL    HW121410   1.972   3.560   5.152  0.3758 -0.6760 -1.5844
 6152SOL    HW221411   2.014   3.678   5.067  0.5481 -0.0915 -0.6955
 6153SOL     OW21412   4.303   5.746   0.696 -0.4530 -0.4819 -0.0699
 6153SOL    HW121413   4.356   5.797   0.757  0.7430 -0.2682 -1.2385
 6153SOL    HW221414   4.232   5.804   0.670 -0.1908 -0.0974  0.0772
 6154SOL     OW21415   6.007   1.425   0.199  0.3707 -0.4076 -0.4112
 6154SOL    HW121416   5.941   1.396   0.136 -0.0173 -0.2137 -0.1011
 6154SOL    HW221417   6.034   1.345   0.244 -0.4613 -0.3471  0.2193
 6155SOL     OW21418   2.525   4.056   0.824  0.5721  0.3286 -0.0469
 6155SOL    HW121419   2.459   4.042   0.756 -1.8456  4.8196  0.9650
 6155SOL    HW221420   2.598   4.097   0.778  1.0556 -1.0698 -0.5775
 6156SOL     OW21421   3.998   1.786   3.354  0.1041  0.3716  0.3253
 6156SOL    HW121422   3.989   1.843   3.278  0.4603  0.3189  0.2423
 6156SOL    HW221423   4.008   1.698   3.317  0.9331  0.4214  0.4024
 6157SOL     OW21424   1.697   6.790   7.420  0.0027 -0.3654  0.4437
 6157SOL    HW121425   1.615   6.743   7.434  0.7376 -1.9057 -0.1190
 6157SOL    HW221426   1.695   6.814   7.327 -1.1646  2.4223  1.0908
 6158SOL     OW21427   0.465   3.612   2.459 -0.5175 -0.2727 -0.2016
 6158SOL    HW121428   0.554   3.593   2.490 -0.0568  0.6881 -0.9018
 6158SOL    HW221429   0.439   3.690   2.507  0.6307  1.9156 -2.8860
 6159SOL     OW21430   6.999   0.078   5.250  0.3965 -1.2912 -0.2588
 6159SOL    HW121431   6.931   0.064   5.185  1.4450  0.2983 -1.7789
 6159SOL    HW221432   7.046   0.156   5.221  1.7052 -1.2325  1.7448
 6160SOL     OW21433   1.007   1.343   2.683  0.5827  0.0847  0.3196
 6160SOL    HW121434   1.016   1.247   2.680  1.0325  0.1185  0.5112
 6160SOL    HW221435   1.039   1.367   2.770 -3.3398  0.0355  1.9824
 6161SOL     OW21436   7.077   7.905   6.767 -0.0827  0.6317 -0.2830
 6161SOL    HW121437   7.138   7.844   6.726 -0.9091 -0.4858  0.0818
 6161SOL    HW221438   7.126   7.986   6.775  0.4985  0.5422 -2.3510
 6162SOL     OW21439   7.159   3.290   1.708 -0.5136 -0.5307 -0.1477
 6162SOL    HW121440   7.157   3.213   1.651 -2.4619 -0.1312 -0.6661
 6162SOL    HW221441   7.110   3.357   1.661  3.3664  2.0328 -0.9820
 6163SOL     OW21442   5.808   2.760   4.616  0.1811 -0.0886 -0.5865
 6163SOL    HW121443   5.725   2.774   4.570 -0.0452  1.8542  0.2816
 6163SOL    HW221444   5.817   2.838   4.672  1.7382 -1.0932  0.6380
 6164SOL     OW21445   6.659   7.284   0.239  0.0315  0.3924 -0.6158
 6164SOL    HW121446   6.701   7.370   0.241  1.1082 -0.1299 -0.2610
 6164SOL    HW221447   6.680   7.248   0.153  1.8428 -0.5814  0.1735
 6165SOL     OW21448   7.870   2.959   6.933  0.3481 -0.1892  0.3716
 6165SOL    HW121449   7.952   3.006   6.945  0.8084 -0.4279 -1.5220
 6165SOL    HW221450   7.869   2.894   7.004  2.5362 -1.1875 -0.4373
 6166SOL     OW21451   6.196   0.312   5.588  0.0953  0.2925  0.1666
 6166SOL    HW121452   6.273   0.303   5.645 -0.2578 -2.1410  0.3541
 6166SOL    HW221453   6.228   0.291   5.500  0.2603  2.3162 -0.2960
 6167SOL     OW21454   1.637   7.807   3.811  0.0974 -0.6059 -1.2483
 6167SOL    HW121455   1.618   7.713   3.820 -0.0704 -0.5057 -0.4837
 6167SOL    HW221456   1.554   7.845   3.784  0.2687 -0.7274 -1.9680
 6168SOL     OW21457   6.569   4.800   3.908 -0.0891 -0.3508  0.3952
 6168SOL    HW121458   6.515   4.793   3.986  1.1691  0.6117  1.4042
 6168SOL    HW221459   6.612   4.714   3.900 -1.0308 -0.8039  0.1190
 6169SOL     OW21460   7.182   2.250   0.560 -0.1454  0.1295  0.2930
 6169SOL    HW121461   7.125   2.194   0.615 -0.8036 -0.1634 -0.6620
 6169SOL    HW221462   7.166   2.220   0.471  0.5249  0.9495 -0.1157
 6170SOL     OW21463   6.561   5.487   5.156 -0.4390 -0.0077  0.9350
 6170SOL    HW121464   6.656   5.500   5.147  0.1070 -1.6473  3.2748
 6170SOL    HW221465   6.525   5.575   5.161  1.0752  0.6438  0.8262
 6171SOL     OW21466   4.611   5.158   3.789 -0.1925 -0.5406 -0.3585
 6171SOL    HW121467   4.544   5.225   3.778 -0.7181 -1.2854 -1.8609
 6171SOL    HW221468   4.658   5.157   3.706 -0.4273 -2.2808 -0.5074
 6172SOL     OW21469   7.079   7.078   5.538 -0.1555 -0.1505  0.1089
 6172SOL    HW121470   7.006   7.074   5.476  0.6364 -0.2016 -0.8402
 6172SOL    HW221471   7.089   7.171   5.558  0.0626 -0.0558 -0.4266
 6173SOL     OW21472   4.147   2.864   4.922 -0.0846  0.6007  0.4109
 6173SOL    HW121473   4.130   2.917   4.844  2.0291  0.7716  0.0124
 6173SOL    HW221474   4.182   2.782   4.889 -0.4380  0.1453  1.1383
 6174SOL     OW21475   7.360   3.753   6.963 -0.9465 -0.4657 -0.0269
 6174SOL    HW121476   7.298   3.785   6.898 -1.7138 -1.9651 -0.0886
 6174SOL    HW221477   7.435   3.813   6.957 -2.1889  1.1261 -0.2447
 6175SOL     OW21478   3.291   1.261   7.299  0.2480 -0.4372  0.1807
 6175SOL    HW121479   3.199   1.287   7.292  0.5606  0.3999 -1.0132
 6175SOL    HW221480   3.338   1.321   7.241  1.8360  0.5149  2.3402
 6176SOL     OW21481   0.128   2.162   3.994 -0.0794 -0.2132 -0.0211
 6176SOL    HW121482   0.044   2.116   3.990  0.2733 -0.8098 -0.9891
 6176SOL    HW221483   0.105   2.249   4.027 -1.0083 -0.5233  0.1963
 6177SOL     OW21484   4.181   5.636   2.336 -0.5541  0.0063  0.6751
 6177SOL    HW121485   4.114   5.702   2.316 -1.4563 -0.6455  1.4130
 6177SOL    HW221486   4.241   5.639   2.262 -1.5814  0.3916 -0.1730
 6178SOL     OW21487   1.968   5.629   0.655  0.2159 -0.4686 -0.7684
 6178SOL    HW121488   1.983   5.723   0.658 -1.7646 -0.0636 -1.8191
 6178SOL    HW221489   2.040   5.595   0.601  0.0148  0.7017 -1.8271
 6179SOL     OW21490   2.809   5.715   4.040 -0.0512 -0.2055  0.3695
 6179SOL    HW121491   2.777   5.804   4.027 -0.1133 -0.4394 -1.3882
 6179SOL    HW221492   2.733   5.659   4.023  0.2896 -0.6296  0.2125
 6180SOL     OW21493   4.396   4.825   1.839 -0.6810  0.1787  0.7440
 6180SOL    HW121494   4.419   4.733   1.834 -1.3704  0.0363 -0.1103
 6180SOL    HW221495   4.417   4.860   1.752 -0.4506  0.8226  1.0492
 6181SOL     OW21496   3.415   1.878   1.951 -0.1126  0.0591  0.3836
 6181SOL    HW121497   3.337   1.823   1.956 -0.9877  1.1113 -0.9841
 6181SOL    HW221498   3.480   1.824   1.904 -0.8577  0.0592 -0.6812
 6182SOL     OW21499   5.237   7.996   2.626  0.1915  0.1393  0.2547
 6182SOL    HW121500   5.196   8.074   2.588  1.2728  0.0472 -1.1782
 6182SOL    HW221501   5.168   7.956   2.679 -0.1784  2.4796  1.6877
 6183SOL     OW21502   3.513   1.668   2.370 -0.5399  0.5259 -0.0542
 6183SOL    HW121503   3.524   1.632   2.282  0.5653  1.5479 -0.3734
 6183SOL    HW221504   3.419   1.669   2.384 -0.6676 -1.3458 -0.4796
 6184SOL     OW21505   5.060   5.231   6.914  0.0557  0.1184 -0.0759
 6184SOL    HW121506   4.979   5.187   6.941 -0.5665  1.1991 -0.1090
 6184SOL    HW221507   5.105   5.250   6.996  0.7580 -1.3204 -0.0976
 6185SOL     OW21508   5.937   6.657   0.414  0.7122 -0.4193  0.3687
 6185SOL    HW121509   5.988   6.590   0.369  0.1836 -0.0818 -0.7697
 6185SOL    HW221510   5.863   6.673   0.356 -0.1733 -0.2042  1.5299
 6186SOL     OW21511   7.111   6.995   0.754  0.1058 -0.2379  0.3749
 6186SOL    HW121512   7.142   6.970   0.666  1.4653  0.1163  0.7268
 6186SOL    HW221513   7.047   6.928   0.776  1.7543 -1.9453  0.2202
 6187SOL     OW21514   1.844   4.263   6.997 -0.0777  0.4091  0.8190
 6187SOL    HW121515   1.920   4.220   7.036 -0.9536 -0.6839  1.3614
 6187SOL    HW221516   1.880   4.308   6.920  0.7734 -2.1252 -0.3977
 6188SOL     OW21517   3.396   3.485   5.048 -0.8782 -0.5796  0.3322
 6188SOL    HW121518   3.371   3.558   5.105 -2.8036 -0.7627 -0.2034
 6188SOL    HW221519   3.356   3.505   4.964 -0.7670 -1.8672 -0.0507
 6189SOL     OW21520   3.844   2.003   3.454  0.5396  0.4646 -0.2084
 6189SOL    HW121521   3.898   1.924   3.445  0.9548  0.4054  2.2554
 6189SOL    HW221522   3.756   1.969   3.470  0.5671  0.5119  0.0409
 6190SOL     OW21523   6.457   3.695   6.905 -0.3200  0.1007 -0.0992
 6190SOL    HW121524   6.418   3.777   6.874  0.3014  0.7511  0.8053
 6190SOL    HW221525   6.511   3.664   6.832  0.0722  0.9134 -0.1559
 6191SOL     OW21526   4.830   4.264   1.657 -0.1592  0.1878  0.3324
 6191SOL    HW121527   4.738   4.255   1.635 -0.0131 -0.1585 -0.1347
 6191SOL    HW221528   4.856   4.178   1.691  0.1357  0.1106 -0.0780
 6192SOL     OW21529   5.505   0.780   0.075  0.3930  0.4085  0.5841
 6192SOL    HW121530   5.471   0.799   0.162  0.7534 -1.2677  1.1214
 6192SOL    HW221531   5.600   0.796   0.082  0.5221 -0.4005  0.7025
 6193SOL     OW21532   6.757   3.249   0.003 -0.7367 -0.2982  0.0588
 6193SOL    HW121533   6.773   3.328  -0.048  0.8155  0.1766  1.2024
 6193SOL    HW221534   6.663   3.251   0.021 -0.6818  1.4342  0.2980
 6194SOL     OW21535   6.683   5.589   6.394  0.5016  0.0678  0.1916
 6194SOL    HW121536   6.655   5.635   6.315  0.9195  0.5495  0.3208
 6194SOL    HW221537   6.601   5.574   6.443  0.1038 -1.1927 -0.8166
 6195SOL     OW21538   2.398   3.482   7.037  0.5758 -0.5616 -0.4689
 6195SOL    HW121539   2.331   3.547   7.015  1.2326 -0.5302 -2.4894
 6195SOL    HW221540   2.348   3.405   7.064 -0.2209  0.3703  0.8640
 6196SOL     OW21541   3.019   7.778   1.640 -0.6567  0.5030  0.7887
 6196SOL    HW121542   3.073   7.857   1.632 -0.6650  0.5510  1.1842
 6196SOL    HW221543   3.059   7.715   1.580 -1.9685  1.5162 -1.2518
 6197SOL     OW21544   0.625   7.212   5.617  0.2062 -0.3004 -0.0857
 6197SOL    HW121545   0.658   7.231   5.705  2.2751  2.7107 -1.3204
 6197SOL    HW221546   0.681   7.141   5.585  3.2927  2.1156 -0.6884
 6198SOL     OW21547   0.847   5.397   3.677 -0.2098  0.0930 -0.2063
 6198SOL    HW121548   0.814   5.361   3.759  0.1348  1.8604  0.7553
 6198SOL    HW221549   0.942   5.385   3.681  0.0195  1.8506  0.5651
 6199SOL     OW21550   5.186   4.527   0.560 -0.2493 -0.0890  0.2144
 6199SOL    HW121551   5.251   4.502   0.626  2.5330  1.3217 -1.8038
 6199SOL    HW221552   5.164   4.617   0.581  0.9148  0.4852 -0.8930
 6200SOL     OW21553   5.307   0.860   6.497  0.2526 -0.1052  0.1123
 6200SOL    HW121554   5.235   0.903   6.451  0.2292 -1.6509 -1.3431
 6200SOL    HW221555   5.265   0.790   6.547  0.5793 -0.0436  0.4755
 6201SOL     OW21556   3.791   3.443   1.335  0.4794  0.1490  0.1592
 6201SOL    HW121557   3.697   3.458   1.341  1.1050  5.2396  3.1088
 6201SOL    HW221558   3.816   3.484   1.252  0.3119  0.9379  0.4904
 6202SOL     OW21559   2.306   0.503   4.558  0.0659 -0.3063 -0.3837
 6202SOL    HW121560   2.344   0.587   4.531 -1.6395  0.7686  0.3887
 6202SOL    HW221561   2.327   0.496   4.651 -2.5566  0.9251  0.3811
 6203SOL     OW21562   5.146   2.139   6.076  0.1126  0.1276  0.5303
 6203SOL    HW121563   5.147   2.224   6.119  1.6829  0.9011 -0.9468
 6203SOL    HW221564   5.180   2.078   6.142  1.1409  1.0370  0.8584
 6204SOL     OW21565   1.397   2.598   1.014  0.3850 -0.5723  0.0595
 6204SOL    HW121566   1.445   2.598   1.097 -0.7942 -1.6822  0.7777
 6204SOL    HW221567   1.359   2.685   1.008  1.1895 -0.2048  0.2594
 6205SOL     OW21568   0.982   6.199   4.607 -0.3044 -0.2135 -0.2304
 6205SOL    HW121569   0.890   6.210   4.585 -0.1513  2.7827  0.2397
 6205SOL    HW221570   1.029   6.216   4.525 -0.1187 -1.0503 -0.3092
 6206SOL     OW21571   3.306   3.067   5.171  0.1950  0.3768  0.0893
 6206SOL    HW121572   3.381   3.083   5.114  0.2670  2.2059  0.6631
 6206SOL    HW221573   3.320   3.123   5.247 -1.8247  0.8747  0.1469
 6207SOL     OW21574   5.138   0.195   6.119  0.6125 -0.5193  0.2644
 6207SOL    HW121575   5.120   0.211   6.211  0.2405 -0.1993  0.1358
 6207SOL    HW221576   5.218   0.246   6.101  0.4385 -0.2345  0.3004
 6208SOL     OW21577   3.145   5.636   7.685 -0.2233 -0.3693 -0.1684
 6208SOL    HW121578   3.161   5.718   7.637 -1.0014 -0.1127 -0.0146
 6208SOL    HW221579   3.231   5.598   7.698  0.1348  0.3492 -0.3971
 6209SOL     OW21580   3.227   3.384   3.768  0.2167  0.2058 -0.1010
 6209SOL    HW121581   3.142   3.348   3.742  1.3168 -2.0346 -0.8748
 6209SOL    HW221582   3.267   3.413   3.686  0.1721  1.4005  0.2795
 6210SOL     OW21583   4.578   5.522   0.642  0.6012 -1.0017  0.6149
 6210SOL    HW121584   4.528   5.602   0.626 -1.0466 -1.6658  2.1181
 6210SOL    HW221585   4.572   5.473   0.560  2.7100  0.8645 -0.7918
 6211SOL     OW21586   7.197   1.985   5.624  0.1436  0.3845 -0.0556
 6211SOL    HW121587   7.161   2.057   5.676 -0.1067  0.7738 -0.7592
 6211SOL    HW221588   7.246   2.028   5.554 -2.8948  0.0072 -2.5983
 6212SOL     OW21589   1.602   5.570   6.794 -0.0615 -0.9764  0.5092
 6212SOL    HW121590   1.648   5.530   6.867 -0.9593 -0.8416  1.1573
 6212SOL    HW221591   1.650   5.651   6.778 -1.9759  0.9455  3.4441
 6213SOL     OW21592   6.903   3.936   4.961  0.0299 -0.3363  0.4386
 6213SOL    HW121593   6.931   3.871   5.025 -0.3666  2.1117  3.2704
 6213SOL    HW221594   6.956   4.013   4.979 -3.0307  1.8598  0.7718
 6214SOL     OW21595   4.154   2.590   6.073 -0.4828  0.3733  0.1167
 6214SOL    HW121596   4.159   2.602   5.978  1.5993 -4.2872 -0.6215
 6214SOL    HW221597   4.244   2.603   6.104 -0.2746 -2.0599  0.6992
 6215SOL     OW21598   1.207   7.904   4.816  0.3351  0.5859  0.0805
 6215SOL    HW121599   1.297   7.873   4.827 -0.1575 -0.0080  3.1230
 6215SOL    HW221600   1.181   7.936   4.902 -3.1172 -1.3166 -0.0830
 6216SOL     OW21601   0.773   0.285   7.834  0.4418  0.5625  0.2031
 6216SOL    HW121602   0.721   0.358   7.870 -1.4169 -0.8063  0.4464
 6216SOL    HW221603   0.708   0.226   7.797  2.1106  1.0207 -4.0329
 6217SOL     OW21604   3.334   7.654   1.989  0.5527 -0.1733  0.2342
 6217SOL    HW121605   3.242   7.630   2.000  0.7647 -0.5281  1.3871
 6217SOL    HW221606   3.336   7.749   2.004  0.3925 -0.1741  0.2625
 6218SOL     OW21607   3.532   4.976   4.022  0.7350 -0.3598 -0.1122
 6218SOL    HW121608   3.564   4.992   4.110 -1.7786  1.9399  0.5230
 6218SOL    HW221609   3.606   4.997   3.965  1.5180  0.9946  1.3393
 6219SOL     OW21610   3.815   4.116   3.905  0.5097 -0.8183  0.0826
 6219SOL    HW121611   3.818   4.022   3.888 -0.4682 -1.0965  1.2726
 6219SOL    HW221612   3.744   4.149   3.849  0.2196 -0.9674  0.3557
 6220SOL     OW21613   7.022   6.728   3.954  0.6420 -0.1843 -0.2496
 6220SOL    HW121614   7.002   6.674   4.031  1.6569  0.2536  0.3443
 6220SOL    HW221615   7.093   6.683   3.910 -1.4568 -1.6866 -2.3045
 6221SOL     OW21616   5.876   1.311   7.231 -0.1481  0.1342 -0.1097
 6221SOL    HW121617   5.799   1.283   7.181 -1.1740  2.4205  0.0979
 6221SOL    HW221618   5.907   1.389   7.186  1.6923 -0.3518  0.2123
 6222SOL     OW21619   6.591   3.326   1.309 -0.5381  0.3350 -0.6752
 6222SOL    HW121620   6.579   3.363   1.396 -2.8837 -0.9623 -0.3749
 6222SOL    HW221621   6.584   3.402   1.250 -2.0862  0.8172  0.0953
 6223SOL     OW21622   2.453   0.756   7.677 -0.0990 -0.0748  0.5403
 6223SOL    HW121623   2.504   0.675   7.682  0.3390  0.0808 -0.8835
 6223SOL    HW221624   2.518   0.824   7.659 -0.7138  0.2165 -0.6968
 6224SOL     OW21625   2.938   1.125   7.816  0.5651  0.0080  0.1680
 6224SOL    HW121626   2.875   1.094   7.752 -2.3764  0.0257  2.8327
 6224SOL    HW221627   2.929   1.220   7.815  0.6779  0.0248  0.4449
 6225SOL     OW21628   3.179   5.014   2.696  0.0711  0.3150 -0.9310
 6225SOL    HW121629   3.271   5.027   2.718  0.7619 -1.3250 -2.6288
 6225SOL    HW221630   3.138   4.987   2.778  1.8240 -2.2544 -0.7815
 6226SOL     OW21631   3.599   7.735   1.335 -0.6981 -0.3340  0.3253
 6226SOL    HW121632   3.527   7.700   1.388 -0.6309 -0.6958  0.1840
 6226SOL    HW221633   3.555   7.770   1.257 -0.7874  0.1103  0.5738
 6227SOL     OW21634   7.341   6.532   6.356  0.1964  0.0518 -0.4837
 6227SOL    HW121635   7.394   6.611   6.368  0.5868  0.5108 -4.0256
 6227SOL    HW221636   7.254   6.566   6.333  0.3545 -0.4902 -1.9779
 6228SOL     OW21637   6.973   1.265   5.826 -0.0978  0.0955  0.3881
 6228SOL    HW121638   7.060   1.245   5.791  0.2419 -1.0413  1.7956
 6228SOL    HW221639   6.912   1.230   5.761  0.4301  1.8294 -1.1403
 6229SOL     OW21640   4.724   4.639   6.065  0.4017 -0.0089  0.0212
 6229SOL    HW121641   4.810   4.668   6.034 -0.1340 -0.9110 -2.5050
 6229SOL    HW221642   4.698   4.571   6.003 -1.0550 -1.5651  2.1999
 6230SOL     OW21643   7.313   1.197   6.560 -0.1136  0.1846 -0.2829
 6230SOL    HW121644   7.372   1.215   6.487 -0.2883  1.3826 -0.1527
 6230SOL    HW221645   7.317   1.277   6.614 -1.7144  0.2287 -0.1883
 6231SOL     OW21646   1.345   6.047   4.371  0.3279 -0.3102  0.1509
 6231SOL    HW121647   1.295   5.987   4.427  1.3918 -0.6097  0.8030
 6231SOL    HW221648   1.434   6.011   4.370  0.9471  1.1543  0.4191
 6232SOL     OW21649   3.900   4.399   6.029  0.0784  0.0839  0.6668
 6232SOL    HW121650   3.987   4.369   6.055  0.9834  2.6957  0.9594
 6232SOL    HW221651   3.888   4.482   6.076 -0.3002  2.5521 -3.3107
 6233SOL     OW21652   5.872   3.908   6.907 -0.0135  0.4564 -0.2068
 6233SOL    HW121653   5.887   3.964   6.830 -0.6607 -0.5904 -1.1185
 6233SOL    HW221654   5.943   3.844   6.903  1.5182  1.9298  1.5811
 6234SOL     OW21655   4.081   5.422   0.203  0.0457  0.1796 -0.0736
 6234SOL    HW121656   4.062   5.333   0.172 -0.3258  0.3391 -0.3085
 6234SOL    HW221657   4.034   5.428   0.286  1.8616 -0.6006  1.0780
 6235SOL     OW21658   3.365   2.119   7.810 -0.1642  0.5021  0.6655
 6235SOL    HW121659   3.394   2.195   7.860 -1.4041  1.1338  0.4699
 6235SOL    HW221660   3.399   2.133   7.722 -0.1436  0.6918  0.7039
 6236SOL     OW21661   7.745   0.705   7.497  0.0474 -0.2157 -0.4431
 6236SOL    HW121662   7.833   0.667   7.499  0.0384 -0.2566  1.6684
 6236SOL    HW221663   7.754   0.788   7.544 -0.6682  0.7639 -1.9459
 6237SOL     OW21664   2.313   1.607   6.484  1.0417  0.0030  0.0715
 6237SOL    HW121665   2.355   1.658   6.553  0.7159  1.0859 -0.5063
 6237SOL    HW221666   2.237   1.660   6.457 -0.2575 -1.5312  0.5542
 6238SOL     OW21667   0.916   5.129   6.655 -0.5312  1.0084  0.1274
 6238SOL    HW121668   0.962   5.147   6.737 -0.0785 -1.1493  0.3948
 6238SOL    HW221669   0.828   5.163   6.669  0.3024  3.2313  0.4163
 6239SOL     OW21670   1.009   3.594   0.945 -0.4670  0.2891 -0.4355
 6239SOL    HW121671   0.933   3.649   0.926 -0.8765 -0.6339 -1.6424
 6239SOL    HW221672   0.981   3.538   1.017 -0.5852  0.6117 -0.2284
 6240SOL     OW21673   3.822   0.321   0.946 -0.2810  0.1776 -0.1462
 6240SOL    HW121674   3.776   0.242   0.918  0.6060 -0.9964  1.5524
 6240SOL    HW221675   3.891   0.333   0.881 -0.6574 -0.2341 -0.6261
 6241SOL     OW21676   2.747   6.369   5.408 -0.3215 -0.1920  0.1727
 6241SOL    HW121677   2.778   6.451   5.368 -0.1465 -0.4458 -0.2242
 6241SOL    HW221678   2.668   6.347   5.358 -0.5222 -0.1213  0.4602
 6242SOL     OW21679   6.028   1.677   3.642  0.4331  0.0505  0.1783
 6242SOL    HW121680   6.061   1.740   3.706  2.5232 -0.2861 -0.4945
 6242SOL    HW221681   5.982   1.611   3.694 -0.2902  1.2017  1.0405
 6243SOL     OW21682   7.972   4.857   7.094 -0.3816  0.1635  0.0068
 6243SOL    HW121683   7.971   4.764   7.120 -1.2677  0.4784  1.1937
 6243SOL    HW221684   8.065   4.878   7.085 -0.2031 -1.3509 -2.3179
 6244SOL     OW21685   0.258   2.005   7.728  0.4520  0.0952  0.0688
 6244SOL    HW121686   0.166   1.983   7.743  1.0499 -2.8034  0.0744
 6244SOL    HW221687   0.294   2.022   7.815  0.2854 -0.4883  0.2566
 6245SOL     OW21688   1.101   0.792   7.646 -0.3104  0.3888 -0.2575
 6245SOL    HW121689   1.029   0.760   7.700  0.2690  0.7741  0.7664
 6245SOL    HW221690   1.116   0.882   7.675 -0.4615  0.8616 -1.5757
 6246SOL     OW21691   1.017   6.155   4.335 -0.4109 -0.2106 -0.2154
 6246SOL    HW121692   0.965   6.178   4.258 -0.0498  2.1308  0.1626
 6246SOL    HW221693   1.043   6.064   4.321 -2.1923 -0.5400 -1.7732
 6247SOL     OW21694   1.977   1.419   2.282  0.4054  0.5099  0.7147
 6247SOL    HW121695   2.043   1.447   2.219  1.4586  0.6928  1.8552
 6247SOL    HW221696   1.901   1.475   2.264 -0.4058 -1.3552 -2.2454
 6248SOL     OW21697   4.643   4.584   1.048  0.0745  0.7530 -0.7147
 6248SOL    HW121698   4.714   4.649   1.046  0.0433  0.8340  0.2696
 6248SOL    HW221699   4.603   4.595   1.134 -0.5634  0.0917 -0.9183
 6249SOL     OW21700   2.465   6.612   5.200 -0.0102 -0.6878 -0.0238
 6249SOL    HW121701   2.550   6.637   5.235  0.3560 -0.5215 -1.0001
 6249SOL    HW221702   2.446   6.677   5.132 -0.9810 -0.6435  0.2656
 6250SOL     OW21703   1.001   1.727   6.761 -0.3330  0.1957 -0.1271
 6250SOL    HW121704   0.999   1.737   6.856 -0.4473  0.6560 -0.1744
 6250SOL    HW221705   1.095   1.729   6.739 -0.3466  2.9763 -0.2890
 6251SOL     OW21706   4.306   6.474   5.815 -0.2604 -0.0227  0.2491
 6251SOL    HW121707   4.234   6.452   5.874  0.1417  0.4386  0.9298
 6251SOL    HW221708   4.367   6.523   5.870  0.1553  0.3522 -0.5377
 6252SOL     OW21709   0.662   4.717   2.041  0.6117 -0.0302 -0.4244
 6252SOL    HW121710   0.624   4.787   2.095  0.8766  1.7147 -2.3594
 6252SOL    HW221711   0.588   4.680   1.994  0.4370 -1.2774  0.7862
 6253SOL     OW21712   5.953   7.252   5.116  0.7300 -0.1355  0.0224
 6253SOL    HW121713   6.026   7.266   5.056 -0.1241 -0.4915 -1.1470
 6253SOL    HW221714   5.919   7.340   5.134  1.0907 -0.0144  0.1193
 6254SOL     OW21715   3.101   2.846   2.967  0.0757  0.2407 -0.4608
 6254SOL    HW121716   3.073   2.757   2.947  0.3405  0.1438 -0.4082
 6254SOL    HW221717   3.171   2.835   3.033  1.8289  0.3369 -2.2141
 6255SOL     OW21718   4.913   5.006   1.127  0.0786 -0.2491 -0.0107
 6255SOL    HW121719   4.839   5.039   1.076  0.6963 -0.5839 -1.1508
 6255SOL    HW221720   4.990   5.030   1.076  0.7022 -0.8384  0.6322
 6256SOL     OW21721   5.860   4.326   1.990 -0.2203  0.1295  0.0747
 6256SOL    HW121722   5.839   4.238   2.021  1.2892 -0.9092 -1.6286
 6256SOL    HW221723   5.892   4.312   1.900 -0.3554  2.4694 -0.3845
 6257SOL     OW21724   1.434   5.927   2.630  0.0907 -0.0247  0.9761
 6257SOL    HW121725   1.517   5.912   2.584  0.2701 -0.2318  1.3611
 6257SOL    HW221726   1.457   5.919   2.723 -0.7652 -2.1950  1.0432
 6258SOL     OW21727   2.987   1.183   3.558 -0.4883  0.0415  0.4166
 6258SOL    HW121728   2.913   1.242   3.547 -1.1477 -0.5859  1.3119
 6258SOL    HW221729   2.970   1.139   3.642 -0.5644 -2.1372 -0.6545
 6259SOL     OW21730   6.107   5.392   3.705 -0.3237 -0.2266 -0.1230
 6259SOL    HW121731   6.061   5.467   3.741 -0.6531  0.0309 -1.0615
 6259SOL    HW221732   6.162   5.361   3.777 -3.1998 -1.6253  1.6567
 6260SOL     OW21733   4.741   0.092   0.655 -0.0941  0.6777 -0.1494
 6260SOL    HW121734   4.725   0.154   0.584 -2.5452  0.2659 -0.0490
 6260SOL    HW221735   4.656   0.079   0.696  0.4098 -2.2642  0.2437
 6261SOL     OW21736   3.948   4.442   5.774  0.3156 -0.0134  0.6540
 6261SOL    HW121737   3.904   4.433   5.858 -1.0745 -1.0411 -0.1390
 6261SOL    HW221738   4.001   4.362   5.766  0.2656 -0.0276  0.4525
 6262SOL     OW21739   6.810   6.884   3.955 -0.3813 -0.2306  0.0862
 6262SOL    HW121740   6.813   6.917   4.045 -1.0162 -0.0617  0.0531
 6262SOL    HW221741   6.890   6.832   3.945  0.4790  0.9973  0.2639
 6263SOL     OW21742   0.934   3.208   2.240  0.3459 -0.1671  0.1092
 6263SOL    HW121743   1.000   3.277   2.237 -0.3208  0.5089  0.5942
 6263SOL    HW221744   0.976   3.132   2.199  0.8627  0.7080 -1.0129
 6264SOL     OW21745   5.682   2.484   5.687  0.2706  0.4379 -0.9402
 6264SOL    HW121746   5.699   2.426   5.761 -0.6878  0.4072 -0.7402
 6264SOL    HW221747   5.759   2.541   5.684  0.0300  0.8688  0.4903
 6265SOL     OW21748   3.100   0.804   7.274  0.3488 -0.1304  0.0096
 6265SOL    HW121749   3.194   0.807   7.255  0.3606 -2.7675 -0.7171
 6265SOL    HW221750   3.096   0.766   7.362 -0.0529  1.4445  0.7116
 6266SOL     OW21751   1.444   1.008   7.550 -0.3525  0.2122 -0.0249
 6266SOL    HW121752   1.429   1.022   7.456 -0.3330  0.8310  0.0611
 6266SOL    HW221753   1.378   1.063   7.593 -1.3464 -1.1999  0.3236
 6267SOL     OW21754   0.421   2.151   0.903 -0.2617  0.2421 -0.3624
 6267SOL    HW121755   0.386   2.063   0.917  0.2532  0.1473  0.4206
 6267SOL    HW221756   0.505   2.136   0.860 -0.6273  0.4051 -1.1376
 6268SOL     OW21757   3.982   4.849   7.063  0.0991 -0.2181  0.5626
 6268SOL    HW121758   3.981   4.851   6.967 -0.1026  0.8808  0.5849
 6268SOL    HW221759   4.037   4.773   7.084 -2.2518 -2.3519 -0.3969
 6269SOL     OW21760   5.721   7.467   6.949 -0.1730 -0.0313  0.1529
 6269SOL    HW121761   5.704   7.468   6.855  1.4992  0.5095 -0.1701
 6269SOL    HW221762   5.778   7.391   6.962 -0.0127  0.1732  0.6571
 6270SOL     OW21763   2.552   6.807   2.863  0.4583  0.6185  0.2185
 6270SOL    HW121764   2.537   6.897   2.834  0.3281  0.5772  0.1575
 6270SOL    HW221765   2.622   6.775   2.805  0.1278  0.5017 -0.1184
 6271SOL     OW21766   7.689   1.135   3.415  0.3040 -0.3279  0.7488
 6271SOL    HW121767   7.617   1.189   3.383  2.4295  1.9251 -0.4748
 6271SOL    HW221768   7.733   1.189   3.480  1.4511 -1.2820  0.8007
 6272SOL     OW21769   1.569   2.411   4.343  0.2499  0.4472 -0.1155
 6272SOL    HW121770   1.525   2.335   4.381 -0.9637  2.1309  2.1876
 6272SOL    HW221771   1.525   2.426   4.260 -1.0573 -0.0808  0.4574
 6273SOL     OW21772   5.738   6.861   4.988 -0.3146 -0.4038 -0.0072
 6273SOL    HW121773   5.745   6.956   4.994 -5.6154  0.2615 -0.0652
 6273SOL    HW221774   5.754   6.841   4.896 -2.4858  0.9904 -0.7496
 6274SOL     OW21775   4.987   4.483   5.011 -0.1351 -0.2720 -0.4133
 6274SOL    HW121776   4.939   4.412   4.967 -2.2593  0.5128  0.5195
 6274SOL    HW221777   4.958   4.478   5.102  0.8311  0.8754 -0.0276
 6275SOL     OW21778   7.082   5.697   0.358  0.0528  0.4537  0.2920
 6275SOL    HW121779   7.150   5.688   0.424  0.3077 -3.7877 -0.2865
 6275SOL    HW221780   7.120   5.659   0.278 -2.1863 -0.0371 -0.6249
 6276SOL     OW21781   0.444   2.396   1.021 -0.0232  0.3010  0.1003
 6276SOL    HW121782   0.354   2.424   1.007 -0.5098 -1.0000  0.4961
 6276SOL    HW221783   0.445   2.303   0.997  1.0397  0.1197  0.7567
 6277SOL     OW21784   5.342   5.838   7.643  0.1991 -0.3580 -0.0244
 6277SOL    HW121785   5.289   5.800   7.713 -0.5223 -0.2264 -0.4864
 6277SOL    HW221786   5.432   5.816   7.666  0.0650  0.5597  1.4916
 6278SOL     OW21787   6.797   6.718   2.038 -0.1727  0.0984  0.1064
 6278SOL    HW121788   6.840   6.645   2.083 -0.6527  0.9622  2.1088
 6278SOL    HW221789   6.865   6.784   2.028  0.4853 -0.8570 -2.4866
 6279SOL     OW21790   1.084   1.788   8.040  0.4974 -0.5494  0.8749
 6279SOL    HW121791   1.091   1.817   8.131 -0.1237  1.6537  0.2770
 6279SOL    HW221792   1.030   1.709   8.045 -0.5655  0.2089  2.3271
 6280SOL     OW21793   0.110   4.648   0.856 -0.5173 -0.0395 -0.2103
 6280SOL    HW121794   0.153   4.599   0.786 -1.1553 -0.4401 -0.3275
 6280SOL    HW221795   0.181   4.672   0.915 -0.3440 -2.4135  0.6473
 6281SOL     OW21796   6.234   5.738   0.895 -0.4782  0.3139  0.1425
 6281SOL    HW121797   6.138   5.734   0.894 -0.6060  2.2232  0.1840
 6281SOL    HW221798   6.258   5.761   0.806 -0.0612 -0.1567  0.1341
 6282SOL     OW21799   2.234   2.964   7.888 -0.2589 -0.4328 -0.0440
 6282SOL    HW121800   2.210   2.883   7.932 -1.4961 -1.1370 -1.9259
 6282SOL    HW221801   2.246   2.940   7.796 -0.2178  1.4331 -0.5682
 6283SOL     OW21802   5.004   3.785   6.598  0.4612  0.2569 -0.5576
 6283SOL    HW121803   4.932   3.825   6.550 -0.2813  0.2236  0.4802
 6283SOL    HW221804   5.046   3.727   6.535 -2.0482 -1.7629 -0.5228
 6284SOL     OW21805   1.491   0.052   4.624  0.5150 -0.0547  0.0965
 6284SOL    HW121806   1.498   0.127   4.565  2.7664 -0.0396  0.2993
 6284SOL    HW221807   1.535  -0.019   4.577  0.6637 -0.5565  0.9832
 6285SOL     OW21808   7.478   1.076   2.653 -0.2383  0.0254 -0.4373
 6285SOL    HW121809   7.473   1.040   2.565 -1.2888  1.3442 -0.9487
 6285SOL    HW221810   7.461   1.170   2.642  1.3518  0.5323  0.9569
 6286SOL     OW21811   7.638   0.307   6.594 -0.3544 -0.3136 -0.7209
 6286SOL    HW121812   7.551   0.299   6.555  0.7393 -1.3872 -3.1417
 6286SOL    HW221813   7.687   0.233   6.559  1.1885 -0.5677  1.7130
 6287SOL     OW21814   6.446   1.767   6.537 -0.0330 -0.1691  0.3239
 6287SOL    HW121815   6.372   1.811   6.580  1.2893  0.5754  1.9951
 6287SOL    HW221816   6.462   1.689   6.590  2.4744  1.4474  2.2198
 6288SOL     OW21817   3.551   0.429   1.261 -0.4434  0.3327  0.0085
 6288SOL    HW121818   3.604   0.421   1.341 -0.9711  1.4734  0.4969
 6288SOL    HW221819   3.467   0.461   1.292 -0.1199  2.4872 -1.1585
 6289SOL     OW21820   6.584   0.754   6.903 -0.4792  0.0721 -0.5437
 6289SOL    HW121821   6.578   0.729   6.810 -0.9729  2.6466 -1.2942
 6289SOL    HW221822   6.564   0.848   6.903 -0.1876  0.1920  2.1602
 6290SOL     OW21823   3.268   6.128   3.189  0.0616  0.5013  0.0462
 6290SOL    HW121824   3.357   6.099   3.205 -0.9144 -1.5314  2.3989
 6290SOL    HW221825   3.262   6.214   3.232  0.7847  0.4667  0.2159
 6291SOL     OW21826   7.667   3.138   6.000  0.2059  0.1275  0.5457
 6291SOL    HW121827   7.703   3.109   5.916 -0.8572  0.1053  0.0711
 6291SOL    HW221828   7.724   3.100   6.066  0.0338 -1.3509 -0.1214
 6292SOL     OW21829   3.035   7.032   2.957 -0.2118  0.5693 -0.5432
 6292SOL    HW121830   3.095   7.096   2.919 -0.4180  0.3829 -1.1810
 6292SOL    HW221831   3.085   6.992   3.029  1.2069 -1.0501 -2.3370
 6293SOL     OW21832   7.091   0.863   2.378 -0.1311  0.9837  0.4707
 6293SOL    HW121833   7.003   0.900   2.363 -0.1561  1.2773  1.2637
 6293SOL    HW221834   7.103   0.869   2.473  1.1537  1.8966  0.2805
 6294SOL     OW21835   3.181   6.471   3.075 -0.2074 -0.5585 -0.0257
 6294SOL    HW121836   3.134   6.414   3.136 -0.8265 -0.3146 -0.2711
 6294SOL    HW221837   3.129   6.551   3.072 -0.0158 -0.4535 -0.6431
 6295SOL     OW21838   1.695   0.706   5.064 -0.2674  0.2967 -0.0491
 6295SOL    HW121839   1.656   0.634   5.113 -0.4711 -1.3110 -2.4068
 6295SOL    HW221840   1.764   0.739   5.121 -1.3069 -0.5830  1.8258
 6296SOL     OW21841   7.484   1.186   3.714 -0.1979  0.4835  0.3433
 6296SOL    HW121842   7.431   1.150   3.785 -0.5892  0.7225  0.1750
 6296SOL    HW221843   7.424   1.193   3.640  0.6003 -1.3411 -0.5443
 6297SOL     OW21844   6.554   3.866   1.703 -0.4872  0.3387  0.2324
 6297SOL    HW121845   6.475   3.917   1.724 -0.4530  0.5423 -0.1385
 6297SOL    HW221846   6.524   3.800   1.640 -0.3353  0.4883  0.0052
 6298SOL     OW21847   4.035   0.018   3.605  0.2641  0.1580 -0.1774
 6298SOL    HW121848   3.944   0.035   3.630 -0.0336 -0.7857 -0.5781
 6298SOL    HW221849   4.074   0.105   3.597 -1.5082  0.8083 -3.3108
 6299SOL     OW21850   1.318   4.631   4.324 -0.0997  0.4409 -0.4626
 6299SOL    HW121851   1.402   4.676   4.332 -0.0140  0.0660  1.0594
 6299SOL    HW221852   1.321   4.591   4.237  0.3185  2.3161 -1.3522
 6300SOL     OW21853   5.458   6.304   2.978  0.1284  0.1746 -0.4922
 6300SOL    HW121854   5.431   6.243   3.047  0.7473 -0.3741 -0.7239
 6300SOL    HW221855   5.551   6.284   2.963  0.2992  1.0700 -0.6863
 6301SOL     OW21856   2.834   4.456   8.001 -0.0349  0.2263 -0.1570
 6301SOL    HW121857   2.749   4.488   7.971 -0.3743  0.1538  0.6825
 6301SOL    HW221858   2.853   4.382   7.945 -0.3053  0.5353 -0.6611
 6302SOL     OW21859   1.232   7.200   0.089  0.2156 -0.0145  0.5647
 6302SOL    HW121860   1.264   7.266   0.150  0.1231 -0.4872  1.1339
 6302SOL    HW221861   1.226   7.120   0.141  2.7333 -1.1299 -0.6567
 6303SOL     OW21862   5.644   0.490   0.420  0.3513  0.0032  0.5425
 6303SOL    HW121863   5.679   0.554   0.482  0.5507 -0.2100  0.6540
 6303SOL    HW221864   5.719   0.435   0.398  0.5743  0.7887 -0.7935
 6304SOL     OW21865   5.422   7.066   3.986  0.0634  0.0389 -0.5302
 6304SOL    HW121866   5.461   6.989   4.028 -0.1045 -0.2859 -0.9554
 6304SOL    HW221867   5.408   7.038   3.895 -0.0798  0.5451 -0.6627
 6305SOL     OW21868   7.300   0.201   1.373 -0.0111 -0.8530 -0.3904
 6305SOL    HW121869   7.296   0.175   1.465 -0.0325 -0.3344 -0.2405
 6305SOL    HW221870   7.243   0.278   1.368 -0.4617 -1.2248 -0.9561
 6306SOL     OW21871   3.936   0.984   3.609 -0.3241  0.3170  0.5408
 6306SOL    HW121872   3.957   0.946   3.523  0.8204  0.2439  0.8283
 6306SOL    HW221873   3.938   1.078   3.594 -3.0318  0.3385 -0.1425
 6307SOL     OW21874   4.117   6.468   1.508  0.3605  0.2331 -0.7457
 6307SOL    HW121875   4.177   6.479   1.581 -1.3276  0.4525  0.6547
 6307SOL    HW221876   4.125   6.550   1.458  2.4224 -0.3994 -1.5882
 6308SOL     OW21877   2.940   2.242   2.825 -0.1994 -1.0615  0.3864
 6308SOL    HW121878   3.024   2.217   2.862 -0.1823 -0.3852  0.8323
 6308SOL    HW221879   2.959   2.320   2.773 -0.7308 -0.1776  1.4670
 6309SOL     OW21880   1.725   2.796   0.036  0.2585  0.1071  0.5903
 6309SOL    HW121881   1.795   2.856   0.060  0.6094 -0.5084  1.1275
 6309SOL    HW221882   1.657   2.852  -0.000  1.4838  0.6233 -1.0588
 6310SOL     OW21883   2.626   5.849   1.329 -0.0851 -0.2922  0.4000
 6310SOL    HW121884   2.639   5.816   1.240  0.1184 -0.5384  0.5182
 6310SOL    HW221885   2.569   5.784   1.370  0.9519 -0.9314  0.8758
 6311SOL     OW21886   7.477   5.996   2.555 -0.0776  0.1886  0.0113
 6311SOL    HW121887   7.464   6.007   2.650  0.6627 -0.0103  0.1418
 6311SOL    HW221888   7.433   5.913   2.535  0.0171  0.0833  0.2331
 6312SOL     OW21889   0.682   0.207   0.648  0.1188 -0.4677  0.0216
 6312SOL    HW121890   0.615   0.170   0.706 -0.2199 -0.6648 -0.4859
 6312SOL    HW221891   0.765   0.181   0.688 -0.1120 -0.7829  0.3011
 6313SOL     OW21892   5.596   3.710   7.710  0.6316  0.4954 -0.4599
 6313SOL    HW121893   5.521   3.753   7.669  0.3519 -0.1107 -0.5854
 6313SOL    HW221894   5.669   3.726   7.650  0.2393 -0.3299 -1.1628
 6314SOL     OW21895   7.388   0.973   5.559  0.7354 -0.4587 -0.0436
 6314SOL    HW121896   7.420   0.950   5.472 -0.4171  0.5238 -0.7509
 6314SOL    HW221897   7.463   1.010   5.604  0.9017  0.7315 -1.2676
 6315SOL     OW21898   6.483   3.022   3.319  0.0107 -0.3771 -0.3891
 6315SOL    HW121899   6.465   2.949   3.259 -1.7576 -0.5094  0.2362
 6315SOL    HW221900   6.407   3.079   3.310  0.2042  0.1260  0.9636
 6316SOL     OW21901   6.202   7.124   5.817  0.0212  0.5722 -0.3442
 6316SOL    HW121902   6.252   7.102   5.738 -1.0661 -0.0129 -0.8934
 6316SOL    HW221903   6.177   7.216   5.804 -0.2925  0.4331 -0.7706
 6317SOL     OW21904   2.246   2.659   2.740  0.3358  0.5904  0.2451
 6317SOL    HW121905   2.233   2.731   2.802  0.7367 -0.4134  1.5511
 6317SOL    HW221906   2.264   2.583   2.795  1.9012 -0.1138 -1.1382
 6318SOL     OW21907   6.157   6.256   7.866 -0.0554 -0.0926  0.2697
 6318SOL    HW121908   6.208   6.192   7.917 -0.5963  0.8276  2.0605
 6318SOL    HW221909   6.216   6.282   7.795  1.4605 -0.1140  1.4576
 6319SOL     OW21910   4.332   3.491   1.235 -0.0569 -0.3041 -0.1768
 6319SOL    HW121911   4.238   3.491   1.257  0.3323 -0.8249  1.5944
 6319SOL    HW221912   4.333   3.475   1.141 -1.7767  0.6791 -0.4220
 6320SOL     OW21913   1.706   5.580   3.952  0.5186 -0.2193  0.7309
 6320SOL    HW121914   1.684   5.671   3.970  0.3838 -0.0622 -0.1626
 6320SOL    HW221915   1.691   5.570   3.857  1.5920 -0.8671  0.6167
 6321SOL     OW21916   7.148   2.654   3.499 -0.5926 -0.2157  0.5133
 6321SOL    HW121917   7.100   2.733   3.524 -1.5334 -0.9344  1.0615
 6321SOL    HW221918   7.080   2.593   3.469  0.0272 -1.0823  0.8235
 6322SOL     OW21919   0.412   6.211   0.547  0.0264 -0.4145 -0.5810
 6322SOL    HW121920   0.406   6.117   0.528  1.4900 -0.8077  0.7011
 6322SOL    HW221921   0.505   6.226   0.564 -0.4522  0.8407  1.2315
 6323SOL     OW21922   6.197   6.249   4.125 -0.0260 -0.5147 -0.2265
 6323SOL    HW121923   6.166   6.256   4.035 -0.8859  0.4410  0.1341
 6323SOL    HW221924   6.145   6.312   4.174  1.7042  0.3276  0.6109
 6324SOL     OW21925   0.117   1.732   2.337  0.2991  0.7720 -0.4462
 6324SOL    HW121926   0.121   1.661   2.401 -0.9067  2.5777  1.7451
 6324SOL    HW221927   0.147   1.691   2.255  0.3167 -2.0603  0.8470
 6325SOL     OW21928   2.670   0.156   0.221  0.0472 -0.2632 -0.3380
 6325SOL    HW121929   2.656   0.065   0.244 -0.2235 -0.5112 -1.4171
 6325SOL    HW221930   2.583   0.196   0.225 -0.1478 -0.4950 -1.5983
 6326SOL     OW21931   5.882   4.165   3.791 -0.5203  0.1846  0.4198
 6326SOL    HW121932   5.943   4.170   3.864 -0.4639 -1.1860  0.4932
 6326SOL    HW221933   5.839   4.080   3.801  0.0959 -0.4170 -1.6088
 6327SOL     OW21934   5.153   6.976   2.942  0.3483  0.1828 -0.2672
 6327SOL    HW121935   5.198   6.900   2.904 -0.0354 -0.5377  0.6752
 6327SOL    HW221936   5.190   6.985   3.029 -1.1285 -0.2758  0.4368
 6328SOL     OW21937   1.504   4.539   7.075  0.2732  0.0947 -0.3023
 6328SOL    HW121938   1.486   4.598   7.002 -3.0390 -0.4784 -0.1456
 6328SOL    HW221939   1.496   4.451   7.036  0.4721 -0.2253  0.3669
 6329SOL     OW21940   1.806   2.561   1.154  0.0283  0.8599 -0.4165
 6329SOL    HW121941   1.877   2.510   1.113  0.1649 -0.0690  0.9115
 6329SOL    HW221942   1.839   2.651   1.154  0.8092  0.5866 -0.6727
 6330SOL     OW21943   3.044   1.625   4.504  0.5194 -0.7485  0.0301
 6330SOL    HW121944   3.074   1.542   4.466 -0.9786 -0.6808 -1.4090
 6330SOL    HW221945   2.950   1.625   4.489  0.0920  0.0990  2.3053
 6331SOL     OW21946   6.053   1.598   2.302 -0.6261 -0.7018  0.4745
 6331SOL    HW121947   5.986   1.562   2.361 -0.3203 -1.4303  0.3774
 6331SOL    HW221948   6.025   1.570   2.214 -0.4941 -0.5337  0.3782
 6332SOL     OW21949   7.561   7.046   8.076  0.2717 -0.4745  0.4540
 6332SOL    HW121950   7.527   6.985   8.010  0.0855 -1.3890  1.3670
 6332SOL    HW221951   7.633   6.998   8.117 -0.2497 -0.3163  1.5789
 6333SOL     OW21952   2.096   3.620   0.114 -0.0642  0.0779 -0.5023
 6333SOL    HW121953   2.077   3.614   0.207  1.9656 -1.0780 -0.0949
 6333SOL    HW221954   2.147   3.541   0.095  0.7236  0.9486 -2.2879
 6334SOL     OW21955   2.204   5.254   7.101  0.3627  0.3107  0.3021
 6334SOL    HW121956   2.159   5.264   7.185 -0.8519 -2.6786  0.1559
 6334SOL    HW221957   2.297   5.265   7.122 -0.0650  1.9684  1.5317
 6335SOL     OW21958   6.286   7.743   2.455  0.0517  0.5451 -0.0794
 6335SOL    HW121959   6.331   7.797   2.390  2.2180 -0.0034  0.8621
 6335SOL    HW221960   6.270   7.802   2.529  0.6038  0.4055  0.1603
 6336SOL     OW21961   5.276   3.738   5.325  0.1084 -0.0139 -0.2774
 6336SOL    HW121962   5.363   3.773   5.342 -0.3228  1.0153 -0.1477
 6336SOL    HW221963   5.221   3.773   5.395 -0.6442  0.2824 -0.9960
 6337SOL     OW21964   7.550   0.731   6.196  0.1921 -0.5633 -0.1736
 6337SOL    HW121965   7.541   0.774   6.281 -0.0091 -0.5452 -0.2033
 6337SOL    HW221966   7.597   0.794   6.142 -1.4199  0.2830 -0.6775
 6338SOL     OW21967   0.431   3.174   1.730 -0.6455  0.3906 -0.4164
 6338SOL    HW121968   0.474   3.113   1.790 -0.5238  1.7506  0.9481
 6338SOL    HW221969   0.356   3.206   1.779 -0.8964  1.0933 -1.2353
 6339SOL     OW21970   5.060   7.410   3.651 -0.1025  0.3103  0.6020
 6339SOL    HW121971   5.113   7.422   3.573 -0.5540  2.2058  0.5286
 6339SOL    HW221972   4.969   7.419   3.620 -0.3486 -0.2910  1.1308
 6340SOL     OW21973   6.391   7.160   7.192 -0.3837  0.0900 -0.2900
 6340SOL    HW121974   6.420   7.239   7.147 -0.6816  0.8667  0.8396
 6340SOL    HW221975   6.470   7.127   7.236 -0.4743  0.3305  0.0575
 6341SOL     OW21976   1.741   3.874   0.080 -0.0652 -0.0937 -0.2639
 6341SOL    HW121977   1.824   3.917   0.058 -0.3423  1.0095  0.7649
 6341SOL    HW221978   1.685   3.944   0.111 -1.3428 -0.8620 -0.7612
 6342SOL     OW21979   1.471   0.702   7.365  0.2583 -0.3068  0.0089
 6342SOL    HW121980   1.530   0.718   7.439  3.5371 -3.8048 -1.4628
 6342SOL    HW221981   1.500   0.763   7.298  1.2150 -0.9425 -0.1798
 6343SOL     OW21982   5.323   4.299   2.832 -0.0238  0.3614 -0.1180
 6343SOL    HW121983   5.375   4.303   2.752  1.3180  0.5488  0.7394
 6343SOL    HW221984   5.254   4.363   2.819 -1.5439 -1.5592 -2.2678
 6344SOL     OW21985   6.214   3.457   0.494 -0.1418  0.5160  0.1669
 6344SOL    HW121986   6.209   3.549   0.519 -0.0328  0.5306  0.1366
 6344SOL    HW221987   6.172   3.454   0.408  0.3960  0.6429 -0.1019
 6345SOL     OW21988   7.770   1.957   5.451 -0.0309 -0.3586  0.0792
 6345SOL    HW121989   7.795   1.989   5.364  0.5521 -2.8722 -0.7742
 6345SOL    HW221990   7.684   1.916   5.439  0.1193 -0.8653  0.6272
 6346SOL     OW21991   0.686   0.834   3.399 -0.4781 -0.2450  0.0655
 6346SOL    HW121992   0.595   0.819   3.375 -0.9594  1.3213  0.8384
 6346SOL    HW221993   0.717   0.747   3.427 -1.3401 -1.0503 -1.3349
 6347SOL     OW21994   5.053   5.380   1.222  0.5541  0.3220 -0.1367
 6347SOL    HW121995   5.004   5.460   1.235 -0.5310 -0.2252 -0.7137
 6347SOL    HW221996   5.100   5.366   1.305 -0.8093  0.5029  0.7011
 6348SOL     OW21997   6.167   3.128   5.928  0.2852  0.5768 -0.8918
 6348SOL    HW121998   6.252   3.093   5.900  0.4861 -0.1743  0.5815
 6348SOL    HW221999   6.188   3.209   5.973  0.6303 -1.1306  2.2818
 6349SOL     OW22000   7.940   4.566   7.123 -0.3323 -0.1609 -1.0362
 6349SOL    HW122001   7.994   4.550   7.200  1.6446  2.2577 -1.7564
 6349SOL    HW222002   7.984   4.518   7.052  0.1515  0.7167 -1.3556
 6350SOL     OW22003   1.563   4.628   6.093 -0.8010  0.0374 -0.0719
 6350SOL    HW122004   1.536   4.690   6.160 -0.8832  0.8930 -0.8820
 6350SOL    HW222005   1.565   4.543   6.138 -1.3918  0.5092  0.8646
 6351SOL     OW22006   6.971   5.612   7.971 -0.1505  0.6721 -0.4185
 6351SOL    HW122007   6.963   5.623   8.066 -0.5893 -1.4343 -0.1588
 6351SOL    HW222008   7.038   5.546   7.960 -0.3020  0.6911 -1.5745
 6352SOL     OW22009   2.326   3.339   3.270 -0.1134 -0.2930  0.0861
 6352SOL    HW122010   2.392   3.393   3.226  0.5534 -0.8903  0.3382
 6352SOL    HW222011   2.376   3.270   3.314 -1.0419 -1.9148 -1.3047
 6353SOL     OW22012   6.505   4.189   8.019  0.5292 -0.0433  0.8904
 6353SOL    HW122013   6.517   4.148   8.104  1.5931 -0.6649  0.4575
 6353SOL    HW222014   6.594   4.209   7.989  0.1855 -0.0462 -0.1758
 6354SOL     OW22015   0.757   4.703   5.325  0.0046  0.0372 -0.3345
 6354SOL    HW122016   0.715   4.642   5.264 -3.6334  1.2120  0.7051
 6354SOL    HW222017   0.809   4.761   5.269 -2.1363  0.2519 -2.2391
 6355SOL     OW22018   4.443   5.127   0.722 -0.4248  0.5461  0.6266
 6355SOL    HW122019   4.363   5.173   0.746 -0.5997  0.6693 -0.1615
 6355SOL    HW222020   4.431   5.039   0.757  0.1066  1.2014  2.5361
 6356SOL     OW22021   2.265   6.173   5.253 -0.4411  0.1445  0.1903
 6356SOL    HW122022   2.173   6.195   5.234 -0.0518  0.1512 -1.9170
 6356SOL    HW222023   2.314   6.252   5.232  0.2175 -0.4292 -0.5209
 6357SOL     OW22024   3.155   8.010   7.722 -0.0304  0.8239  0.1912
 6357SOL    HW122025   3.218   7.965   7.779 -1.2933 -0.2475  0.8035
 6357SOL    HW222026   3.178   7.982   7.634 -0.3546 -0.5195  0.5037
 6358SOL     OW22027   2.102   3.404   7.047 -0.6124 -0.3354  0.1146
 6358SOL    HW122028   2.032   3.467   7.033  0.1313  1.1027  2.3762
 6358SOL    HW222029   2.077   3.357   7.126  0.3934 -0.6696  0.2495
 6359SOL     OW22030   4.739   5.765   1.539 -0.0346  0.1949  0.3360
 6359SOL    HW122031   4.690   5.800   1.613  1.1438  2.0712  0.2903
 6359SOL    HW222032   4.762   5.676   1.565 -1.3242  0.1383  1.3740
 6360SOL     OW22033   7.078   6.765   6.247 -0.3403  0.3001  0.6581
 6360SOL    HW122034   7.033   6.745   6.164 -1.8159  1.1200  1.2210
 6360SOL    HW222035   7.043   6.701   6.309  0.1354  0.2215  0.8474
 6361SOL     OW22036   2.659   3.816   3.689  0.0364 -0.6312 -0.3076
 6361SOL    HW122037   2.601   3.786   3.760  0.2604 -0.5013 -0.0666
 6361SOL    HW222038   2.740   3.840   3.734 -0.0359  0.0495 -0.5317
 6362SOL     OW22039   3.297   1.573   0.984  0.1151 -0.6150 -0.8972
 6362SOL    HW122040   3.210   1.600   1.014  1.2601  2.0525  0.3514
 6362SOL    HW222041   3.298   1.594   0.891 -0.5959 -0.8214 -0.9595
 6363SOL     OW22042   3.749   2.915   1.385  0.1912 -0.1258  0.1553
 6363SOL    HW122043   3.659   2.948   1.377  0.0073 -0.8373 -0.9643
 6363SOL    HW222044   3.804   2.984   1.348 -0.0771 -0.5242 -1.0025
 6364SOL     OW22045   4.241   1.531   4.230 -0.5284  0.4897 -0.2442
 6364SOL    HW122046   4.259   1.617   4.270 -0.0284  0.5329 -0.5530
 6364SOL    HW222047   4.238   1.471   4.305 -0.5266  0.7179 -0.0573
 6365SOL     OW22048   4.995   7.456   2.844  0.0090 -0.4909 -0.0095
 6365SOL    HW122049   4.957   7.441   2.757  0.8240 -1.6119 -0.1997
 6365SOL    HW222050   4.989   7.372   2.888  1.6948 -0.5651  0.1591
 6366SOL     OW22051   2.619   2.861   3.662 -0.6459  0.1750 -0.2667
 6366SOL    HW122052   2.621   2.896   3.751  1.5179 -1.9155  0.5985
 6366SOL    HW222053   2.697   2.897   3.620  0.1432 -1.3906 -0.2117
 6367SOL     OW22054   4.971   4.138   1.038  0.6248 -0.0833 -0.1910
 6367SOL    HW122055   5.045   4.192   1.063  0.4973  0.3602 -0.7554
 6367SOL    HW222056   4.963   4.074   1.109  0.9662  0.4389  0.3232
 6368SOL     OW22057   1.467   1.208   3.026  0.3272  0.0364  0.3300
 6368SOL    HW122058   1.511   1.268   2.966 -0.2518  1.3413  1.1519
 6368SOL    HW222059   1.522   1.206   3.104  0.9394 -1.4423 -0.0965
 6369SOL     OW22060   5.278   7.340   1.661 -0.4464 -0.2672  0.2253
 6369SOL    HW122061   5.312   7.258   1.625  0.3292  0.2856 -0.3208
 6369SOL    HW222062   5.217   7.372   1.594 -0.0800  0.0504  0.0473
 6370SOL     OW22063   2.991   4.908   0.352  0.2158  0.6130  0.5284
 6370SOL    HW122064   2.964   4.899   0.443  0.4650  1.7192  0.7240
 6370SOL    HW222065   2.969   4.824   0.312 -0.5563  0.3678  1.4380
 6371SOL     OW22066   4.321   1.161   5.869  0.1810 -0.0887  0.2097
 6371SOL    HW122067   4.318   1.227   5.800  1.5272 -0.8548 -0.6275
 6371SOL    HW222068   4.404   1.176   5.914 -0.6343  0.3479  1.6591
 6372SOL     OW22069   0.246   2.825   4.688  0.3851 -0.2317 -0.0871
 6372SOL    HW122070   0.186   2.783   4.626  0.5599  0.6291 -0.8523
 6372SOL    HW222071   0.211   2.913   4.701  0.6480 -0.2208  0.6397
 6373SOL     OW22072   0.661   2.178   1.232  0.1409 -0.1106  0.1846
 6373SOL    HW122073   0.646   2.144   1.144 -0.0204 -0.7412  0.4485
 6373SOL    HW222074   0.581   2.226   1.254  0.5286  0.8007 -0.3458
 6374SOL     OW22075   2.465   3.191   2.135  0.1916 -0.5866 -0.3684
 6374SOL    HW122076   2.389   3.214   2.081 -1.8038  0.2470  2.5788
 6374SOL    HW222077   2.525   3.264   2.123  0.3010 -0.9259 -2.2130
 6375SOL     OW22078   2.800   2.386   8.057  0.0352  0.5312 -0.3442
 6375SOL    HW122079   2.850   2.435   8.122  0.9856  1.7274 -1.9127
 6375SOL    HW222080   2.714   2.373   8.097  0.6270  1.1139  1.1752
 6376SOL     OW22081   2.889   4.292   4.403 -0.2525 -0.3137 -0.9928
 6376SOL    HW122082   2.911   4.353   4.474 -0.8451 -1.3336  0.1092
 6376SOL    HW222083   2.834   4.343   4.344 -1.5806  0.0002  0.4284
 6377SOL     OW22084   0.703   3.982   1.360  0.2569 -0.2018  0.0193
 6377SOL    HW122085   0.671   3.905   1.407  0.5591 -1.8320 -2.2769
 6377SOL    HW222086   0.748   3.946   1.283  0.4062  2.2793 -1.1435
 6378SOL     OW22087   4.432   1.501   7.835 -0.3419  0.6612 -0.2952
 6378SOL    HW122088   4.467   1.587   7.858  1.1372  0.4397 -1.5906
 6378SOL    HW222089   4.379   1.517   7.757  0.8895  0.2475 -1.2427
 6379SOL     OW22090   0.070   3.774   2.988  0.0674  0.2233  0.0333
 6379SOL    HW122091   0.031   3.688   3.001  1.3462 -0.2505  1.0291
 6379SOL    HW222092   0.164   3.757   2.982  0.3733  1.5773  0.6206
 6380SOL     OW22093   5.491   2.459   0.329 -0.7387 -0.8022 -0.3133
 6380SOL    HW122094   5.491   2.538   0.275  1.6184  0.2219  1.0036
 6380SOL    HW222095   5.433   2.480   0.402  0.0514 -0.1427  0.1487
 6381SOL     OW22096   1.230   2.377   0.618 -0.3604 -0.0254  0.1938
 6381SOL    HW122097   1.161   2.443   0.624  0.7026  1.1229  0.1868
 6381SOL    HW222098   1.231   2.352   0.525 -1.8417 -1.2761  0.4779
 6382SOL     OW22099   4.212   7.557   5.787  0.5043 -0.0772  0.0469
 6382SOL    HW122100   4.186   7.470   5.817  0.3627  0.2079  0.7689
 6382SOL    HW222101   4.284   7.541   5.727  1.0660 -0.6396  0.8515
 6383SOL     OW22102   4.047   0.888   3.843  0.3944  0.0786 -0.2934
 6383SOL    HW122103   4.061   0.967   3.895 -2.9342 -0.5647  1.9009
 6383SOL    HW222104   3.999   0.918   3.765  0.3922  0.3860 -0.1739
 6384SOL     OW22105   1.674   7.040   2.508  0.8216  0.2634 -0.0031
 6384SOL    HW122106   1.732   6.970   2.480  2.3968  1.0890  1.0120
 6384SOL    HW222107   1.713   7.120   2.472 -0.0650  0.7890  0.1468
 6385SOL     OW22108   7.702   7.207   0.939  0.0621 -0.4210 -0.3199
 6385SOL    HW122109   7.625   7.258   0.963 -1.4755 -2.4203 -0.7698
 6385SOL    HW222110   7.750   7.197   1.021 -1.5617 -1.3928  0.5543
 6386SOL     OW22111   2.065   3.298   6.338  0.5359 -0.2367  0.1787
 6386SOL    HW122112   2.081   3.378   6.388 -2.3520  1.5637 -1.5027
 6386SOL    HW222113   1.988   3.318   6.284  0.1341 -3.9318 -0.8897
 6387SOL     OW22114   3.780   6.339   4.551  0.6342  0.5202  0.8550
 6387SOL    HW122115   3.806   6.404   4.485  0.7365  0.2055  0.5799
 6387SOL    HW222116   3.685   6.346   4.556  0.3772 -0.9746 -0.9521
 6388SOL     OW22117   0.924   3.443   0.122 -0.0454 -0.1980 -0.5944
 6388SOL    HW122118   0.928   3.349   0.138  2.4353 -0.4163 -1.9581
 6388SOL    HW222119   0.981   3.481   0.188 -0.5924  0.2992 -0.4029
 6389SOL     OW22120   3.107   6.101   6.545 -0.1239 -0.4282  0.4041
 6389SOL    HW122121   3.181   6.083   6.603  0.4512  0.0839 -0.1594
 6389SOL    HW222122   3.144   6.098   6.457 -0.4743  1.1309  0.1649
 6390SOL     OW22123   6.399   4.909   5.101  0.6763  0.3380  0.1150
 6390SOL    HW122124   6.375   4.973   5.168 -1.4220 -0.4001  0.1601
 6390SOL    HW222125   6.458   4.849   5.145  0.2574  0.5379  0.9729
 6391SOL     OW22126   1.853   1.632   3.811 -0.4639  0.1767  0.3437
 6391SOL    HW122127   1.931   1.593   3.771 -0.7277 -0.4263  0.4094
 6391SOL    HW222128   1.866   1.726   3.802 -0.2356  0.0586 -0.6292
 6392SOL     OW22129   3.363   3.755   0.709  0.2077  0.6429  0.3336
 6392SOL    HW122130   3.328   3.745   0.798 -0.4257  2.9520  0.4101
 6392SOL    HW222131   3.448   3.798   0.722  0.9189 -0.5572 -0.1315
 6393SOL     OW22132   2.171   5.451   7.643  0.7509  0.4253 -0.2475
 6393SOL    HW122133   2.210   5.536   7.620 -0.8410  1.3264  0.1714
 6393SOL    HW222134   2.077   5.464   7.628  0.1765 -0.4691  2.1415
 6394SOL     OW22135   1.950   6.464   1.878 -0.1693  0.1847 -0.5929
 6394SOL    HW122136   1.951   6.528   1.949  1.0657  2.6082 -2.5968
 6394SOL    HW222137   1.857   6.441   1.867 -0.6536  1.6125  0.2680
 6395SOL     OW22138   4.856   0.462   5.616 -0.6080 -0.3406  0.4707
 6395SOL    HW122139   4.790   0.465   5.547 -1.3283 -0.9543  1.1077
 6395SOL    HW222140   4.894   0.550   5.618 -0.9077 -0.1881 -0.3780
 6396SOL     OW22141   7.025   4.092   7.419 -0.1455 -0.3113 -0.9660
 6396SOL    HW122142   7.076   4.115   7.497 -2.1525 -0.2713  0.4036
 6396SOL    HW222143   7.079   4.122   7.346  1.8494 -0.4316  0.3697
 6397SOL     OW22144   3.680   5.280   7.819  0.0507  0.0563 -0.9832
 6397SOL    HW122145   3.617   5.207   7.813  0.0005  0.1785 -2.1162
 6397SOL    HW222146   3.759   5.240   7.854 -0.1163 -0.4594 -1.1805
 6398SOL     OW22147   1.894   6.545   2.889 -0.4566  0.5581 -0.7556
 6398SOL    HW122148   1.837   6.607   2.934  0.5291  1.1394 -0.2740
 6398SOL    HW222149   1.880   6.462   2.936 -0.8888  0.6906 -0.6418
 6399SOL     OW22150   3.166   8.001   1.655  0.2057 -0.2888  0.4398
 6399SOL    HW122151   3.150   8.092   1.630  1.0398 -0.4199 -0.6686
 6399SOL    HW222152   3.247   7.978   1.609  0.2111 -1.4762  1.0091
 6400SOL     OW22153   3.797   2.488   3.895  0.6019  0.7050  0.0461
 6400SOL    HW122154   3.798   2.410   3.952 -1.7201  0.7842  0.2920
 6400SOL    HW222155   3.882   2.529   3.910  1.8408 -1.6565  0.0542
 6401SOL     OW22156   7.295   7.548   7.824  0.2745  0.2913 -0.8339
 6401SOL    HW122157   7.333   7.633   7.844 -0.7585  0.6834 -0.4662
 6401SOL    HW222158   7.307   7.538   7.729 -0.1108  1.1171 -0.9808
 6402SOL     OW22159   0.514   1.139   3.947 -0.2411 -0.0343 -0.0530
 6402SOL    HW122160   0.570   1.062   3.958 -0.2053  0.1635  1.3722
 6402SOL    HW222161   0.566   1.200   3.896 -0.1452 -0.8279 -0.9176
 6403SOL     OW22162   3.864   2.546   0.497 -0.4204  0.1468 -0.3702
 6403SOL    HW122163   3.768   2.543   0.494 -0.4123 -1.3497 -0.0526
 6403SOL    HW222164   3.883   2.607   0.569 -1.0930  1.4740 -1.2768
 6404SOL     OW22165   2.306   0.541   6.608  0.1282 -0.6798 -0.0507
 6404SOL    HW122166   2.335   0.465   6.559 -3.4499 -0.9094 -2.1136
 6404SOL    HW222167   2.241   0.583   6.552  0.4391  2.7614  1.8890
 6405SOL     OW22168   7.071   2.238   5.535 -0.3750  0.2097  0.5266
 6405SOL    HW122169   7.114   2.187   5.466 -0.1379  1.3306 -0.1811
 6405SOL    HW222170   6.978   2.219   5.525 -0.2147 -0.8637  0.9365
 6406SOL     OW22171   0.757   4.522   4.097 -0.3624 -0.1859 -0.1543
 6406SOL    HW122172   0.835   4.569   4.067 -0.9960 -0.1305 -1.8117
 6406SOL    HW222173   0.750   4.544   4.190  0.8605  0.8590 -0.2880
 6407SOL     OW22174   3.048   0.206   7.546  0.2371 -0.1518 -0.2331
 6407SOL    HW122175   3.002   0.122   7.540  0.1700 -0.2045  0.8452
 6407SOL    HW222176   3.137   0.186   7.517  0.6321 -0.9571  1.4164
 6408SOL     OW22177   2.871   1.382   7.783 -0.3701  0.5702  0.9019
 6408SOL    HW122178   2.806   1.450   7.802  1.6552  2.1658  2.6418
 6408SOL    HW222179   2.924   1.420   7.712 -1.0302 -0.5495 -0.2277
 6409SOL     OW22180   3.500   4.634   4.635 -0.4653 -0.0421 -0.3174
 6409SOL    HW122181   3.524   4.664   4.723 -1.0318  0.7464 -0.4253
 6409SOL    HW222182   3.530   4.543   4.632  0.2714  0.1613  0.4148
 6410SOL     OW22183   5.697   0.513   5.445  0.1839 -0.4432 -0.2827
 6410SOL    HW122184   5.775   0.479   5.402 -0.1418 -0.5386 -0.8133
 6410SOL    HW222185   5.634   0.440   5.441  0.3632 -0.6896  0.9588
 6411SOL     OW22186   4.371   3.853   0.189 -0.1069  0.7073 -0.3177
 6411SOL    HW122187   4.299   3.858   0.252  0.3100 -1.1575  0.3633
 6411SOL    HW222188   4.448   3.879   0.238  0.2203 -0.7534 -0.0093
 6412SOL     OW22189   3.902   7.442   1.760 -0.1178  0.6531 -0.5758
 6412SOL    HW122190   3.839   7.413   1.694 -0.4532  0.3529 -0.1292
 6412SOL    HW222191   3.879   7.534   1.775  0.5727  1.0119 -1.5624
 6413SOL     OW22192   3.622   4.621   1.039 -0.0240  0.1556  0.2818
 6413SOL    HW122193   3.531   4.644   1.021 -0.2524 -1.2168 -0.4496
 6413SOL    HW222194   3.672   4.699   1.014 -0.9841  0.9147  0.6633
 6414SOL     OW22195   2.456   1.792   8.062 -0.4320  0.0412  0.2682
 6414SOL    HW122196   2.372   1.806   8.107 -0.9362 -1.1523 -0.2541
 6414SOL    HW222197   2.521   1.791   8.133 -0.7765  1.4357  0.6359
 6415SOL     OW22198   7.837   2.312   4.037 -0.4380  0.2310 -0.4929
 6415SOL    HW122199   7.757   2.258   4.035 -0.5721  0.3891  0.2144
 6415SOL    HW222200   7.809   2.394   4.079 -0.4810  1.2866 -2.4940
 6416SOL     OW22201   4.641   0.476   5.858 -0.3729  0.4848  0.0223
 6416SOL    HW122202   4.722   0.511   5.896  1.0701 -2.0590 -0.4820
 6416SOL    HW222203   4.654   0.382   5.857 -2.0209  0.1692 -3.0423
 6417SOL     OW22204   3.794   0.653   1.509 -0.5376  0.1648  0.1147
 6417SOL    HW122205   3.761   0.570   1.474 -0.4467  0.0481  0.2985
 6417SOL    HW222206   3.753   0.720   1.455 -0.1361 -0.0205 -0.4323
 6418SOL     OW22207   7.103   0.296   5.125 -0.1488 -0.2270  0.2869
 6418SOL    HW122208   7.169   0.309   5.057  1.8241  1.1528  2.3425
 6418SOL    HW222209   7.034   0.359   5.103 -0.5372 -1.2185 -1.5137
 6419SOL     OW22210   2.869   3.322   5.213 -0.5715  0.2798  0.1868
 6419SOL    HW122211   2.863   3.267   5.135 -0.2418  1.4396 -0.7045
 6419SOL    HW222212   2.962   3.345   5.219 -0.6667  0.5575  0.6502
 6420SOL     OW22213   3.393   4.157   4.143 -0.1081 -0.2883 -0.1656
 6420SOL    HW122214   3.367   4.088   4.082  0.9018 -0.5969 -0.2656
 6420SOL    HW222215   3.482   4.134   4.169  0.2416  0.9543 -0.1741
 6421SOL     OW22216   5.749   1.558   4.911  0.0010 -0.2581  0.2953
 6421SOL    HW122217   5.758   1.554   4.816 -2.3530 -0.1691  0.0129
 6421SOL    HW222218   5.688   1.630   4.926  0.3255 -0.2768  1.8851
 6422SOL     OW22219   6.392   4.451   6.918  0.0747  0.0860 -0.1292
 6422SOL    HW122220   6.487   4.467   6.917 -0.0403  0.7848 -0.0349
 6422SOL    HW222221   6.363   4.476   6.830  0.2945 -2.2176 -0.9478
 6423SOL     OW22222   1.208   1.867   7.543  0.9659  0.5257  0.6804
 6423SOL    HW122223   1.169   1.950   7.514 -0.1985  0.5521  2.1893
 6423SOL    HW222224   1.168   1.851   7.629  1.8775 -1.1344  0.8272
 6424SOL     OW22225   1.297   0.439   2.446  0.2341 -0.0676 -0.5467
 6424SOL    HW122226   1.257   0.491   2.376 -0.2377  0.0774 -0.1742
 6424SOL    HW222227   1.252   0.467   2.525 -0.3556 -1.3630 -0.4008
 6425SOL     OW22228   7.095   5.655   7.018 -0.8219 -0.0424 -0.3709
 6425SOL    HW122229   7.130   5.707   6.946 -0.5339  0.1432 -0.0973
 6425SOL    HW222230   7.038   5.716   7.066 -0.9071 -0.1294 -0.3604
 6426SOL     OW22231   4.467   3.531   2.942 -0.1489 -0.2695 -0.4614
 6426SOL    HW122232   4.409   3.491   3.006  0.9813 -1.0277  0.1297
 6426SOL    HW222233   4.544   3.557   2.993 -0.1707  1.1971 -1.1254
 6427SOL     OW22234   5.779   5.412   6.353  0.3066 -0.0159  0.3077
 6427SOL    HW122235   5.780   5.449   6.441  1.4558  1.3029 -0.2233
 6427SOL    HW222236   5.867   5.429   6.319 -0.2990  0.0311 -1.3090
 6428SOL     OW22237   2.096   4.821   0.954 -0.0224 -0.3570 -0.2147
 6428SOL    HW122238   2.081   4.846   0.863  0.9701  1.5323  0.0744
 6428SOL    HW222239   2.021   4.857   1.001  1.0264  1.5677  0.0962
 6429SOL     OW22240   3.817   6.435   4.201  0.0618 -0.3471  0.0881
 6429SOL    HW122241   3.747   6.475   4.252 -0.0570  1.3174 -1.2876
 6429SOL    HW222242   3.778   6.357   4.162 -0.3524 -0.6457  1.0773
 6430SOL     OW22243   6.911   7.618   5.721  0.1651  0.0454 -0.0300
 6430SOL    HW122244   6.923   7.648   5.811 -0.7363 -0.2170  0.1872
 6430SOL    HW222245   6.999   7.620   5.684  0.7325 -0.8802  1.1761
 6431SOL     OW22246   6.452   1.602   2.919  0.3899 -0.7209 -0.1354
 6431SOL    HW122247   6.547   1.590   2.918  0.2141 -3.1265  1.8074
 6431SOL    HW222248   6.419   1.532   2.862 -0.2412  0.9377 -1.9122
 6432SOL     OW22249   6.016   4.469   7.193  0.4687 -0.1494  0.5781
 6432SOL    HW122250   6.097   4.518   7.183 -0.3988  1.0433 -1.3793
 6432SOL    HW222251   5.963   4.522   7.253  0.6527 -0.2526  0.8316
 6433SOL     OW22252   5.158   7.819   3.208  0.4832 -0.2772  0.3023
 6433SOL    HW122253   5.063   7.827   3.198  0.4290 -0.1046  0.8927
 6433SOL    HW222254   5.192   7.819   3.119 -0.0853 -0.5116  0.0796
 6434SOL     OW22255   7.852   3.572   6.424 -0.2359  0.2605 -0.1694
 6434SOL    HW122256   7.808   3.499   6.380 -1.0899 -0.2804  1.4892
 6434SOL    HW222257   7.807   3.650   6.391 -0.5268 -0.0955 -0.6263
 6435SOL     OW22258   3.797   3.259   3.585  0.3825  0.0723  0.1944
 6435SOL    HW122259   3.772   3.333   3.641 -0.5223 -0.1305  0.0609
 6435SOL    HW222260   3.872   3.293   3.535  0.8083  0.4606  1.0644
 6436SOL     OW22261   7.077   3.708   0.239 -0.1871 -0.1629 -0.3428
 6436SOL    HW122262   7.004   3.688   0.297  0.2795 -0.2386  0.2191
 6436SOL    HW222263   7.109   3.623   0.209  0.6214 -0.2020  0.5961
 6437SOL     OW22264   6.092   2.072   4.698 -0.5173  0.1180  0.5248
 6437SOL    HW122265   6.100   1.996   4.640  1.8742  1.8998 -1.6948
 6437SOL    HW222266   6.162   2.060   4.762  0.2960  0.7148 -0.2284
 6438SOL     OW22267   1.173   7.101   6.184  0.0309  0.3802  0.0056
 6438SOL    HW122268   1.123   7.142   6.255 -0.5126 -0.7376  0.2944
 6438SOL    HW222269   1.223   7.172   6.145 -0.4582  1.2019  0.8504
 6439SOL     OW22270   7.917   0.654   3.595 -0.5719 -0.5153  0.5723
 6439SOL    HW122271   7.974   0.603   3.653 -0.7221 -0.4909  0.7417
 6439SOL    HW222272   7.964   0.656   3.511  0.0926  0.2234  0.9346
 6440SOL     OW22273   6.952   7.376   7.739  0.1678 -0.1081  0.3306
 6440SOL    HW122274   6.950   7.412   7.827 -0.2849  0.3111  0.1559
 6440SOL    HW222275   6.928   7.284   7.749  0.9130 -0.2705  0.7311
 6441SOL     OW22276   6.065   0.072   2.563  0.5955  0.5593 -0.2553
 6441SOL    HW122277   6.083   0.054   2.471 -0.0280 -0.5167 -0.1789
 6441SOL    HW222278   6.114   0.153   2.581  2.2667 -0.2173 -1.0239
 6442SOL     OW22279   2.130   5.858   3.801  0.5772 -0.0893  0.3297
 6442SOL    HW122280   2.037   5.835   3.794  0.1602  1.5256  0.2790
 6442SOL    HW222281   2.174   5.795   3.743 -0.5061 -0.6628  0.0896
 6443SOL     OW22282   5.473   2.833   6.078  0.5898  0.4151  0.3469
 6443SOL    HW122283   5.474   2.754   6.024 -0.7591  0.6721 -0.1032
 6443SOL    HW222284   5.389   2.829   6.125  1.2454  0.7568  1.5879
 6444SOL     OW22285   6.917   0.896   4.339  0.0085 -0.0934 -0.0784
 6444SOL    HW122286   6.994   0.878   4.286  0.0667  0.2240 -0.1036
 6444SOL    HW222287   6.855   0.827   4.317  0.1543 -0.1462 -0.3192
 6445SOL     OW22288   0.245   1.808   8.068 -1.2334 -0.3214 -0.0091
 6445SOL    HW122289   0.329   1.842   8.098 -1.1543 -2.4369  2.5276
 6445SOL    HW222290   0.267   1.750   7.995 -0.4736 -0.8123  0.5964
 6446SOL     OW22291   2.695   5.684   0.732 -0.0533 -0.0993 -0.1372
 6446SOL    HW122292   2.624   5.629   0.766 -0.0342 -0.8779 -1.2961
 6446SOL    HW222293   2.751   5.700   0.807 -0.3932 -1.1703  0.3625
 6447SOL     OW22294   2.994   1.260   3.217 -0.2765 -0.2209  0.8592
 6447SOL    HW122295   3.018   1.296   3.302 -2.1510  2.1629  0.5107
 6447SOL    HW222296   2.898   1.257   3.219 -0.2895 -1.8679 -0.5247
 6448SOL     OW22297   4.494   6.895   5.334  0.6461  0.1881 -0.0421
 6448SOL    HW122298   4.539   6.817   5.365  0.3243 -0.2879 -0.7777
 6448SOL    HW222299   4.401   6.873   5.339  0.5561  0.5060 -0.3120
 6449SOL     OW22300   1.321   2.841   6.769  0.2468 -0.0774 -0.4280
 6449SOL    HW122301   1.262   2.916   6.756  1.9000  1.1455 -1.1449
 6449SOL    HW222302   1.267   2.777   6.817 -0.3211  2.8493  3.3330
 6450SOL     OW22303   2.514   2.684   6.823 -0.1213  0.0554 -0.3044
 6450SOL    HW122304   2.604   2.668   6.793  0.4742  0.4840  1.1919
 6450SOL    HW222305   2.496   2.774   6.796  0.7337  0.7476  1.2841
 6451SOL     OW22306   6.639   4.710   7.013  1.1507  0.3166  0.1876
 6451SOL    HW122307   6.659   4.617   7.009 -0.8059 -0.2675  2.0007
 6451SOL    HW222308   6.658   4.743   6.925  2.1789 -1.7033 -0.3994
 6452SOL     OW22309   3.386   4.399   6.117  0.3681 -0.2607  0.2852
 6452SOL    HW122310   3.349   4.327   6.167 -0.9582  0.1572 -0.0564
 6452SOL    HW222311   3.323   4.471   6.126 -0.2508 -0.3416 -2.4068
 6453SOL     OW22312   7.436   5.172   5.329  0.0651 -0.3172 -0.2334
 6453SOL    HW122313   7.478   5.109   5.387  1.2004 -0.4004 -1.1181
 6453SOL    HW222314   7.363   5.124   5.290  0.5056 -0.8671 -0.3842
 6454SOL     OW22315   4.029   6.677   7.392  0.1111 -0.0562 -0.3951
 6454SOL    HW122316   4.097   6.689   7.325  0.5630 -0.4652 -0.0197
 6454SOL    HW222317   3.952   6.650   7.343  0.5969 -0.9208 -0.6971
 6455SOL     OW22318   3.862   1.324   3.061 -0.0962  0.1743  0.1474
 6455SOL    HW122319   3.894   1.245   3.018 -0.2985 -0.1867  0.6561
 6455SOL    HW222320   3.775   1.338   3.025 -0.7669 -0.8289  1.3331
 6456SOL     OW22321   5.714   6.033   1.874  0.3109 -0.4589  0.0350
 6456SOL    HW122322   5.624   6.054   1.897  0.2090 -0.3684 -0.4457
 6456SOL    HW222323   5.765   6.058   1.952  0.1604  1.2835 -0.3951
 6457SOL     OW22324   5.659   5.265   7.239 -0.0303 -0.0081 -0.4267
 6457SOL    HW122325   5.579   5.277   7.290  1.8343 -1.7447  3.3556
 6457SOL    HW222326   5.692   5.354   7.224 -0.5071  0.6380  1.9407
 6458SOL     OW22327   7.971   2.709   7.860 -0.3668  0.1148  0.2100
 6458SOL    HW122328   7.931   2.795   7.874  1.6746  1.5865 -2.1294
 6458SOL    HW222329   8.065   2.724   7.870  0.1671 -1.4243 -1.8122
 6459SOL     OW22330   2.431   7.536   0.078 -0.1078  0.0714 -0.1605
 6459SOL    HW122331   2.472   7.581   0.005 -0.2530  0.5890  0.0769
 6459SOL    HW222332   2.498   7.532   0.146  0.0130 -0.3709 -0.3038
 6460SOL     OW22333   1.613   7.332   3.620 -0.3153 -0.5956 -0.5118
 6460SOL    HW122334   1.527   7.302   3.650 -0.4533  1.3250  1.2180
 6460SOL    HW222335   1.675   7.276   3.668 -0.5679 -1.3446 -1.0360
 6461SOL     OW22336   3.737   3.582   7.082  0.0470 -0.1187 -0.1577
 6461SOL    HW122337   3.665   3.594   7.020 -0.3293 -1.3869  0.0204
 6461SOL    HW222338   3.724   3.652   7.147 -2.3732 -1.6162  1.1264
 6462SOL     OW22339   6.728   1.008   7.767  0.4398 -0.2270  0.1528
 6462SOL    HW122340   6.738   1.047   7.680  0.4038  0.3054  0.3882
 6462SOL    HW222341   6.658   1.058   7.809  1.3406  0.3785  0.9758
 6463SOL     OW22342   3.256   7.463   4.048  0.0224  0.1099  0.9315
 6463SOL    HW122343   3.193   7.469   4.120  0.2229  0.5697  1.0728
 6463SOL    HW222344   3.340   7.448   4.090  0.1716  0.5795  0.8113
 6464SOL     OW22345   2.654   7.515   3.950  0.6662  0.1396 -0.4494
 6464SOL    HW122346   2.632   7.442   4.008 -0.8054 -0.5183 -1.7664
 6464SOL    HW222347   2.649   7.592   4.007  0.3865 -0.5837  0.5484
 6465SOL     OW22348   4.378   8.099   2.517  0.2404  0.2423  0.0822
 6465SOL    HW122349   4.293   8.073   2.552 -0.3681  0.8218 -0.9169
 6465SOL    HW222350   4.418   8.152   2.586 -0.0288 -0.3748  0.7146
 6466SOL     OW22351   7.893   1.952   6.893 -0.3351  0.1814  0.6633
 6466SOL    HW122352   7.902   2.039   6.855  0.0096 -0.0228  0.2713
 6466SOL    HW222353   7.819   1.913   6.846 -0.9750  0.5284  1.3567
 6467SOL     OW22354   1.398   5.404   4.815  0.1430 -0.1744 -0.0014
 6467SOL    HW122355   1.393   5.362   4.902 -0.5852  1.1970  0.6507
 6467SOL    HW222356   1.487   5.439   4.811  0.4180 -0.8761 -0.1198
 6468SOL     OW22357   7.729   1.058   2.741 -0.1774 -0.4227  0.2059
 6468SOL    HW122358   7.644   1.069   2.699 -0.8270 -1.2223  1.2654
 6468SOL    HW222359   7.779   1.136   2.716 -0.8498 -0.4206 -1.2460
 6469SOL     OW22360   0.562   3.211   3.651  0.3071 -0.1269 -0.2993
 6469SOL    HW122361   0.487   3.267   3.630  0.2922  0.6464  1.6446
 6469SOL    HW222362   0.636   3.271   3.659  0.5295 -0.5032  0.6640
 6470SOL     OW22363   5.869   5.467   1.624 -0.6880  0.1300 -0.0622
 6470SOL    HW122364   5.834   5.551   1.651 -1.2930  0.4022 -1.6280
 6470SOL    HW222365   5.934   5.488   1.556 -0.5285 -0.6370 -0.1590
 6471SOL     OW22366   7.540   6.383   7.047  0.1916 -0.9175  0.4569
 6471SOL    HW122367   7.491   6.447   6.996  1.0612 -0.3914  0.2614
 6471SOL    HW222368   7.477   6.350   7.111 -0.6725 -0.9606 -0.3967
 6472SOL     OW22369   3.581   1.479   3.824  0.1000 -0.5885 -0.6721
 6472SOL    HW122370   3.550   1.503   3.737  1.7844  2.9857 -0.4838
 6472SOL    HW222371   3.626   1.396   3.811 -0.7577 -0.7681 -2.9526
 6473SOL     OW22372   0.666   6.830   0.822 -0.3997 -0.1690  0.2137
 6473SOL    HW122373   0.615   6.785   0.889  0.4023  0.5907  1.3784
 6473SOL    HW222374   0.757   6.805   0.839 -0.2065 -0.2860 -0.8680
 6474SOL     OW22375   4.764   4.697   2.896 -0.5139  0.3580 -0.2018
 6474SOL    HW122376   4.726   4.707   2.808 -0.5657 -2.6126 -0.6160
 6474SOL    HW222377   4.854   4.670   2.880 -0.2795  0.5922  0.6968
 6475SOL     OW22378   0.792   0.539   1.076  0.7442  0.2060 -0.0571
 6475SOL    HW122379   0.707   0.579   1.059  0.8343 -0.6059 -3.1733
 6475SOL    HW222380   0.773   0.445   1.084  1.2428  0.1203  0.1698
 6476SOL     OW22381   3.701   7.574   5.190  0.2254 -0.9314 -0.6533
 6476SOL    HW122382   3.636   7.514   5.225  0.2052 -1.0819 -0.9522
 6476SOL    HW222383   3.700   7.559   5.096  1.9703 -2.2365 -0.5183
 6477SOL     OW22384   0.091   1.776   2.810  0.1550  0.7908  0.1582
 6477SOL    HW122385   0.124   1.700   2.762 -0.1436  0.5360  0.3595
 6477SOL    HW222386   0.001   1.787   2.780  0.0621  0.8106  0.4435
 6478SOL     OW22387   0.939   6.743   6.835 -0.0744  0.0699 -0.2074
 6478SOL    HW122388   0.963   6.832   6.862 -0.6094  0.2106 -0.1810
 6478SOL    HW222389   1.020   6.707   6.797  0.5495  0.0501  1.0805
 6479SOL     OW22390   5.596   2.743   4.454 -0.1858  0.4822  0.1951
 6479SOL    HW122391   5.571   2.723   4.364 -0.5356 -0.9658  0.5793
 6479SOL    HW222392   5.588   2.659   4.500  0.7195  1.0277  1.4067
 6480SOL     OW22393   2.478   3.081   1.004  0.1866  0.0986  0.4482
 6480SOL    HW122394   2.429   3.157   1.037  0.8766  0.6919  0.1464
 6480SOL    HW222395   2.570   3.107   1.013  0.4137 -0.4111 -0.3429
 6481SOL     OW22396   1.872   7.072   0.648 -0.1391  0.2887 -0.8103
 6481SOL    HW122397   1.785   7.031   0.647 -0.0841  0.1674 -1.3172
 6481SOL    HW222398   1.922   7.024   0.582  0.6186 -0.2643  0.1396
 6482SOL     OW22399   1.865   1.887   0.309  0.4498  0.1543  0.4841
 6482SOL    HW122400   1.913   1.851   0.383  0.9809 -1.0243 -0.4031
 6482SOL    HW222401   1.922   1.872   0.233 -1.1977 -1.0808 -0.5643
 6483SOL     OW22402   6.224   0.963   3.169  0.6853  0.0290 -0.1355
 6483SOL    HW122403   6.288   1.028   3.197 -0.9292  1.2410  1.0030
 6483SOL    HW222404   6.173   1.007   3.101 -1.2549  0.5642  1.5285
 6484SOL     OW22405   3.965   7.554   1.474  0.6196  0.1627  0.5459
 6484SOL    HW122406   3.873   7.537   1.497  0.2981  0.3900 -0.5402
 6484SOL    HW222407   3.967   7.646   1.450  0.9604 -0.0548 -0.2754
 6485SOL     OW22408   1.873   2.176   4.968  0.0523 -0.2071  0.8533
 6485SOL    HW122409   1.901   2.121   4.895  0.3941  1.4893 -0.3622
 6485SOL    HW222410   1.777   2.174   4.964  0.0647  0.5452 -0.2140
 6486SOL     OW22411   6.176   7.391   5.762  0.2964 -0.5690 -0.5435
 6486SOL    HW122412   6.131   7.458   5.710 -0.8963  1.5187  2.8380
 6486SOL    HW222413   6.257   7.435   5.790 -1.1603  0.2509  2.9138
 6487SOL     OW22414   0.348   4.112   1.125 -0.3030 -0.2460 -0.0747
 6487SOL    HW122415   0.399   4.077   1.052 -1.9936 -2.1601 -0.4078
 6487SOL    HW222416   0.260   4.121   1.091 -0.8739  0.0023  1.3840
 6488SOL     OW22417   4.614   0.833   7.399  0.3399 -0.3202  0.2538
 6488SOL    HW122418   4.570   0.826   7.483 -1.2710 -2.0355 -0.6418
 6488SOL    HW222419   4.671   0.756   7.395  0.2825 -0.3423 -0.2705
 6489SOL     OW22420   4.260   2.022   4.560 -0.4879  0.1871 -0.2847
 6489SOL    HW122421   4.230   2.070   4.637 -0.0204  0.4537 -0.2597
 6489SOL    HW222422   4.320   1.956   4.595  1.1474  1.4545 -0.5321
 6490SOL     OW22423   2.391   0.299   6.023 -0.0756 -0.1498 -0.1741
 6490SOL    HW122424   2.402   0.387   6.061  1.3239  1.2939 -3.5145
 6490SOL    HW222425   2.300   0.277   6.040 -0.2533  1.5961  1.4665
 6491SOL     OW22426   5.941   7.560   4.395 -0.0970 -0.2210  0.5181
 6491SOL    HW122427   5.940   7.502   4.472  2.4129  0.2812  1.0098
 6491SOL    HW222428   5.850   7.590   4.387 -0.9189 -2.1206  1.8382
 6492SOL     OW22429   3.951   0.477   3.778  0.3777  0.4989  0.3611
 6492SOL    HW122430   4.045   0.473   3.760  0.2475 -0.1594 -0.2085
 6492SOL    HW222431   3.945   0.525   3.861  1.1575  1.2552  0.0043
 6493SOL     OW22432   2.457   5.578   7.027 -0.8318  0.0077  0.2947
 6493SOL    HW122433   2.482   5.634   6.953  1.1743  1.5336  2.0141
 6493SOL    HW222434   2.423   5.638   7.093 -1.7834 -1.2210  0.9666
 6494SOL     OW22435   4.191   1.323   1.142  0.6930 -0.3107 -0.1385
 6494SOL    HW122436   4.239   1.380   1.202  0.9075 -1.6446  0.9840
 6494SOL    HW222437   4.257   1.265   1.105  0.0599 -1.8170  1.0186
 6495SOL     OW22438   6.076   1.581   5.641  0.2883 -0.0379 -0.4080
 6495SOL    HW122439   6.121   1.498   5.655 -2.0875 -1.4556 -0.6238
 6495SOL    HW222440   6.076   1.593   5.546 -0.1906 -0.3005 -0.4446
 6496SOL     OW22441   5.432   0.381   7.143 -0.2885 -0.1462 -0.4328
 6496SOL    HW122442   5.396   0.450   7.199 -1.2019 -1.5182  0.7483
 6496SOL    HW222443   5.414   0.412   7.054 -0.8816  1.0324  0.0644
 6497SOL     OW22444   7.999   0.610   1.093 -0.3097  0.3208  0.0237
 6497SOL    HW122445   8.031   0.598   1.182 -1.0770  0.0716  0.2719
 6497SOL    HW222446   8.006   0.523   1.053 -0.2180  0.3715 -0.0697
 6498SOL     OW22447   6.455   1.653   1.830 -0.3590 -0.0050  0.1937
 6498SOL    HW122448   6.385   1.597   1.797 -0.7551  1.8629 -2.4599
 6498SOL    HW222449   6.421   1.742   1.822  1.4603  0.8321  1.0715
 6499SOL     OW22450   4.600   1.143   5.983 -0.4151 -0.1861 -0.2162
 6499SOL    HW122451   4.629   1.091   5.908 -0.6175 -1.0593  0.3010
 6499SOL    HW222452   4.652   1.110   6.056 -0.4147  0.4721  0.0868
 6500SOL     OW22453   5.979   1.275   6.020  0.0634  0.2734  1.0493
 6500SOL    HW122454   5.986   1.258   5.926  0.0615 -5.1762  1.6780
 6500SOL    HW222455   5.897   1.324   6.029 -0.3652  0.2746 -1.7582
 6501SOL     OW22456   0.561   0.286   5.286 -0.0189  0.1178 -0.2538
 6501SOL    HW122457   0.605   0.364   5.319 -0.8219  0.9531 -1.1509
 6501SOL    HW222458   0.507   0.316   5.213  0.2794 -1.4002 -1.1465
 6502SOL     OW22459   0.763   7.693   7.876 -0.0455 -0.5597 -0.6736
 6502SOL    HW122460   0.750   7.618   7.933  3.2268 -0.7797 -0.0116
 6502SOL    HW222461   0.779   7.766   7.936 -0.1618  0.0041 -1.3165
 6503SOL     OW22462   5.622   4.320   1.783 -0.4441  0.6996  0.1125
 6503SOL    HW122463   5.582   4.308   1.869 -3.5292  0.5848 -1.1916
 6503SOL    HW222464   5.621   4.415   1.769 -1.2188  0.6370 -0.3087
 6504SOL     OW22465   5.748   5.532   7.266 -0.2556  0.2089 -0.1148
 6504SOL    HW122466   5.773   5.488   7.347  0.5381  1.0791  0.1222
 6504SOL    HW222467   5.825   5.583   7.241 -0.6390  0.2875 -1.1922
 6505SOL     OW22468   6.164   7.790   7.741 -0.3511  0.9866  0.0319
 6505SOL    HW122469   6.109   7.811   7.665  0.2496  0.7633 -0.4750
 6505SOL    HW222470   6.103   7.782   7.814 -1.2319 -1.2136 -0.8871
 6506SOL     OW22471   4.931   1.504   3.142  0.0342 -0.1527 -0.2217
 6506SOL    HW122472   4.889   1.420   3.121 -2.3232  0.8016  0.3717
 6506SOL    HW222473   4.922   1.513   3.237  0.1879  0.7775 -0.2831
 6507SOL     OW22474   2.272   5.093   7.579 -0.2361  0.2639 -0.4138
 6507SOL    HW122475   2.283   5.057   7.491 -0.4009  1.6938 -1.0524
 6507SOL    HW222476   2.325   5.173   7.579 -0.0958  0.1890  0.8509
 6508SOL     OW22477   3.932   6.918   0.059 -0.2128  0.3382  0.0806
 6508SOL    HW122478   3.900   6.964  -0.019 -0.7087  0.4307  0.3305
 6508SOL    HW222479   3.953   6.988   0.121 -1.2912  0.2450  0.5877
 6509SOL     OW22480   3.065   7.148   4.444 -0.7027  0.1460  0.3486
 6509SOL    HW122481   3.026   7.229   4.476  0.0732  0.8323 -0.3617
 6509SOL    HW222482   3.010   7.078   4.479 -0.1516  0.8468  2.7732
 6510SOL     OW22483   5.940   7.377   7.894 -0.9409  0.2776  0.0417
 6510SOL    HW122484   5.870   7.313   7.909 -1.2176  0.4248 -0.5776
 6510SOL    HW222485   5.990   7.340   7.821 -1.1304  0.7864 -0.3488
 6511SOL     OW22486   6.731   5.486   7.881  0.7494  0.0944 -0.1014
 6511SOL    HW122487   6.777   5.408   7.850  0.6940 -1.2017  2.8222
 6511SOL    HW222488   6.800   5.552   7.891  1.0464 -0.0501 -1.0963
 6512SOL     OW22489   3.616   4.552   3.335 -0.5854 -0.0659 -0.3757
 6512SOL    HW122490   3.641   4.544   3.243 -1.5474 -3.1917 -0.4595
 6512SOL    HW222491   3.521   4.544   3.334 -0.6729  0.6219  0.8702
 6513SOL     OW22492   6.074   0.580   2.648  0.0943 -0.2471 -0.0774
 6513SOL    HW122493   6.140   0.567   2.716  0.7681  1.6642 -0.3083
 6513SOL    HW222494   5.990   0.568   2.693  0.5386  0.7591  1.0596
 6514SOL     OW22495   1.594   2.006   1.781 -0.7740  0.1195 -0.0901
 6514SOL    HW122496   1.656   2.040   1.717  0.1305 -0.7628  0.2820
 6514SOL    HW222497   1.509   2.009   1.737 -0.2000 -0.2746 -1.2607
 6515SOL     OW22498   1.256   6.873   4.751 -0.2847  0.7545  0.3657
 6515SOL    HW122499   1.249   6.889   4.657  1.8236  0.6182  0.1316
 6515SOL    HW222500   1.348   6.892   4.772 -0.5897  0.3273  2.3075
 6516SOL     OW22501   1.575   7.288   0.177 -0.0584 -0.5338  0.5023
 6516SOL    HW122502   1.632   7.260   0.249  1.9514 -0.0719 -0.8090
 6516SOL    HW222503   1.562   7.210   0.124 -0.9037 -0.6984  0.9352
 6517SOL     OW22504   2.680   3.543   5.529  0.1740 -0.0384 -0.2208
 6517SOL    HW122505   2.732   3.623   5.534 -0.7964  0.9834 -3.8474
 6517SOL    HW222506   2.589   3.574   5.532 -0.3025 -1.4073  1.7226
 6518SOL     OW22507   6.954   7.701   7.518  0.2639  0.4172  0.3169
 6518SOL    HW122508   6.885   7.670   7.576  1.0237  0.2889  1.1805
 6518SOL    HW222509   7.010   7.625   7.504  1.2039  0.9376  1.0855
 6519SOL     OW22510   3.281   7.388   7.094 -0.2337 -0.5147 -0.8791
 6519SOL    HW122511   3.356   7.414   7.041 -1.4525  1.6496 -1.6934
 6519SOL    HW222512   3.205   7.407   7.038 -1.5773  1.7363  1.5026
 6520SOL     OW22513   3.199   5.424   3.420  0.1649 -0.0850 -0.1287
 6520SOL    HW122514   3.272   5.402   3.479  1.0027 -1.0196 -1.4676
 6520SOL    HW222515   3.125   5.436   3.479  1.3256  0.6763  1.2632
 6521SOL     OW22516   2.137   5.950   5.760 -0.2358 -0.0376 -0.0576
 6521SOL    HW122517   2.135   5.952   5.856 -1.2187  1.0503 -0.0817
 6521SOL    HW222518   2.199   6.017   5.735 -0.8602  0.4983 -0.1931
 6522SOL     OW22519   0.796   5.725   7.332 -0.0019  0.1033 -0.3667
 6522SOL    HW122520   0.705   5.710   7.358  0.8018 -0.7747  2.2646
 6522SOL    HW222521   0.820   5.645   7.286 -0.0758 -0.4334  0.4966
 6523SOL     OW22522   4.087   0.233   4.717  0.3437 -0.0943 -0.6441
 6523SOL    HW122523   4.015   0.254   4.776 -0.0834 -0.3863 -1.0520
 6523SOL    HW222524   4.100   0.139   4.729  0.8076 -0.0041 -0.4116
 6524SOL     OW22525   5.141   5.147   4.118 -0.0774 -0.1645 -0.3568
 6524SOL    HW122526   5.098   5.178   4.038 -1.1647 -0.7464 -0.0250
 6524SOL    HW222527   5.225   5.192   4.119 -0.6230  0.9314 -1.1074
 6525SOL     OW22528   7.536   6.576   1.580  0.3227  0.6687  0.0321
 6525SOL    HW122529   7.487   6.494   1.578 -1.1347  1.4901  0.9080
 6525SOL    HW222530   7.545   6.600   1.488 -0.9700  0.5220 -0.1479
 6526SOL     OW22531   2.594   0.252   7.120  0.1936 -0.3342  0.2319
 6526SOL    HW122532   2.639   0.228   7.202 -1.2732  0.6404  1.3789
 6526SOL    HW222533   2.507   0.281   7.148 -0.3263  0.0895 -1.6864
 6527SOL     OW22534   3.106   1.524   6.198  0.1545  0.4592  0.0905
 6527SOL    HW122535   3.016   1.502   6.176 -0.2315  1.2226  0.8062
 6527SOL    HW222536   3.131   1.461   6.266  0.3441 -0.0703 -0.4624
 6528SOL     OW22537   7.855   4.736   6.425 -0.5433 -0.1628 -0.3778
 6528SOL    HW122538   7.802   4.810   6.397  0.0510  1.0001  1.4035
 6528SOL    HW222539   7.922   4.774   6.482 -0.2454 -2.0554  0.6291
 6529SOL     OW22540   3.920   7.210   7.421 -0.3488 -0.2006  0.4881
 6529SOL    HW122541   4.014   7.221   7.433 -0.5113  0.6702  0.9911
 6529SOL    HW222542   3.910   7.118   7.396  0.6561 -0.2337  0.1540
 6530SOL     OW22543   1.566   6.664   4.973  0.1420  0.8802  0.0766
 6530SOL    HW122544   1.496   6.641   4.913 -0.2188 -2.0496  1.4559
 6530SOL    HW222545   1.529   6.651   5.061  1.9294  0.7556  0.8677
 6531SOL     OW22546   2.407   7.281   7.033 -0.1490 -0.4678  0.0138
 6531SOL    HW122547   2.406   7.199   7.084 -2.2775 -1.3534 -1.2927
 6531SOL    HW222548   2.488   7.277   6.984  0.6396 -0.9117  1.2902
 6532SOL     OW22549   5.699   4.771   6.811 -0.2463  0.0528  0.3152
 6532SOL    HW122550   5.763   4.819   6.759  0.4674 -0.8191  0.3577
 6532SOL    HW222551   5.683   4.826   6.888 -0.2844  0.7152 -0.1624
 6533SOL     OW22552   6.992   6.626   7.912  0.0513 -0.2576  0.1938
 6533SOL    HW122553   6.907   6.663   7.891  0.7088  2.0977  1.3814
 6533SOL    HW222554   6.979   6.531   7.907 -2.7302  0.0211  0.7790
 6534SOL     OW22555   3.956   3.807   6.117  0.0813  0.0016  0.2240
 6534SOL    HW122556   3.933   3.756   6.039 -1.7248 -0.1043  0.7709
 6534SOL    HW222557   3.880   3.797   6.175  0.8380  1.1266  1.4617
 6535SOL     OW22558   0.300   7.861   5.989  0.3682 -0.3401  0.7686
 6535SOL    HW122559   0.385   7.884   5.951 -0.5172  0.4049 -0.8419
 6535SOL    HW222560   0.270   7.785   5.939 -0.2090 -0.2053  0.9020
 6536SOL     OW22561   1.813   7.049   3.660 -0.2443  0.2771 -0.3135
 6536SOL    HW122562   1.867   7.092   3.593  0.7998 -1.5893 -0.7575
 6536SOL    HW222563   1.739   7.014   3.611  0.1761 -0.5091 -0.4094
 6537SOL     OW22564   5.429   7.115   2.197  0.0863 -0.6747 -0.0309
 6537SOL    HW122565   5.450   7.173   2.270 -0.1806 -0.6725  0.0457
 6537SOL    HW222566   5.426   7.172   2.120 -0.1217 -0.5962  0.0358
 6538SOL     OW22567   6.497   7.866   6.540 -0.0748  0.4968 -0.3872
 6538SOL    HW122568   6.516   7.786   6.590 -0.8459  1.2371  1.1790
 6538SOL    HW222569   6.510   7.936   6.603 -0.0560  1.5748 -1.5609
 6539SOL     OW22570   1.258   7.706   3.794 -0.2372 -0.1578 -0.0019
 6539SOL    HW122571   1.298   7.793   3.788  0.7494 -0.5676  0.4591
 6539SOL    HW222572   1.284   7.663   3.712 -2.5339  0.6730 -1.2845
 6540SOL     OW22573   5.353   6.815   1.551 -0.7630 -0.8943 -0.2895
 6540SOL    HW122574   5.334   6.747   1.616 -0.7055 -0.3186  0.3363
 6540SOL    HW222575   5.284   6.880   1.563 -2.1000 -1.8099 -2.3241
 6541SOL     OW22576   3.805   6.764   4.837 -0.0722  0.4742  0.6838
 6541SOL    HW122577   3.877   6.794   4.893 -2.2275  3.7178  2.0706
 6541SOL    HW222578   3.763   6.695   4.888  1.3498 -0.7067  0.3310
 6542SOL     OW22579   3.052   6.311   2.641 -0.2465 -0.3186  0.1445
 6542SOL    HW122580   3.116   6.328   2.709  1.2010 -0.7255 -1.0620
 6542SOL    HW222581   3.066   6.219   2.617 -0.6302 -0.1434 -0.8042
 6543SOL     OW22582   6.459   3.695   2.699 -0.3503  0.1213  0.0298
 6543SOL    HW122583   6.524   3.731   2.640 -1.0808  0.0490 -0.8363
 6543SOL    HW222584   6.398   3.648   2.642  0.8053 -2.9149  1.0984
 6544SOL     OW22585   3.607   6.269   3.735 -0.1947  0.3665 -0.1614
 6544SOL    HW122586   3.589   6.316   3.816 -1.5821 -1.0179  0.3846
 6544SOL    HW222587   3.577   6.180   3.752  1.6956 -0.5796 -1.3827
 6545SOL     OW22588   3.886   7.742   4.718  0.3100 -0.1960 -0.2384
 6545SOL    HW122589   3.916   7.652   4.703  1.7023  0.3220 -0.8169
 6545SOL    HW222590   3.802   7.733   4.763  0.4065 -1.7788 -0.3215
 6546SOL     OW22591   4.954   2.910   5.410 -0.0411  0.6407  0.1835
 6546SOL    HW122592   4.930   2.883   5.499 -1.3312  1.4064  0.0901
 6546SOL    HW222593   4.924   2.839   5.354 -1.8363  1.3822  0.1142
 6547SOL     OW22594   1.304   1.235   4.486  0.1222 -0.9600 -0.0741
 6547SOL    HW122595   1.246   1.272   4.420  0.3776 -0.2735  0.0770
 6547SOL    HW222596   1.307   1.302   4.555  0.7730 -1.1634  0.1002
 6548SOL     OW22597   3.722   0.863   0.346  0.3553 -0.6066 -0.5259
 6548SOL    HW122598   3.701   0.838   0.256 -2.1731 -0.6601  0.0007
 6548SOL    HW222599   3.683   0.794   0.400 -0.0161  0.5141  0.6887
 6549SOL     OW22600   3.604   5.279   6.568 -0.4086 -0.6534 -0.0061
 6549SOL    HW122601   3.601   5.229   6.650 -2.3404 -0.2534  0.2202
 6549SOL    HW222602   3.531   5.341   6.576  0.9872  1.1839 -0.9348
 6550SOL     OW22603   6.480   0.503   1.799  0.2518  0.0971 -0.4593
 6550SOL    HW122604   6.539   0.429   1.783  2.4765  1.8469 -0.7597
 6550SOL    HW222605   6.512   0.573   1.742 -0.5921  1.9196  1.1763
 6551SOL     OW22606   3.881   0.865   7.186 -0.3816  0.1779 -0.3244
 6551SOL    HW122607   3.889   0.855   7.091  0.5748 -1.0979 -0.1301
 6551SOL    HW222608   3.827   0.791   7.214 -0.7200  0.5867  0.1368
 6552SOL     OW22609   2.802   1.509   0.758  0.3024  0.5255 -0.1605
 6552SOL    HW122610   2.759   1.454   0.825  0.4276 -0.5533 -0.9431
 6552SOL    HW222611   2.777   1.469   0.675  2.9058 -0.2200 -0.6578
 6553SOL     OW22612   5.165   1.031   1.117 -0.2237  0.3474 -0.8706
 6553SOL    HW122613   5.110   0.981   1.176  0.4011  1.2641  0.5332
 6553SOL    HW222614   5.223   0.966   1.078  0.0497 -0.1479  0.3238
 6554SOL     OW22615   0.839   0.913   2.872  0.6646  0.0105 -1.0516
 6554SOL    HW122616   0.873   0.987   2.822 -0.1140  0.4328 -0.9819
 6554SOL    HW222617   0.790   0.954   2.944 -1.6813 -0.4824 -2.2544
 6555SOL     OW22618   0.022   5.229   5.991 -0.3342 -0.2547  0.2931
 6555SOL    HW122619   0.070   5.148   6.011 -1.3720 -0.8996  0.2402
 6555SOL    HW222620   0.063   5.295   6.046  0.2418 -0.9139  0.6731
 6556SOL     OW22621   5.446   4.857   2.302 -0.6708  0.1786  0.3474
 6556SOL    HW122622   5.408   4.772   2.280 -0.5273  0.0607  0.5472
 6556SOL    HW222623   5.401   4.919   2.245 -2.5162  0.3170  1.8797
 6557SOL     OW22624   6.949   1.230   2.475 -0.0281 -0.2414 -0.1095
 6557SOL    HW122625   6.999   1.308   2.500 -1.7367  1.4393 -1.6387
 6557SOL    HW222626   6.890   1.216   2.549 -0.4772  0.6358 -0.2827
 6558SOL     OW22627   2.450   6.156   0.516  0.3409  0.2333 -0.0003
 6558SOL    HW122628   2.355   6.160   0.532  0.2718 -0.7344 -0.1036
 6558SOL    HW222629   2.476   6.069   0.547  0.7850 -0.4115 -1.9949
 6559SOL     OW22630   2.745   8.058   7.928  0.8820 -0.1451 -0.0515
 6559SOL    HW122631   2.830   8.038   7.967  1.7130  0.4019 -1.5040
 6559SOL    HW222632   2.762   8.063   7.834 -0.8338 -0.3454 -0.4072
 6560SOL     OW22633   4.917   6.199   2.605 -0.3267  0.0355 -0.2045
 6560SOL    HW122634   4.952   6.273   2.653 -1.8606  0.9986 -0.5034
 6560SOL    HW222635   4.986   6.175   2.544  0.4613  0.7574  0.3829
 6561SOL     OW22636   7.557   6.679   7.230  0.0649 -0.3274 -0.2595
 6561SOL    HW122637   7.598   6.594   7.212 -0.1504 -0.7830  1.2437
 6561SOL    HW222638   7.629   6.734   7.259  0.0668 -0.2888 -0.3402
 6562SOL     OW22639   6.723   4.514   3.648  0.9526 -0.0973  0.0278
 6562SOL    HW122640   6.718   4.449   3.718  2.7246 -1.0035 -0.6377
 6562SOL    HW222641   6.769   4.588   3.687  2.4450 -0.8241 -0.2983
 6563SOL     OW22642   4.290   3.241   6.243  0.3175  0.7276  0.2788
 6563SOL    HW122643   4.207   3.231   6.290  0.4830  1.1096  0.6566
 6563SOL    HW222644   4.326   3.323   6.275  0.2817  1.1665 -0.7598
 6564SOL     OW22645   6.665   5.800   6.189  0.5482 -0.2448  0.5624
 6564SOL    HW122646   6.666   5.773   6.098  0.3604 -0.6931  0.6910
 6564SOL    HW222647   6.730   5.870   6.194  0.4671 -0.1291  0.0613
 6565SOL     OW22648   0.713   5.327   5.257  0.6227 -0.0329 -0.3775
 6565SOL    HW122649   0.742   5.380   5.183  0.9862 -0.2187 -0.3706
 6565SOL    HW222650   0.654   5.262   5.217  0.2368  0.3209 -0.3946
 6566SOL     OW22651   0.902   3.006   5.095  0.3023  0.6809 -0.7108
 6566SOL    HW122652   0.995   2.990   5.078  0.4211 -1.2274  1.2586
 6566SOL    HW222653   0.856   2.958   5.025  0.8064 -0.6735 -0.1416
 6567SOL     OW22654   4.187   5.069   2.454 -0.1762  0.0030  0.1802
 6567SOL    HW122655   4.196   5.163   2.436 -1.3514  0.3802  1.4144
 6567SOL    HW222656   4.274   5.041   2.482 -0.4264  1.4137  2.6557
 6568SOL     OW22657   1.263   5.071   3.891 -0.0550 -0.1628 -0.0408
 6568SOL    HW122658   1.287   4.983   3.917  1.4226  0.5356  1.1015
 6568SOL    HW222659   1.192   5.097   3.950 -0.1038 -0.3685 -0.0110
 6569SOL     OW22660   6.447   2.816   3.155  0.5406  0.1702 -0.0361
 6569SOL    HW122661   6.424   2.762   3.079  0.0333  2.4214 -1.5818
 6569SOL    HW222662   6.530   2.780   3.186  1.0581 -0.4898 -2.0221
 6570SOL     OW22663   6.193   5.630   2.049 -0.7136  0.2756 -0.2351
 6570SOL    HW122664   6.256   5.671   1.990 -1.3249  1.2709 -0.2072
 6570SOL    HW222665   6.128   5.589   1.992  0.8685 -2.3826 -0.3335
 6571SOL     OW22666   1.130   0.840   5.801  0.5664 -0.0150  0.2104
 6571SOL    HW122667   1.103   0.753   5.829  0.1501  0.3101  0.8466
 6571SOL    HW222668   1.070   0.899   5.846  0.1254  0.5471 -1.0989
 6572SOL     OW22669   0.142   4.815   3.577 -0.7641 -0.3369 -0.2730
 6572SOL    HW122670   0.105   4.872   3.510  1.5474  0.6835 -0.7855
 6572SOL    HW222671   0.215   4.771   3.533  0.0424 -0.5634  1.2394
 6573SOL     OW22672   3.012   4.284   0.347 -0.5023  0.1182  0.2851
 6573SOL    HW122673   2.950   4.273   0.275 -0.7930 -0.2115  0.5820
 6573SOL    HW222674   2.988   4.216   0.410 -0.6391  0.7802  0.9592
 6574SOL     OW22675   1.628   2.191   1.024 -0.6886 -0.4859 -0.0607
 6574SOL    HW122676   1.564   2.255   0.993 -0.6773  0.5624  1.9501
 6574SOL    HW222677   1.703   2.203   0.965 -1.7283 -0.6551 -1.4700
 6575SOL     OW22678   3.495   1.890   3.271  0.4658  0.0777  0.5790
 6575SOL    HW122679   3.484   1.869   3.364  1.1606  1.2334  0.9427
 6575SOL    HW222680   3.427   1.840   3.227 -0.2898  0.0018  1.7797
 6576SOL     OW22681   3.420   0.880   4.087  0.4692  0.2528  0.0383
 6576SOL    HW122682   3.510   0.846   4.084  0.8942  1.0290  1.9541
 6576SOL    HW222683   3.415   0.941   4.013  0.5357 -1.8937 -1.8226
 6577SOL     OW22684   0.512   6.743   4.722 -0.4662  0.0504 -0.0654
 6577SOL    HW122685   0.434   6.729   4.776 -0.9561 -1.5679 -1.0977
 6577SOL    HW222686   0.582   6.698   4.769 -0.8292 -1.0965 -0.5699
 6578SOL     OW22687   4.684   2.703   7.010 -0.1463  0.1310 -0.2456
 6578SOL    HW122688   4.683   2.706   6.914 -0.4640 -1.4635 -0.3116
 6578SOL    HW222689   4.641   2.621   7.032  1.2421 -0.2440  1.2351
 6579SOL     OW22690   2.422   0.353   0.327 -0.3762 -0.0352 -0.0495
 6579SOL    HW122691   2.455   0.442   0.312 -2.0541  0.8418  1.0559
 6579SOL    HW222692   2.340   0.350   0.278 -0.9425 -0.5274  0.9000
 6580SOL     OW22693   3.247   0.094   1.521  0.3533 -0.1706 -0.1168
 6580SOL    HW122694   3.303   0.163   1.555 -0.7646  0.2392  0.9587
 6580SOL    HW222695   3.261   0.096   1.426 -0.6112  2.4198 -0.2744
 6581SOL     OW22696   4.984   5.045   3.227  0.6129  0.0077  0.4536
 6581SOL    HW122697   4.941   4.960   3.236  1.5030 -0.5281 -0.2539
 6581SOL    HW222698   5.009   5.069   3.317 -0.1300 -0.2055  0.7245
 6582SOL     OW22699   8.005   2.500   0.851  0.0272 -0.1774  0.4387
 6582SOL    HW122700   8.010   2.409   0.823 -1.3897  0.4719 -2.1977
 6582SOL    HW222701   8.097   2.528   0.856  0.4749 -1.6392  1.1386
 6583SOL     OW22702   6.305   4.715   0.980  0.1812 -0.2741  0.2516
 6583SOL    HW122703   6.290   4.768   0.901 -3.0321 -0.9842  0.2580
 6583SOL    HW222704   6.309   4.779   1.051  0.0165  0.1680 -0.1286
 6584SOL     OW22705   5.911   1.062   3.743  0.0924 -0.0004  0.4291
 6584SOL    HW122706   5.971   1.128   3.707  1.2885 -0.3257  1.7611
 6584SOL    HW222707   5.900   0.999   3.672  2.6792 -0.8226  0.6346
 6585SOL     OW22708   8.048   0.774   0.531 -0.1073  0.3435 -0.5436
 6585SOL    HW122709   7.980   0.827   0.490 -1.4220 -1.2340 -0.5164
 6585SOL    HW222710   8.072   0.823   0.610 -0.6069  1.3397 -0.9890
 6586SOL     OW22711   6.123   7.389   3.976  0.3597 -0.7993  0.2686
 6586SOL    HW122712   6.098   7.331   3.905  0.3048  0.4550 -0.7724
 6586SOL    HW222713   6.042   7.399   4.028  0.2553 -1.2890  0.2029
 6587SOL     OW22714   1.458   0.902   0.311  0.4892 -0.3862 -0.2040
 6587SOL    HW122715   1.389   0.885   0.247  0.6994  2.0476 -1.1837
 6587SOL    HW222716   1.507   0.976   0.274  0.3987  1.3997  2.9098
 6588SOL     OW22717   0.903   4.114   1.766 -0.1495 -0.4498 -0.0493
 6588SOL    HW122718   0.989   4.146   1.739 -0.0799 -1.3974 -1.0437
 6588SOL    HW222719   0.846   4.191   1.760 -0.0386 -0.4805 -2.5535
 6589SOL     OW22720   4.497   3.463   0.346  0.6458 -0.3792 -0.7349
 6589SOL    HW122721   4.543   3.444   0.264  0.5589 -0.1456 -0.8374
 6589SOL    HW222722   4.422   3.403   0.345 -1.1942  1.7695 -2.3690
 6590SOL     OW22723   2.320   8.068   1.806 -0.2642  0.1073  0.3797
 6590SOL    HW122724   2.313   8.160   1.833 -0.1965 -0.1124  1.1644
 6590SOL    HW222725   2.275   8.020   1.876  0.2323 -0.5058  0.2762
 6591SOL     OW22726   6.518   5.283   4.359  0.0431 -0.0215 -0.6966
 6591SOL    HW122727   6.425   5.305   4.372 -0.4108 -2.6147  1.5687
 6591SOL    HW222728   6.562   5.326   4.432  1.0254  2.6045 -2.6871
 6592SOL     OW22729   7.229   7.615   4.131  0.5560  0.1308  0.4755
 6592SOL    HW122730   7.237   7.606   4.225  0.9327  0.7737  0.5099
 6592SOL    HW222731   7.292   7.683   4.107 -0.6703  1.1460 -0.0116
 6593SOL     OW22732   4.917   6.383   1.771  0.8002 -0.6932 -0.3051
 6593SOL    HW122733   4.880   6.442   1.836  1.1202  0.4933 -1.1562
 6593SOL    HW222734   4.879   6.413   1.688  2.3527 -0.5208 -0.9842
 6594SOL     OW22735   5.439   1.955   3.725  0.0876  0.4669 -0.2091
 6594SOL    HW122736   5.530   1.926   3.722 -0.4376 -1.2509 -0.8971
 6594SOL    HW222737   5.403   1.932   3.640 -0.8373  1.7465 -0.1973
 6595SOL     OW22738   2.957   3.464   4.779 -0.0758 -0.2206 -0.4799
 6595SOL    HW122739   2.939   3.542   4.831  0.0281  0.0799 -0.8973
 6595SOL    HW222740   2.908   3.477   4.698 -0.9398 -1.0781 -0.1223
 6596SOL     OW22741   0.784   1.635   0.480  0.2260 -0.0179  0.0544
 6596SOL    HW122742   0.694   1.605   0.468 -0.9966  2.9116  0.8786
 6596SOL    HW222743   0.799   1.695   0.408 -0.3048  3.1248  2.3472
 6597SOL     OW22744   5.719   0.782   3.761 -0.6527 -0.1666 -0.4618
 6597SOL    HW122745   5.810   0.775   3.734 -0.0540  1.4589  0.9358
 6597SOL    HW222746   5.713   0.729   3.841 -1.6020 -2.2981 -1.8628
 6598SOL     OW22747   3.785   7.944   7.264  0.0303  0.1019  0.4208
 6598SOL    HW122748   3.847   7.873   7.280  1.0537  0.7110 -0.6559
 6598SOL    HW222749   3.753   7.928   7.175  1.9222  2.1099 -0.7300
 6599SOL     OW22750   1.907   3.314   5.655  0.2685  0.2110 -0.1729
 6599SOL    HW122751   1.975   3.257   5.692  0.0419 -0.4993 -0.8150
 6599SOL    HW222752   1.892   3.279   5.567 -0.8265  0.4324 -0.0892
 6600SOL     OW22753   2.682   7.842   1.675  0.0570 -0.1658  0.7891
 6600SOL    HW122754   2.591   7.851   1.646  0.0632 -0.4381  0.6822
 6600SOL    HW222755   2.726   7.798   1.603  0.9446  2.4996 -0.4210
 6601SOL     OW22756   4.915   2.372   5.232  0.4189  0.3830  0.1216
 6601SOL    HW122757   4.872   2.380   5.317 -0.1201  1.2384 -0.2139
 6601SOL    HW222758   4.931   2.278   5.222 -1.1169  0.0511  0.4069
 6602SOL     OW22759   4.985   6.989   4.824 -0.2161 -0.2053  0.8127
 6602SOL    HW122760   4.922   6.939   4.772 -1.0025  1.5307 -0.0132
 6602SOL    HW222761   4.938   7.069   4.847  2.0426  1.8366 -1.0184
 6603SOL     OW22762   5.716   6.978   8.049 -0.4467  0.1603 -0.2712
 6603SOL    HW122763   5.626   6.984   8.018 -1.3445  0.5698  2.1937
 6603SOL    HW222764   5.708   6.964   8.144  2.0771  0.6241  0.0806
 6604SOL     OW22765   2.799   5.411   7.817 -0.2671  0.5412 -1.0289
 6604SOL    HW122766   2.816   5.363   7.736 -0.0829  1.4007 -1.5200
 6604SOL    HW222767   2.791   5.344   7.884  0.5608 -0.1390 -1.5924
 6605SOL     OW22768   6.661   4.931   0.454 -0.3375  0.6087 -0.3251
 6605SOL    HW122769   6.614   4.869   0.398 -1.7754  0.3528  1.1045
 6605SOL    HW222770   6.753   4.916   0.434 -0.7713  0.0671 -2.1197
 6606SOL     OW22771   6.720   2.562   6.070  0.2662  0.1268 -0.2861
 6606SOL    HW122772   6.678   2.588   6.152  0.5431 -0.8248  0.1783
 6606SOL    HW222773   6.649   2.556   6.007 -0.2681 -1.1295  0.4039
 6607SOL     OW22774   0.464   5.833   7.423  0.6858 -0.1243 -0.0811
 6607SOL    HW122775   0.486   5.760   7.366  1.5855 -1.1645  1.5167
 6607SOL    HW222776   0.385   5.804   7.469  1.1367 -0.1756  0.6747
 6608SOL     OW22777   1.421   6.895   5.479  0.0981  0.0694 -0.0401
 6608SOL    HW122778   1.486   6.886   5.409  0.3178 -0.0034  0.1680
 6608SOL    HW222779   1.458   6.961   5.537 -0.7250  1.1208 -0.6902
 6609SOL     OW22780   3.698   5.817   7.698 -0.0070  0.2817 -0.5553
 6609SOL    HW122781   3.638   5.792   7.768  1.1365 -0.4377  0.2061
 6609SOL    HW222782   3.743   5.894   7.731 -0.5541  0.8710 -1.1577
 6610SOL     OW22783   3.194   2.421   7.175  0.1904  0.1664  1.0476
 6610SOL    HW122784   3.192   2.488   7.244  0.7598  0.3220  0.9222
 6610SOL    HW222785   3.287   2.400   7.165  0.0907 -0.0353  0.4998
 6611SOL     OW22786   4.120   6.519   2.368 -0.1290 -0.1059 -0.1399
 6611SOL    HW122787   4.159   6.444   2.412 -0.4703 -0.3757 -0.2928
 6611SOL    HW222788   4.195   6.573   2.342  0.1802 -0.9321 -1.0002
 6612SOL     OW22789   5.343   6.905   7.165 -0.1562  0.6704  0.0258
 6612SOL    HW122790   5.344   6.851   7.085  0.6201  0.3460  0.2371
 6612SOL    HW222791   5.333   6.994   7.133 -1.1894  0.4326 -0.3478
 6613SOL     OW22792   1.233   3.797   0.961  0.0743  0.1637 -0.2035
 6613SOL    HW122793   1.143   3.766   0.966  0.4572 -0.9214  0.1359
 6613SOL    HW222794   1.245   3.821   0.869 -0.6873  0.7365 -0.1628
 6614SOL     OW22795   6.299   7.970   2.621 -0.3521 -0.5768 -0.0791
 6614SOL    HW122796   6.383   7.995   2.583 -0.6606 -0.6744 -0.8336
 6614SOL    HW222797   6.236   8.031   2.583 -0.4225  0.4578  1.6094
 6615SOL     OW22798   0.483   2.812   2.672 -0.5461 -0.2184 -0.1621
 6615SOL    HW122799   0.401   2.781   2.635 -1.4369  1.5233  0.2498
 6615SOL    HW222800   0.475   2.908   2.672  1.2360 -0.0295  0.4388
 6616SOL     OW22801   2.765   3.262   3.523  0.3613 -0.1916  0.6124
 6616SOL    HW122802   2.681   3.222   3.544  1.0307 -1.5974  0.7613
 6616SOL    HW222803   2.752   3.303   3.438 -1.0773  1.5607  1.6113
 6617SOL     OW22804   4.510   7.196   1.375 -0.6927  0.1721  0.1192
 6617SOL    HW122805   4.443   7.147   1.423 -0.4035 -1.7284 -1.2988
 6617SOL    HW222806   4.590   7.145   1.386  0.0664  1.3034  0.0480
 6618SOL     OW22807   8.069   0.258   6.923 -0.2123 -0.1471 -0.3598
 6618SOL    HW122808   8.027   0.195   6.982 -2.2854  0.3050 -1.2850
 6618SOL    HW222809   8.096   0.206   6.847 -1.2441 -0.0748 -0.7914
 6619SOL     OW22810   2.130   5.846   1.323  0.1828  0.0914 -0.3161
 6619SOL    HW122811   2.196   5.794   1.279 -0.9096  0.9572 -3.1702
 6619SOL    HW222812   2.174   5.930   1.341  0.2745  0.1857 -0.9594
 6620SOL     OW22813   1.326   7.068   7.500  0.2148 -0.5724  0.8427
 6620SOL    HW122814   1.337   7.163   7.498 -0.5244 -0.4579 -1.2453
 6620SOL    HW222815   1.231   7.056   7.510  0.2417 -1.0534  0.5456
 6621SOL     OW22816   1.806   6.801   1.374 -0.3971  0.1537 -0.2159
 6621SOL    HW122817   1.901   6.808   1.364 -0.2881 -1.1050 -0.1281
 6621SOL    HW222818   1.787   6.847   1.456 -0.0482  1.5434 -0.8719
 6622SOL     OW22819   6.664   5.155   8.009  0.2562 -0.1166 -0.5109
 6622SOL    HW122820   6.571   5.179   8.019  0.2831 -0.3428  0.3632
 6622SOL    HW222821   6.662   5.070   7.966  0.1536  1.2560 -3.4160
 6623SOL     OW22822   6.043   1.288   4.047 -0.2435 -0.1495  0.0769
 6623SOL    HW122823   6.032   1.382   4.032  0.6845  0.0436  0.5104
 6623SOL    HW222824   6.118   1.282   4.108 -0.1892 -1.1697 -0.0716
 6624SOL     OW22825   7.598   0.184   4.568  0.1429 -0.0882 -0.2502
 6624SOL    HW122826   7.609   0.143   4.482 -2.7862 -1.9780  0.1523
 6624SOL    HW222827   7.541   0.259   4.552  0.5825  0.2832 -0.1010
 6625SOL     OW22828   5.924   0.786   7.194  0.0650 -0.8261 -0.5389
 6625SOL    HW122829   5.856   0.850   7.173  1.7733  0.5524 -2.2398
 6625SOL    HW222830   5.937   0.738   7.112  0.2695 -1.9655  0.1344
 6626SOL     OW22831   8.058   3.615   6.053 -0.0576 -0.4805  0.4929
 6626SOL    HW122832   8.102   3.634   5.970 -0.8042  1.3211  0.4567
 6626SOL    HW222833   7.998   3.544   6.032 -2.3641  1.7848 -1.3772
 6627SOL     OW22834   4.373   3.988   8.080  0.5404 -0.5196  0.4686
 6627SOL    HW122835   4.342   3.930   8.150 -1.8117  1.5207  1.2690
 6627SOL    HW222836   4.308   3.978   8.011  0.7453  0.2894  0.1566
 6628SOL     OW22837   3.658   5.589   7.310  0.1832 -0.5293  0.1848
 6628SOL    HW122838   3.599   5.585   7.235  0.7001 -0.2236 -0.2404
 6628SOL    HW222839   3.647   5.504   7.354 -1.0521 -0.2333  0.4829
 6629SOL     OW22840   4.425   3.257   0.141  0.7541  0.4283  0.3979
 6629SOL    HW122841   4.393   3.215   0.222  1.2585 -1.4892 -0.3418
 6629SOL    HW222842   4.473   3.187   0.096 -1.3365  0.7733 -2.6152
 6630SOL     OW22843   4.837   2.742   4.424  0.3628 -0.3436 -0.3709
 6630SOL    HW122844   4.789   2.659   4.421 -3.0773  1.4329 -0.0730
 6630SOL    HW222845   4.882   2.747   4.340 -2.4240 -0.9267 -2.0346
 6631SOL     OW22846   0.387   3.788   4.186  0.0651 -0.8176  0.0720
 6631SOL    HW122847   0.475   3.766   4.216  0.5298  0.3233 -0.3840
 6631SOL    HW222848   0.391   3.882   4.165 -0.9674 -0.9733 -0.9624
 6632SOL     OW22849   5.369   3.708   6.483 -0.0242  0.4275 -0.8267
 6632SOL    HW122850   5.281   3.670   6.470  0.9575 -1.6265 -2.0663
 6632SOL    HW222851   5.356   3.802   6.473 -1.6221  0.0086 -4.7572
 6633SOL     OW22852   6.022   5.509   6.799  0.3804 -0.6765 -0.0608
 6633SOL    HW122853   6.105   5.471   6.829 -0.8315 -2.1817  1.6221
 6633SOL    HW222854   5.990   5.560   6.874  0.6885  1.5643 -1.3812
 6634SOL     OW22855   6.387   8.078   0.817 -0.1115  0.1665  0.4607
 6634SOL    HW122856   6.300   8.087   0.855 -0.5404 -0.2629 -0.3735
 6634SOL    HW222857   6.380   8.122   0.732 -0.1575 -1.7206 -0.5495
 6635SOL     OW22858   2.308   0.283   3.974 -0.0427 -0.8511 -0.0105
 6635SOL    HW122859   2.238   0.332   3.931 -1.3762 -0.2916  2.5810
 6635SOL    HW222860   2.317   0.325   4.060  1.5156 -2.7136  0.8003
 6636SOL     OW22861   1.706   3.370   1.455 -0.0905  0.1076  0.7707
 6636SOL    HW122862   1.757   3.317   1.516 -2.8678  2.0083  5.3168
 6636SOL    HW222863   1.759   3.448   1.440  0.8192 -0.5791  0.3721
 6637SOL     OW22864   4.481   3.239   1.487 -0.0215 -0.7972 -0.3281
 6637SOL    HW122865   4.471   3.144   1.484 -3.4983 -0.5558 -0.8608
 6637SOL    HW222866   4.529   3.261   1.408  0.2900 -2.0498 -0.5061
 6638SOL     OW22867   1.632   5.557   1.236 -0.0729 -0.0930  0.5143
 6638SOL    HW122868   1.569   5.525   1.301 -1.3624 -0.5894 -0.9128
 6638SOL    HW222869   1.635   5.651   1.250 -1.6862  0.0467  0.1961
 6639SOL     OW22870   6.925   3.387   6.109 -0.5729  0.1363 -0.2897
 6639SOL    HW122871   6.987   3.455   6.084  0.0281 -0.5511 -0.7353
 6639SOL    HW222872   6.877   3.423   6.183  0.8699  0.4154  0.5417
 6640SOL     OW22873   3.970   7.193   0.145  0.4708  0.4639  0.1360
 6640SOL    HW122874   4.012   7.241   0.074  0.3860 -1.0822 -1.0086
 6640SOL    HW222875   3.892   7.245   0.166  1.1209  1.5523 -0.0814
 6641SOL     OW22876   7.736   6.740   3.467  0.0327  0.3893  0.1644
 6641SOL    HW122877   7.811   6.748   3.408  0.4296 -1.0452  0.4299
 6641SOL    HW222878   7.764   6.676   3.532 -0.9956  0.7325  0.9623
 6642SOL     OW22879   0.066   2.579   5.367 -0.0448 -0.9360  1.0063
 6642SOL    HW122880   0.067   2.524   5.289  0.7656  1.6498 -0.9695
 6642SOL    HW222881  -0.023   2.613   5.372  0.3448  0.2790  0.0971
 6643SOL     OW22882   0.968   5.018   6.402  0.5395 -0.3364 -0.2984
 6643SOL    HW122883   0.964   5.075   6.479  2.9604 -1.2268  0.5928
 6643SOL    HW222884   0.894   4.959   6.411 -0.7352  1.2490 -0.0799
 6644SOL     OW22885   2.194   6.747   6.218 -0.0218  0.1655  0.3762
 6644SOL    HW122886   2.256   6.741   6.291  0.0977  0.6981  0.3254
 6644SOL    HW222887   2.136   6.820   6.242  0.8711  1.2750 -0.6872
 6645SOL     OW22888   3.983   6.462   1.850 -0.1218 -0.2094 -0.2578
 6645SOL    HW122889   3.993   6.496   1.939 -1.5320 -1.8101  0.5745
 6645SOL    HW222890   4.071   6.431   1.826  0.1894 -0.1412  0.7522
 6646SOL     OW22891   3.584   6.611   3.747  0.1812  0.1457  0.2674
 6646SOL    HW122892   3.581   6.553   3.671  0.0883 -0.0296  0.4031
 6646SOL    HW222893   3.661   6.665   3.733 -0.3794  0.7817 -0.4369
 6647SOL     OW22894   3.891   4.491   6.947 -0.5835 -0.7378 -0.3304
 6647SOL    HW122895   3.854   4.520   6.864 -0.5079 -0.9877 -0.4526
 6647SOL    HW222896   3.956   4.559   6.969 -1.6169  0.0879  0.2584
 6648SOL     OW22897   6.533   1.317   7.276  0.0519  0.7513  0.0534
 6648SOL    HW122898   6.565   1.227   7.270 -1.3145  0.2884 -1.2538
 6648SOL    HW222899   6.524   1.334   7.369  0.3999 -0.4491  0.3199
 6649SOL     OW22900   6.105   2.471   3.257 -0.2140 -0.0699  0.3726
 6649SOL    HW122901   6.010   2.485   3.251  0.0839  2.4077  0.3965
 6649SOL    HW222902   6.122   2.400   3.195 -2.3259 -2.2201  2.0329
 6650SOL     OW22903   0.631   0.042   5.604  0.5812  0.5538  0.0519
 6650SOL    HW122904   0.550   0.085   5.575 -0.2163  0.4360  1.9398
 6650SOL    HW222905   0.636   0.062   5.697  0.7162 -2.5350  0.8005
 6651SOL     OW22906   7.614   4.911   5.153 -0.0279 -0.0134  0.5999
 6651SOL    HW122907   7.533   4.866   5.179 -0.2903  0.5746  0.8126
 6651SOL    HW222908   7.650   4.944   5.235  0.8549 -0.9567  0.6062
 6652SOL     OW22909   3.461   4.402   0.578  0.1064  0.0027 -0.1452
 6652SOL    HW122910   3.378   4.403   0.626 -0.1378  1.6736 -0.5588
 6652SOL    HW222911   3.525   4.367   0.640 -0.6620 -0.1081  0.5940
 6653SOL     OW22912   5.624   0.401   0.722 -0.5393  0.5030 -0.0378
 6653SOL    HW122913   5.568   0.362   0.655 -1.4148  1.1305  0.3132
 6653SOL    HW222914   5.706   0.419   0.677  0.1775 -2.3578 -0.0499
 6654SOL     OW22915   2.652   7.872   1.101 -0.3364 -0.3098 -0.1279
 6654SOL    HW122916   2.579   7.860   1.040  1.1075  1.2363 -2.3013
 6654SOL    HW222917   2.710   7.798   1.082  0.2236  0.2997 -0.8184
 6655SOL     OW22918   7.482   3.190   5.398 -0.0918  0.1269 -0.4953
 6655SOL    HW122919   7.414   3.167   5.461  0.6939 -1.6188 -0.2228
 6655SOL    HW222920   7.443   3.259   5.344 -1.6067  0.0361  0.4320
 6656SOL     OW22921   7.293   7.766   7.272  0.1938  0.2293 -0.1816
 6656SOL    HW122922   7.248   7.810   7.345 -0.8879  0.3409 -0.8917
 6656SOL    HW222923   7.240   7.787   7.196  0.9978 -0.3624 -0.9172
 6657SOL     OW22924   3.977   5.997   2.804 -0.1729 -0.6605  0.4302
 6657SOL    HW122925   3.987   5.951   2.888 -0.9804  0.3754  1.1339
 6657SOL    HW222926   4.065   6.023   2.780 -0.0759  0.3160  1.7403
 6658SOL     OW22927   6.639   2.190   7.037  0.4165 -0.1549 -0.7033
 6658SOL    HW122928   6.695   2.149   7.102 -0.6704 -1.9074 -0.7936
 6658SOL    HW222929   6.698   2.214   6.965  1.2391 -0.5897 -0.1833
 6659SOL     OW22930   4.012   5.670   4.567  0.2518  0.2918 -0.4256
 6659SOL    HW122931   4.104   5.674   4.542  0.9824  1.3070  2.0908
 6659SOL    HW222932   4.014   5.663   4.663 -2.2895  2.0811 -0.1395
 6660SOL     OW22933   0.870   4.592   7.084 -1.0355 -0.1093 -0.4044
 6660SOL    HW122934   0.919   4.510   7.093 -0.9968  0.0374  1.0257
 6660SOL    HW222935   0.886   4.638   7.167 -2.6446  0.4708 -0.3888
 6661SOL     OW22936   3.772   5.184   0.084 -0.0220  0.0300 -0.2392
 6661SOL    HW122937   3.726   5.100   0.077 -1.4451  0.5039  2.2896
 6661SOL    HW222938   3.831   5.173   0.158  2.0728  0.3557 -1.7608
 6662SOL     OW22939   0.296   3.520   5.699 -0.4295 -0.1559  0.7298
 6662SOL    HW122940   0.385   3.544   5.672  0.0868 -0.5584  2.0278
 6662SOL    HW222941   0.305   3.494   5.790 -1.8622 -0.3741  0.8208
 6663SOL     OW22942   3.334   4.599   1.044  0.0249 -0.3677 -0.3062
 6663SOL    HW122943   3.280   4.607   0.965 -0.5824 -0.6997  0.0662
 6663SOL    HW222944   3.351   4.506   1.053  0.2006 -0.3188 -0.1187
 6664SOL     OW22945   2.391   6.673   3.339  0.5299 -0.0788  0.7768
 6664SOL    HW122946   2.313   6.618   3.343  0.4847 -0.0180  0.7357
 6664SOL    HW222947   2.392   6.707   3.250 -0.1974  1.0810  1.1822
 6665SOL     OW22948   7.124   8.001   1.472 -0.1965  0.2364 -0.0786
 6665SOL    HW122949   7.088   7.918   1.440 -0.0630  0.0305  0.3129
 6665SOL    HW222950   7.067   8.067   1.432 -0.4826 -0.0512 -0.1566
 6666SOL     OW22951   2.843   6.793   7.269  0.3635 -0.3550 -0.3470
 6666SOL    HW122952   2.805   6.839   7.195  1.3043  1.6398  0.3378
 6666SOL    HW222953   2.814   6.843   7.346 -0.6041 -2.3721  0.6733
 6667SOL     OW22954   4.706   4.489   2.408  0.4512 -0.0540 -0.3270
 6667SOL    HW122955   4.769   4.548   2.368  1.8458  0.2497  2.1230
 6667SOL    HW222956   4.749   4.457   2.487 -2.4978  0.3733  1.6536
 6668SOL     OW22957   3.746   5.211   2.344 -0.4914 -0.2500  0.1561
 6668SOL    HW122958   3.768   5.159   2.421 -1.2273 -1.2749 -0.3040
 6668SOL    HW222959   3.816   5.194   2.281 -0.4499 -0.2527  0.2033
 6669SOL     OW22960   4.756   0.634   0.887  0.1774 -0.0454 -0.7861
 6669SOL    HW122961   4.825   0.568   0.890  1.3125  1.1319  0.8040
 6669SOL    HW222962   4.794   0.710   0.931 -2.6623  0.1285  1.6452
 6670SOL     OW22963   3.788   2.505   5.902 -0.3481 -0.2117  0.1055
 6670SOL    HW122964   3.821   2.456   5.826  0.1908 -0.9502  0.7984
 6670SOL    HW222965   3.745   2.438   5.956 -1.4492  0.4398  0.0768
 6671SOL     OW22966   0.768   4.014   5.141 -0.0710 -0.5776  0.0763
 6671SOL    HW122967   0.703   4.067   5.096  0.7162 -1.5498 -2.3511
 6671SOL    HW222968   0.821   4.077   5.189 -0.4490  0.6256 -1.0298
 6672SOL     OW22969   1.929   7.073   7.342  0.2519 -0.1636 -0.4027
 6672SOL    HW122970   1.987   7.019   7.395 -2.6688 -2.1381  1.0413
 6672SOL    HW222971   1.889   7.012   7.280 -0.0572  1.1761 -1.5666
 6673SOL     OW22972   2.368   2.921   6.820  0.3760 -0.1051 -0.0434
 6673SOL    HW122973   2.344   2.930   6.728  1.2248 -0.9356 -0.3514
 6673SOL    HW222974   2.382   3.011   6.849 -0.4902  0.2094 -0.5526
 6674SOL     OW22975   5.568   0.315   4.279 -0.0847 -0.0708 -0.2851
 6674SOL    HW122976   5.517   0.261   4.340  0.9286  0.3253  0.9441
 6674SOL    HW222977   5.515   0.394   4.267 -1.6649 -1.3371 -2.2339
 6675SOL     OW22978   5.184   0.060   0.977 -0.1217  0.4233 -0.0323
 6675SOL    HW122979   5.231  -0.019   1.001  0.3460  1.1436  1.5486
 6675SOL    HW222980   5.104   0.058   1.030 -0.2014  0.9088 -0.1263
 6676SOL     OW22981   7.501   3.562   1.686  0.8368  0.2150 -0.6957
 6676SOL    HW122982   7.413   3.557   1.722  0.7418  0.0150 -0.9537
 6676SOL    HW222983   7.547   3.624   1.743  0.6974 -0.1189 -0.2145
 6677SOL     OW22984   6.435   1.468   2.180  0.2037  0.3037  0.2061
 6677SOL    HW122985   6.350   1.497   2.146  0.2419 -0.9328 -1.0256
 6677SOL    HW222986   6.490   1.547   2.177 -0.7553  1.0203  0.6280
 6678SOL     OW22987   5.920   6.311   4.429  0.0855  0.0354  0.5146
 6678SOL    HW122988   5.919   6.216   4.440  0.1557 -0.1074 -0.5852
 6678SOL    HW222989   5.941   6.345   4.516 -0.2963 -0.9368  1.0014
 6679SOL     OW22990   5.228   4.362   2.455  0.3802  0.5053 -0.2486
 6679SOL    HW122991   5.289   4.304   2.500  1.2438  0.5344 -1.3451
 6679SOL    HW222992   5.186   4.411   2.525  1.3558  0.2389  0.5488
 6680SOL     OW22993   6.404   7.047   2.673 -0.3758  0.4813 -0.0317
 6680SOL    HW122994   6.439   7.134   2.691  0.6433 -0.0873  0.8334
 6680SOL    HW222995   6.319   7.063   2.632 -0.0854  1.8765 -0.1249
 6681SOL     OW22996   5.178   7.971   4.957 -0.2942  0.1762 -0.0083
 6681SOL    HW122997   5.197   7.936   4.870  1.1041  1.3806 -0.2133
 6681SOL    HW222998   5.214   8.059   4.957  0.0771  0.0813  1.9081
 6682SOL     OW22999   2.680   6.130   6.380  0.5459  0.4005  0.0920
 6682SOL    HW123000   2.645   6.219   6.372  1.4418  0.7912  0.3755
 6682SOL    HW223001   2.605   6.073   6.366 -0.3238  1.2123  1.2598
 6683SOL     OW23002   4.308   0.795   2.409  0.5620 -0.6936 -0.3174
 6683SOL    HW123003   4.306   0.700   2.399 -0.6482 -0.5842 -1.2642
 6683SOL    HW223004   4.305   0.829   2.320  2.7519  0.2588 -0.1087
 6684SOL     OW23005   1.784   7.271   0.833 -0.0215 -0.1146 -0.2845
 6684SOL    HW123006   1.710   7.231   0.877 -0.7630  1.2259 -0.2454
 6684SOL    HW223007   1.806   7.210   0.762  0.8408 -2.0199  1.5396
 6685SOL     OW23008   0.447   1.340   6.408 -0.1578  0.5851  0.3369
 6685SOL    HW123009   0.520   1.394   6.378  1.1234 -0.4127  1.5487
 6685SOL    HW223010   0.429   1.281   6.335  2.0029 -0.8987  0.9047
 6686SOL     OW23011   4.517   1.290   0.647  0.2126 -0.0099  0.1048
 6686SOL    HW123012   4.510   1.203   0.686  0.1706  0.4317  1.0919
 6686SOL    HW223013   4.436   1.298   0.595  0.8807 -1.1127 -1.1858
 6687SOL     OW23014   5.402   6.026   5.401 -0.0950  0.0520  0.2624
 6687SOL    HW123015   5.397   6.060   5.312 -0.3320  0.4078  0.4118
 6687SOL    HW223016   5.445   6.095   5.451  0.1132 -0.1810  0.4092
 6688SOL     OW23017   0.802   0.032   6.921  0.4576 -0.4902 -0.0902
 6688SOL    HW123018   0.831   0.082   6.845 -0.4812  0.0464 -0.1156
 6688SOL    HW223019   0.710   0.056   6.931  0.1443 -1.7871  0.2499
 6689SOL     OW23020   3.106   4.895   4.291  0.0631  0.4000  0.2278
 6689SOL    HW123021   3.178   4.836   4.317  0.6218  1.3904  0.9913
 6689SOL    HW223022   3.097   4.880   4.197  0.2410 -0.8479  0.3878
 6690SOL     OW23023   6.271   6.029   5.571  0.1271  0.2480  0.5137
 6690SOL    HW123024   6.232   6.013   5.657 -0.4753  0.8193  0.3539
 6690SOL    HW223025   6.196   6.047   5.514  0.5677  0.4899  0.0027
 6691SOL     OW23026   7.625   0.754   3.806  0.2657  0.4876  0.1610
 6691SOL    HW123027   7.531   0.745   3.822  0.0052 -0.0810 -1.5208
 6691SOL    HW223028   7.664   0.685   3.860 -0.4933 -0.8150 -0.8925
 6692SOL     OW23029   7.523   7.539   4.115 -0.5633 -0.1615 -0.4513
 6692SOL    HW123030   7.549   7.499   4.032  0.6468 -1.3281  0.4549
 6692SOL    HW223031   7.428   7.525   4.119 -0.8053  0.7251 -2.0329
 6693SOL     OW23032   6.656   6.450   7.582 -0.1508 -0.1325 -0.5789
 6693SOL    HW123033   6.670   6.364   7.621  0.2063 -0.0126 -0.4386
 6693SOL    HW223034   6.584   6.437   7.520  0.3020 -0.6667 -1.0032
 6694SOL     OW23035   0.239   7.815   8.044  0.3011 -0.4061 -0.3723
 6694SOL    HW123036   0.285   7.865   7.977 -0.0533  0.1482 -0.2027
 6694SOL    HW223037   0.223   7.877   8.115 -2.3414 -0.0657 -1.1605
 6695SOL     OW23038   3.713   6.622   6.271 -0.3293 -0.3439  0.2312
 6695SOL    HW123039   3.699   6.533   6.303 -1.0436 -0.1768  0.4126
 6695SOL    HW223040   3.808   6.631   6.263 -0.0721 -0.2541  2.7161
 6696SOL     OW23041   4.504   7.160   0.709  0.0558 -0.4569  0.3831
 6696SOL    HW123042   4.567   7.191   0.644 -2.0734 -0.2324 -1.6893
 6696SOL    HW223043   4.542   7.185   0.793  2.2110  0.5761 -0.8246
 6697SOL     OW23044   2.189   0.556   5.479 -0.0092  0.0098 -0.0971
 6697SOL    HW123045   2.247   0.620   5.519  0.5731 -1.5328  1.7011
 6697SOL    HW223046   2.237   0.523   5.403 -0.7160  2.2884 -1.6323
 6698SOL     OW23047   7.575   3.786   3.341 -0.3319 -0.7983 -0.2001
 6698SOL    HW123048   7.603   3.747   3.258  0.8568  0.4155 -0.4154
 6698SOL    HW223049   7.572   3.880   3.323  1.1507 -0.3904  1.4170
 6699SOL     OW23050   5.386   3.452   3.270 -0.4441  0.1299 -0.4416
 6699SOL    HW123051   5.376   3.365   3.307 -3.8846  0.7780  0.5286
 6699SOL    HW223052   5.420   3.505   3.342  0.5405 -0.1546 -0.6854
 6700SOL     OW23053   3.296   6.242   7.720 -0.3649 -0.0416 -0.0368
 6700SOL    HW123054   3.275   6.331   7.749 -0.0996  0.7422 -2.0975
 6700SOL    HW223055   3.211   6.201   7.704 -0.4685  0.1779 -0.0499
 6701SOL     OW23056   3.847   2.183   2.559 -0.5443  0.0613  0.5296
 6701SOL    HW123057   3.892   2.109   2.599 -1.3003 -0.3752  0.5881
 6701SOL    HW223058   3.909   2.255   2.566  0.2843 -0.6212  0.2652
 6702SOL     OW23059   1.749   4.600   7.170 -0.4234  0.5151  0.0574
 6702SOL    HW123060   1.678   4.555   7.124  0.3103 -1.0832  0.4403
 6702SOL    HW223061   1.814   4.618   7.102  0.0154 -0.5292  0.1856
 6703SOL     OW23062   4.461   0.028   5.787  0.2397  0.0753  0.0583
 6703SOL    HW123063   4.444   0.114   5.826  0.8345  0.1181  0.2380
 6703SOL    HW223064   4.376   0.000   5.752 -0.7113 -0.6111  2.6236
 6704SOL     OW23065   5.311   4.272   7.401 -0.2350 -0.0459  0.5141
 6704SOL    HW123066   5.233   4.328   7.393  0.7472  1.1046 -2.6451
 6704SOL    HW223067   5.276   4.185   7.420 -2.1784  0.7219  0.7288
 6705SOL     OW23068   2.408   8.085   0.166  0.1750 -0.1248 -0.1778
 6705SOL    HW123069   2.419   7.996   0.201  3.5909  0.0334 -0.5564
 6705SOL    HW223070   2.394   8.140   0.243  1.2616 -0.6059  0.3828
 6706SOL     OW23071   5.137   2.444   5.411 -0.0877  0.4029  0.3969
 6706SOL    HW123072   5.070   2.481   5.469 -0.3270  2.1269 -0.8917
 6706SOL    HW223073   5.089   2.423   5.331  0.6858  0.4629 -0.0874
 6707SOL     OW23074   1.127   3.979   7.089 -0.0356 -0.5808  0.5432
 6707SOL    HW123075   1.182   3.950   7.016 -0.3621  1.8982 -0.8090
 6707SOL    HW223076   1.040   3.945   7.068 -0.3826  1.0414 -0.9327
 6708SOL     OW23077   1.387   1.848   0.389 -0.1037  0.3033  0.1878
 6708SOL    HW123078   1.477   1.875   0.373 -0.3236  0.7534 -0.3159
 6708SOL    HW223079   1.360   1.899   0.466  0.1708 -0.0701  0.5354
 6709SOL     OW23080   5.059   4.620   7.212 -0.2970 -0.1615 -0.1968
 6709SOL    HW123081   5.078   4.711   7.190 -3.7329  0.7697  0.0848
 6709SOL    HW223082   5.021   4.583   7.133 -3.2850  0.1823  0.9418
 6710SOL     OW23083   0.545   0.719   5.624  0.4654 -0.0991 -0.0472
 6710SOL    HW123084   0.632   0.682   5.612  0.5330  0.0957 -0.1586
 6710SOL    HW223085   0.544   0.797   5.568 -0.0317 -0.5100 -0.6153
 6711SOL     OW23086   6.214   5.061   0.343 -0.3403 -0.4222  0.2829
 6711SOL    HW123087   6.139   5.098   0.296 -0.4507  0.5409  1.1806
 6711SOL    HW223088   6.287   5.071   0.283 -0.7090 -0.3196 -0.1537
 6712SOL     OW23089   6.534   7.925   1.969  1.1173 -0.9110 -0.6204
 6712SOL    HW123090   6.500   8.011   1.947 -0.0815 -1.1905  0.0353
 6712SOL    HW223091   6.621   7.941   2.006  1.1128 -0.0373 -0.9880
 6713SOL     OW23092   4.871   2.394   7.249 -0.3285 -0.5242 -0.7502
 6713SOL    HW123093   4.902   2.309   7.219 -1.4584 -1.3330  0.2913
 6713SOL    HW223094   4.778   2.395   7.227 -0.5892 -0.0614  0.2966
 6714SOL     OW23095   0.828   2.793   6.755 -0.3217  0.2509 -0.3981
 6714SOL    HW123096   0.751   2.781   6.811  0.7209 -1.5284  0.7659
 6714SOL    HW223097   0.879   2.861   6.799 -1.0298  1.1890 -0.9890
 6715SOL     OW23098   5.448   2.610   1.450  0.0791 -0.3791  0.1317
 6715SOL    HW123099   5.380   2.555   1.413 -0.7692  2.7079 -3.4233
 6715SOL    HW223100   5.528   2.583   1.406 -0.0029  0.0027 -0.2572
 6716SOL     OW23101   5.878   7.786   5.880  0.1483 -0.0016 -0.0864
 6716SOL    HW123102   5.963   7.773   5.922 -0.6288 -0.6478  1.3699
 6716SOL    HW223103   5.866   7.708   5.826 -0.5997 -1.1965  1.7072
 6717SOL     OW23104   7.172   4.611   5.414 -0.5817 -0.1185 -0.3569
 6717SOL    HW123105   7.113   4.604   5.339  0.0445 -1.0546 -0.7678
 6717SOL    HW223106   7.156   4.532   5.465  0.4120 -0.4453 -0.5398
 6718SOL     OW23107   3.367   3.699   1.976 -0.2551  0.6131  0.0844
 6718SOL    HW123108   3.343   3.616   2.016  1.4537 -0.2678 -0.5727
 6718SOL    HW223109   3.462   3.705   1.988  0.1013  1.0698 -2.3353
 6719SOL     OW23110   1.940   3.153   4.217 -0.0426 -0.5548 -0.8646
 6719SOL    HW123111   1.942   3.112   4.303  0.7835 -1.1785 -1.1682
 6719SOL    HW223112   1.924   3.246   4.235 -0.1886 -0.7292 -0.0652
 6720SOL     OW23113   5.538   0.132   3.096  0.2649 -0.1275 -0.7603
 6720SOL    HW123114   5.624   0.091   3.087  0.5202  0.3274 -0.4187
 6720SOL    HW223115   5.534   0.197   3.026  1.3845  1.8884  0.9208
 6721SOL     OW23116   1.674   0.340   7.370  0.1516 -0.1266  0.2602
 6721SOL    HW123117   1.740   0.402   7.399 -1.4484  0.6797  2.4823
 6721SOL    HW223118   1.665   0.356   7.276  1.5942  1.1871  0.3153
 6722SOL     OW23119   0.707   8.038   2.155 -0.0532  1.1855 -0.6218
 6722SOL    HW123120   0.789   8.034   2.106  0.5838 -0.0909  0.4843
 6722SOL    HW223121   0.664   8.117   2.123  1.7329  2.0461 -1.0289
 6723SOL     OW23122   0.199   4.646   0.393  0.5426  0.0320 -0.3656
 6723SOL    HW123123   0.274   4.654   0.452  0.4936 -1.3567 -0.0726
 6723SOL    HW223124   0.211   4.715   0.329  0.8803  1.2593  0.9601
 6724SOL     OW23125   7.613   5.254   6.634 -0.0672 -0.2558  0.1267
 6724SOL    HW123126   7.642   5.224   6.720 -0.2043 -0.7750 -0.0066
 6724SOL    HW223127   7.691   5.294   6.595  0.0464 -0.2037  0.4072
 6725SOL     OW23128   6.255   0.717   0.269 -0.1730  0.2415 -0.3217
 6725SOL    HW123129   6.347   0.695   0.255 -0.0374  0.3593  0.3131
 6725SOL    HW223130   6.228   0.660   0.341 -0.9774 -0.7377 -1.3625
 6726SOL     OW23131   7.353   6.969   0.926  0.4095  0.0547  0.4853
 6726SOL    HW123132   7.367   6.874   0.919  0.8343  0.2448 -3.1293
 6726SOL    HW223133   7.269   6.984   0.883 -0.1836  1.2742  1.9732
 6727SOL     OW23134   7.804   5.887   2.684  0.2716  0.0890  0.1693
 6727SOL    HW123135   7.745   5.825   2.726  0.8077 -0.1714  0.5459
 6727SOL    HW223136   7.746   5.956   2.651 -0.1506  0.4150  1.5229
 6728SOL     OW23137   3.357   2.646   6.001  0.6928  0.1172 -0.1397
 6728SOL    HW123138   3.408   2.596   6.064  0.1170  0.3842  0.5549
 6728SOL    HW223139   3.311   2.580   5.949  1.3110 -0.1070 -0.4057
 6729SOL     OW23140   1.883   4.401   5.529 -0.2727  0.0898  0.1002
 6729SOL    HW123141   1.941   4.369   5.598  1.0703 -1.1072 -1.4910
 6729SOL    HW223142   1.795   4.383   5.562  0.3652 -1.5586  1.0256
 6730SOL     OW23143   0.985   3.703   4.782 -0.3995 -0.3012 -0.5888
 6730SOL    HW123144   1.065   3.740   4.820  1.2506 -2.7543 -1.4619
 6730SOL    HW223145   0.998   3.609   4.786 -1.7590 -0.7438 -3.7998
 6731SOL     OW23146   2.801   2.631   4.039 -0.0482  0.0571 -0.2858
 6731SOL    HW123147   2.844   2.694   4.097  0.1891  0.5710 -1.0112
 6731SOL    HW223148   2.836   2.651   3.952 -1.7542  0.4880 -0.9018
 6732SOL     OW23149   7.117   7.075   6.630  0.3095  0.4904  0.2832
 6732SOL    HW123150   7.090   7.153   6.679 -3.3226  0.1501 -0.8627
 6732SOL    HW223151   7.131   7.106   6.541 -1.2488 -0.1209 -0.2025
 6733SOL     OW23152   4.502   7.133   1.754 -0.3172 -0.7954 -0.3899
 6733SOL    HW123153   4.447   7.079   1.698 -0.0016  0.8893 -2.4363
 6733SOL    HW223154   4.459   7.219   1.754  0.4489 -0.3801  0.8717
 6734SOL     OW23155   7.241   3.117   4.228  0.3172 -0.2654 -0.3910
 6734SOL    HW123156   7.235   3.121   4.324  1.4556  1.4687 -0.3488
 6734SOL    HW223157   7.301   3.044   4.212  0.3526 -0.3840  0.2262
 6735SOL     OW23158   1.422   3.438   4.389 -0.3965  0.3570  0.0314
 6735SOL    HW123159   1.449   3.383   4.462  0.5604  2.8061  1.6604
 6735SOL    HW223160   1.495   3.499   4.376 -0.7868  0.4154 -2.6203
 6736SOL     OW23161   2.532   4.285   5.803 -0.0604 -0.1162  0.6963
 6736SOL    HW123162   2.482   4.207   5.828 -0.6151  0.7505  2.3769
 6736SOL    HW223163   2.622   4.253   5.794 -0.6906 -1.5205 -1.5321
 6737SOL     OW23164   8.045   0.688   4.254 -0.2625  0.1196 -0.0877
 6737SOL    HW123165   8.130   0.724   4.230 -0.2991  1.4284  1.5676
 6737SOL    HW223166   8.018   0.740   4.329 -1.1952 -2.1564  1.2500
 6738SOL     OW23167   2.301   7.610   3.393 -0.2828  0.1879 -0.3262
 6738SOL    HW123168   2.371   7.660   3.351  1.2043  0.4833  2.2790
 6738SOL    HW223169   2.331   7.599   3.483 -3.0770 -0.7532  0.5778
 6739SOL     OW23170   7.993   0.517   2.509  0.1103 -0.2849 -0.1203
 6739SOL    HW123171   8.085   0.502   2.527 -0.1396  1.0608  2.8829
 6739SOL    HW223172   7.989   0.606   2.474  0.0669 -1.0594 -2.2378
 6740SOL     OW23173   7.807   6.016   5.878 -0.2214 -0.7377 -0.0779
 6740SOL    HW123174   7.898   6.011   5.850 -0.1000 -0.0520  0.1701
 6740SOL    HW223175   7.806   5.973   5.964  0.4505  1.6063  1.2146
 6741SOL     OW23176   6.522   7.528   1.772  0.5470 -0.1984 -0.3415
 6741SOL    HW123177   6.524   7.433   1.770 -0.8996 -0.2426 -1.0888
 6741SOL    HW223178   6.455   7.552   1.707 -0.1337  1.2747  0.8449
 6742SOL     OW23179   6.920   5.447   0.898  0.0928  0.7392  0.4540
 6742SOL    HW123180   6.827   5.452   0.922  0.0773  0.8366  0.3754
 6742SOL    HW223181   6.955   5.533   0.922  0.0309  0.9141 -0.0658
 6743SOL     OW23182   1.740   5.522   4.753 -0.3832 -0.3223 -0.0640
 6743SOL    HW123183   1.711   5.496   4.840 -1.4980  1.4915  0.1738
 6743SOL    HW223184   1.706   5.453   4.695 -0.9430 -0.7682  0.7718
 6744SOL     OW23185   2.297   6.193   1.660 -0.4358 -0.3732 -0.2377
 6744SOL    HW123186   2.240   6.247   1.605  1.4220  1.1338 -0.7806
 6744SOL    HW223187   2.308   6.245   1.740 -0.5382 -1.0857  0.2490
 6745SOL     OW23188   0.269   2.598   4.378  0.2746  0.2619  0.3312
 6745SOL    HW123189   0.253   2.533   4.446  0.2285 -1.5637 -1.3138
 6745SOL    HW223190   0.358   2.581   4.349 -0.2621 -0.1560 -1.1748
 6746SOL     OW23191   0.228   0.281   4.363  0.2037  0.1537  0.7382
 6746SOL    HW123192   0.296   0.220   4.393  0.0285  0.1795  1.1857
 6746SOL    HW223193   0.274   0.364   4.352 -0.0540  0.5601  2.5176
 6747SOL     OW23194   5.001   1.182   2.126  0.4646 -0.3123  0.2618
 6747SOL    HW123195   4.924   1.174   2.182  0.1668 -0.7422 -0.1962
 6747SOL    HW223196   5.049   1.100   2.139  0.6931 -0.1671  0.3292
 6748SOL     OW23197   4.716   5.244   4.175 -0.6996  0.0221 -0.4603
 6748SOL    HW123198   4.728   5.257   4.270 -0.3676  0.1563 -0.5196
 6748SOL    HW223199   4.740   5.328   4.136 -0.2499 -0.2191 -0.7112
 6749SOL     OW23200   7.512   7.511   4.530  0.5093 -0.0013  0.3219
 6749SOL    HW123201   7.582   7.453   4.559  0.9001 -0.0752 -0.7281
 6749SOL    HW223202   7.452   7.515   4.604 -0.0339 -2.5113  0.0919
 6750SOL     OW23203   5.964   0.667   3.677 -0.1698  0.0856  0.1438
 6750SOL    HW123204   5.966   0.665   3.582  0.3549  1.2570  0.1239
 6750SOL    HW223205   5.946   0.576   3.702  0.8114 -0.4643 -1.0414
 6751SOL     OW23206   5.973   5.530   1.936  0.1866 -0.0349  0.5348
 6751SOL    HW123207   5.925   5.492   2.010  0.7346 -0.5817  0.6133
 6751SOL    HW223208   5.905   5.573   1.884 -0.2367  0.1612  1.2321
 6752SOL     OW23209   6.200   7.833   3.138 -0.0247  0.0418 -0.3048
 6752SOL    HW123210   6.119   7.885   3.137  0.1521  0.3390  0.3783
 6752SOL    HW223211   6.247   7.860   3.059 -0.1880  0.5170 -0.2436
 6753SOL     OW23212   4.535   3.008   5.075 -0.2665  0.2472 -0.0578
 6753SOL    HW123213   4.513   2.941   5.010  1.3807  0.6212 -1.0372
 6753SOL    HW223214   4.629   2.996   5.091 -0.2102  1.5279  0.6921
 6754SOL     OW23215   0.912   3.776   1.539 -0.1815  0.5410  0.3743
 6754SOL    HW123216   0.927   3.867   1.511 -0.2726 -0.0368 -1.7677
 6754SOL    HW223217   0.978   3.761   1.607 -0.7374  2.4483  1.4101
 6755SOL     OW23218   0.311   0.808   6.253  0.3068 -0.8204  0.4112
 6755SOL    HW123219   0.311   0.813   6.348 -0.5224 -1.8601  0.4949
 6755SOL    HW223220   0.270   0.723   6.234 -1.5271  0.2706 -0.8895
 6756SOL     OW23221   0.883   3.998   3.695 -0.4073 -0.2425  0.0141
 6756SOL    HW123222   0.861   4.084   3.659 -0.5453 -0.9802 -1.7541
 6756SOL    HW223223   0.922   4.017   3.780 -0.8493  1.5394 -0.1501
 6757SOL     OW23224   4.632   1.720   4.013 -0.4068 -0.2684  0.0498
 6757SOL    HW123225   4.564   1.699   3.950  0.4022  1.2536 -1.4126
 6757SOL    HW223226   4.653   1.812   3.996  2.5943 -0.8898 -0.1666
 6758SOL     OW23227   7.865   6.329   5.808 -0.3933 -0.2116 -0.3713
 6758SOL    HW123228   7.929   6.349   5.876 -0.8799 -0.5069  0.1787
 6758SOL    HW223229   7.781   6.356   5.844 -0.4082  1.7795 -1.7620
 6759SOL     OW23230   1.655   3.653   7.296 -0.3087 -0.0426  0.7037
 6759SOL    HW123231   1.604   3.609   7.228  1.5740 -1.9077  0.3623
 6759SOL    HW223232   1.595   3.715   7.336 -1.4630  1.2492 -2.7202
 6760SOL     OW23233   5.479   3.784   2.002 -0.4361 -0.3422  0.5657
 6760SOL    HW123234   5.389   3.804   2.028 -0.2624  0.7428  0.3476
 6760SOL    HW223235   5.520   3.869   1.987  0.1069 -0.8647 -1.0843
 6761SOL     OW23236   1.843   2.498   0.164 -0.5836 -0.1750  0.2913
 6761SOL    HW123237   1.844   2.403   0.168  1.2173 -0.5996 -4.2645
 6761SOL    HW223238   1.765   2.520   0.112  1.2743  0.2986 -2.5302
 6762SOL     OW23239   6.016   6.318   3.764 -0.0280 -0.0297  0.0591
 6762SOL    HW123240   6.046   6.227   3.754  2.3931  0.6804  0.2633
 6762SOL    HW223241   6.048   6.363   3.686 -0.4153  0.8324  0.3840
 6763SOL     OW23242   5.648   2.282   5.942  0.6653  0.4502 -0.8477
 6763SOL    HW123243   5.715   2.251   6.002 -0.4581  0.5384  0.5045
 6763SOL    HW223244   5.650   2.220   5.869  1.3498 -0.2785 -0.2217
 6764SOL     OW23245   1.412   4.279   7.331 -0.2510  0.8025 -0.4732
 6764SOL    HW123246   1.391   4.265   7.238 -1.2937  1.7468 -0.3982
 6764SOL    HW223247   1.507   4.265   7.336 -0.1698  0.7579 -1.6868
 6765SOL     OW23248   3.016   1.444   4.978  0.0708  0.2202  0.3003
 6765SOL    HW123249   3.054   1.356   4.975  0.6715  0.4816  0.0051
 6765SOL    HW223250   3.077   1.494   5.034 -1.2512 -0.0072  2.0354
 6766SOL     OW23251   4.821   2.336   0.175  0.4047  0.8149  0.1435
 6766SOL    HW123252   4.792   2.355   0.265  0.4231  1.5438  0.0035
 6766SOL    HW223253   4.905   2.291   0.187 -0.5389 -0.9256  0.5349
 6767SOL     OW23254   2.005   5.553   1.556 -0.1031  0.5076 -0.0613
 6767SOL    HW123255   2.010   5.630   1.500 -2.0708  0.5962 -0.1957
 6767SOL    HW223256   1.915   5.552   1.588 -0.6603 -2.5187 -1.2776
 6768SOL     OW23257   3.846   4.128   1.743  0.2597 -0.1807 -0.2478
 6768SOL    HW123258   3.777   4.183   1.781  1.0442  0.4539  0.2903
 6768SOL    HW223259   3.879   4.178   1.669  0.0533 -0.5529 -0.5994
 6769SOL     OW23260   1.498   1.080   2.185 -0.2417  0.2622  0.2502
 6769SOL    HW123261   1.543   1.162   2.202 -1.1321  0.4541  1.7964
 6769SOL    HW223262   1.413   1.106   2.148 -1.1533  0.1465  2.1648
 6770SOL     OW23263   5.764   7.990   4.143 -0.9044 -0.1503 -0.0924
 6770SOL    HW123264   5.689   7.934   4.162 -0.3852 -1.2120 -1.0581
 6770SOL    HW223265   5.742   8.033   4.060  0.3747 -2.0811 -1.5212
 6771SOL     OW23266   4.017   8.114   1.924 -0.3493 -0.6025  0.0967
 6771SOL    HW123267   3.924   8.094   1.915 -0.7848 -0.8628  3.8603
 6771SOL    HW223268   4.027   8.199   1.881 -2.4643 -0.2455  0.2081
 6772SOL     OW23269   4.261   3.774   1.933  1.2728 -0.3944 -0.0829
 6772SOL    HW123270   4.351   3.795   1.906  1.1029  1.7392  0.7990
 6772SOL    HW223271   4.214   3.857   1.926 -0.1782 -1.0578  1.1918
 6773SOL     OW23272   0.686   6.370   5.692 -0.0490 -0.0344  0.3232
 6773SOL    HW123273   0.591   6.371   5.701 -0.2014  0.9824 -1.1392
 6773SOL    HW223274   0.707   6.279   5.669 -0.7845 -0.0368 -0.3977
 6774SOL     OW23275   5.627   3.095   7.265  0.0771 -0.1178 -0.1979
 6774SOL    HW123276   5.702   3.129   7.216 -0.9651  1.9277 -0.4365
 6774SOL    HW223277   5.580   3.041   7.202 -0.8849  1.9467 -1.3392
 6775SOL     OW23278   4.487   0.029   0.706 -0.3183  0.0935 -0.4393
 6775SOL    HW123279   4.504   0.034   0.800  2.1294 -0.1906 -0.8094
 6775SOL    HW223280   4.399  -0.010   0.700 -0.2793 -0.4655  1.7030
 6776SOL     OW23281   6.152   7.465   2.940 -0.6124 -0.2009 -0.1897
 6776SOL    HW123282   6.081   7.510   2.985 -1.9691 -2.4516  0.0432
 6776SOL    HW223283   6.141   7.489   2.848 -0.2761  1.2167  0.1190
 6777SOL     OW23284   6.747   7.347   2.410 -0.0828 -0.2396 -0.0424
 6777SOL    HW123285   6.795   7.273   2.372  0.6676 -0.1713  0.7329
 6777SOL    HW223286   6.798   7.371   2.488 -1.6575 -0.4958  1.1299
 6778SOL     OW23287   6.284   2.761   1.526 -0.4744  0.1235 -0.2759
 6778SOL    HW123288   6.230   2.799   1.456 -0.3864  3.6153  1.3174
 6778SOL    HW223289   6.275   2.667   1.515 -2.3258  0.5186 -3.5118
 6779SOL     OW23290   6.381   2.324   3.841  0.2325 -0.3200 -0.4567
 6779SOL    HW123291   6.457   2.340   3.898  1.1291 -1.9253 -1.1152
 6779SOL    HW223292   6.418   2.279   3.765 -1.4158 -1.3347 -0.7048
 6780SOL     OW23293   3.244   0.718   2.082 -0.5156  0.2816 -0.4761
 6780SOL    HW123294   3.220   0.790   2.023 -0.5430 -0.2202 -1.0959
 6780SOL    HW223295   3.162   0.669   2.094 -0.3994  0.0998 -0.4246
 6781SOL     OW23296   0.624   0.999   5.535  0.0782 -0.5703 -0.5436
 6781SOL    HW123297   0.713   0.966   5.520  1.2794  1.1946  1.8992
 6781SOL    HW223298   0.624   1.025   5.627 -2.1422  1.9246 -1.1327
 6782SOL     OW23299   7.316   7.602   4.824 -0.5947  0.5844  0.0490
 6782SOL    HW123300   7.364   7.631   4.902 -0.0643 -2.4266  0.9726
 6782SOL    HW223301   7.288   7.683   4.783  0.3204  2.3584  2.6000
 6783SOL     OW23302   7.196   6.260   3.976  0.7111  0.2530  0.3526
 6783SOL    HW123303   7.169   6.170   3.957 -1.0638  1.0398 -1.1803
 6783SOL    HW223304   7.287   6.265   3.946  0.7554 -0.9688  0.2464
 6784SOL     OW23305   4.939   4.074   1.810 -0.1170 -0.0804 -0.4208
 6784SOL    HW123306   5.002   4.002   1.808 -1.5428 -1.4402  1.1902
 6784SOL    HW223307   4.988   4.147   1.849  0.3816 -1.2349  1.2126
 6785SOL     OW23308   3.086   1.875   3.355  0.0719 -0.2472  0.1329
 6785SOL    HW123309   3.074   1.935   3.281  0.6233  0.8346  0.8842
 6785SOL    HW223310   3.019   1.901   3.418  0.3046 -0.4292  0.4589
 6786SOL     OW23311   0.308   0.036   7.436  0.4300 -0.5797  0.0945
 6786SOL    HW123312   0.251  -0.005   7.370 -1.0391  0.3304  0.7401
 6786SOL    HW223313   0.394  -0.003   7.421  0.5817  0.7297 -3.4048
 6787SOL     OW23314   4.534   0.219   4.383 -0.0733  0.0051 -0.3236
 6787SOL    HW123315   4.482   0.192   4.458 -3.1370  0.8497 -1.9872
 6787SOL    HW223316   4.524   0.148   4.320 -0.4617  0.8609 -1.2384
 6788SOL     OW23317   3.068   0.751   5.406  0.3590  0.2719  0.5760
 6788SOL    HW123318   3.019   0.725   5.328  2.9657 -0.5589 -0.9300
 6788SOL    HW223319   3.092   0.669   5.448  3.5012  0.3053 -0.8437
 6789SOL     OW23320   6.840   5.239   7.791  0.2288 -0.3377 -0.2080
 6789SOL    HW123321   6.765   5.201   7.744  0.2232 -1.6712  0.8002
 6789SOL    HW223322   6.841   5.192   7.875  0.4644  1.6985  0.9835
 6790SOL     OW23323   3.808   1.207   1.489  0.1587 -0.4884  0.1409
 6790SOL    HW123324   3.817   1.213   1.584  0.3101  1.5742  0.0507
 6790SOL    HW223325   3.895   1.231   1.455 -0.7284  2.1715 -0.5064
 6791SOL     OW23326   7.168   6.148   5.171 -0.0986  0.3456  0.2599
 6791SOL    HW123327   7.183   6.232   5.216 -2.6180  0.7087  0.6114
 6791SOL    HW223328   7.137   6.089   5.240 -1.6757  0.1923 -0.5306
 6792SOL     OW23329   4.285   2.413   5.545  1.1267  0.2037 -0.2361
 6792SOL    HW123330   4.334   2.439   5.467  1.0906 -0.1124 -0.3671
 6792SOL    HW223331   4.345   2.430   5.617  1.1048  0.6362 -0.3208
 6793SOL     OW23332   5.404   0.285   1.254  0.2348  0.0953  0.1608
 6793SOL    HW123333   5.354   0.207   1.278 -1.2338  1.1235  0.6108
 6793SOL    HW223334   5.407   0.337   1.334  1.7058  0.2538  0.0216
 6794SOL     OW23335   7.602   3.916   5.124 -0.0743 -0.2298 -0.4301
 6794SOL    HW123336   7.618   3.907   5.218 -0.0573  1.3888 -0.2465
 6794SOL    HW223337   7.510   3.945   5.118  0.2918  0.9024 -0.8183
 6795SOL     OW23338   4.035   4.843   3.141  0.2516 -0.6850  0.5336
 6795SOL    HW123339   4.061   4.841   3.049  0.1914  0.0545  0.4983
 6795SOL    HW223340   4.105   4.890   3.185  1.9156 -3.7013  1.4266
 6796SOL     OW23341   2.295   7.122   6.189 -0.0247 -0.5021  0.1283
 6796SOL    HW123342   2.365   7.142   6.251 -0.6860 -0.6678  0.9600
 6796SOL    HW223343   2.274   7.206   6.148 -0.0099 -0.2560  0.6118
 6797SOL     OW23344   4.378   2.281   7.894  0.0923  0.0126  0.3674
 6797SOL    HW123345   4.428   2.299   7.974  0.3721 -2.2949  0.7736
 6797SOL    HW223346   4.437   2.229   7.840 -0.8834 -0.3486 -0.3836
 6798SOL     OW23347   7.067   2.370   6.008  0.9318 -0.3257 -0.0585
 6798SOL    HW123348   7.101   2.456   5.983  0.0451  0.3939  1.1225
 6798SOL    HW223349   7.054   2.325   5.924 -0.1765  1.3039 -0.8169
 6799SOL     OW23350   5.946   3.014   1.798  0.7756  0.7972 -0.3126
 6799SOL    HW123351   5.953   2.985   1.889 -0.6316  1.4855  0.0494
 6799SOL    HW223352   6.023   2.977   1.755  1.0232 -0.2682  0.9612
 6800SOL     OW23353   3.917   6.838   3.924  0.4052 -0.6676 -0.0471
 6800SOL    HW123354   3.887   6.750   3.903  0.4019 -0.8170  0.5630
 6800SOL    HW223355   4.009   6.839   3.894  1.3589 -1.8694  2.5400
 6801SOL     OW23356   1.043   1.220   4.764  0.3270 -0.1045  0.2599
 6801SOL    HW123357   0.970   1.158   4.766  1.0009 -0.9467 -0.4516
 6801SOL    HW223358   1.004   1.302   4.732 -0.4254 -0.3628  0.4921
 6802SOL     OW23359   6.056   5.480   6.338  0.2217  0.5287 -0.0724
 6802SOL    HW123360   6.100   5.429   6.406 -0.2828  0.2057  0.0204
 6802SOL    HW223361   6.086   5.443   6.256 -0.7665 -0.4783  0.0001
 6803SOL     OW23362   4.613   8.101   7.375  0.2866  0.2258 -0.1604
 6803SOL    HW123363   4.661   8.028   7.414  1.6063  1.3082  0.3224
 6803SOL    HW223364   4.522   8.083   7.395  0.6558 -0.9240  0.5889
 6804SOL     OW23365   4.396   6.017   4.521 -0.5113 -0.1517 -0.1079
 6804SOL    HW123366   4.404   6.081   4.592 -1.1745 -0.6462  0.4236
 6804SOL    HW223367   4.476   6.028   4.470 -0.1704  0.4267  0.5358
 6805SOL     OW23368   4.426   7.640   2.896  0.2791  0.0618 -0.6592
 6805SOL    HW123369   4.489   7.588   2.846 -0.4444 -2.2247  0.6854
 6805SOL    HW223370   4.361   7.667   2.831  0.6880 -0.6955 -1.4022
 6806SOL     OW23371   3.426   5.415   3.604  0.1027 -0.3138 -0.3447
 6806SOL    HW123372   3.443   5.494   3.654 -0.4147 -0.3773 -0.0608
 6806SOL    HW223373   3.511   5.391   3.566  0.3212  0.1992 -0.1796
 6807SOL     OW23374   1.858   5.496   2.358  0.3695 -0.0458 -0.0635
 6807SOL    HW123375   1.934   5.533   2.312  1.1806  1.1441  2.1163
 6807SOL    HW223376   1.785   5.554   2.335  0.1602 -0.9006 -1.7594
 6808SOL     OW23377   1.071   0.819   1.384 -0.1791 -0.7979  0.0898
 6808SOL    HW123378   1.166   0.825   1.376 -0.2239 -0.8834 -0.5965
 6808SOL    HW223379   1.041   0.909   1.375 -0.1974 -0.8414 -0.3407
 6809SOL     OW23380   3.763   4.784   0.871  0.2300  0.2828 -0.0351
 6809SOL    HW123381   3.845   4.736   0.854 -0.2488 -0.3802 -0.4946
 6809SOL    HW223382   3.789   4.876   0.867  0.8736  0.0909 -0.6463
 6810SOL     OW23383   3.070   2.303   2.430 -0.3739  0.1209  0.2136
 6810SOL    HW123384   3.056   2.227   2.486  0.6984  0.2517  0.6691
 6810SOL    HW223385   2.990   2.355   2.440 -0.0716  0.3013  1.8810
 6811SOL     OW23386   4.448   7.109   3.817 -0.1069 -0.0153  0.8674
 6811SOL    HW123387   4.484   7.092   3.904 -0.0549  1.2096  1.1120
 6811SOL    HW223388   4.354   7.123   3.833 -0.1185  0.0915  0.7122
 6812SOL     OW23389   5.810   3.574   2.444 -0.0615  0.5033 -0.2153
 6812SOL    HW123390   5.846   3.632   2.511  0.6017 -0.7902  0.5811
 6812SOL    HW223391   5.883   3.560   2.383 -0.3886  0.9242 -0.7173
 6813SOL     OW23392   3.551   2.522   5.746  0.4537  0.2888  0.1067
 6813SOL    HW123393   3.626   2.532   5.805  1.3101  0.3186 -0.9653
 6813SOL    HW223394   3.508   2.607   5.747  0.4926  0.3046  0.6454
 6814SOL     OW23395   3.089   6.071   6.933  0.0525 -0.1132 -0.0045
 6814SOL    HW123396   3.112   6.031   6.849  0.4519 -0.8764  0.4611
 6814SOL    HW223397   3.048   6.154   6.909 -0.5517 -0.6733 -0.9866
 6815SOL     OW23398   1.190   2.201   2.109  0.0609  0.4931  0.1565
 6815SOL    HW123399   1.140   2.127   2.143 -1.7232  2.2168  1.4573
 6815SOL    HW223400   1.255   2.161   2.051 -1.3397 -2.0209  0.1849
 6816SOL     OW23401   4.078   5.734   0.311  0.1725 -0.3924 -0.5945
 6816SOL    HW123402   4.100   5.688   0.392 -0.8874 -0.0359 -0.0860
 6816SOL    HW223403   4.156   5.786   0.291  0.2874 -0.1610  0.4260
 6817SOL     OW23404   4.230   0.075   7.547 -0.1826  0.6839 -0.0173
 6817SOL    HW123405   4.242   0.132   7.471 -1.5944 -0.4896 -1.1747
 6817SOL    HW223406   4.256  -0.012   7.516 -0.8312  0.1704  0.8225
 6818SOL     OW23407   6.042   3.475   4.471  0.4192 -0.3299  0.7026
 6818SOL    HW123408   6.130   3.438   4.464  0.5457  0.0118  0.4169
 6818SOL    HW223409   6.055   3.559   4.516  0.3131 -0.0309  0.1837
 6819SOL     OW23410   7.843   5.773   6.827 -0.2594 -0.6289  0.0701
 6819SOL    HW123411   7.863   5.835   6.897 -1.3720 -0.0062 -0.1473
 6819SOL    HW223412   7.921   5.717   6.822  0.5598  0.4273  0.6116
 6820SOL     OW23413   4.432   0.249   5.934 -0.0503 -0.2011  0.3835
 6820SOL    HW123414   4.339   0.228   5.946 -0.1466 -0.3370 -0.5606
 6820SOL    HW223415   4.465   0.259   6.023 -1.0664  0.2895  0.7314
 6821SOL     OW23416   8.091   6.545   7.057  0.1061 -0.2967  0.9599
 6821SOL    HW123417   8.126   6.551   6.968 -2.5039 -2.1574 -0.3451
 6821SOL    HW223418   8.045   6.629   7.070  1.2392  0.3468  0.9721
 6822SOL     OW23419   6.097   2.429   5.162 -0.5142  0.2458 -0.0313
 6822SOL    HW123420   6.093   2.442   5.257  0.2013  0.3013 -0.0063
 6822SOL    HW223421   6.190   2.421   5.143 -0.7135 -0.9385 -0.5715
 6823SOL     OW23422   1.310   4.023   1.176 -0.0525  0.2274  0.4320
 6823SOL    HW123423   1.346   4.012   1.088  0.9284  0.7258  0.7596
 6823SOL    HW223424   1.373   3.979   1.233 -0.9413 -0.5383  0.8611
 6824SOL     OW23425   7.768   5.644   3.610  0.3595 -0.6979  0.2354
 6824SOL    HW123426   7.841   5.640   3.548  0.1781 -2.1441  0.0981
 6824SOL    HW223427   7.690   5.634   3.555  0.0890 -0.0180  0.4833
 6825SOL     OW23428   3.792   6.614   0.883 -0.5917 -0.4340  0.2138
 6825SOL    HW123429   3.749   6.659   0.811 -0.3352  0.3844  0.5581
 6825SOL    HW223430   3.863   6.565   0.841 -1.1045 -0.8362 -0.2080
 6826SOL     OW23431   3.605   7.687   7.381 -0.4083 -0.3745  0.2723
 6826SOL    HW123432   3.649   7.729   7.455  0.2057 -0.2932 -0.1344
 6826SOL    HW223433   3.614   7.593   7.399 -2.6820 -0.3797  1.7126
 6827SOL     OW23434   1.493   4.603   3.580 -0.2900 -0.1717 -0.5121
 6827SOL    HW123435   1.432   4.589   3.652 -0.4520 -2.0805 -0.9769
 6827SOL    HW223436   1.439   4.597   3.501  0.1889  0.0547 -0.8654
 6828SOL     OW23437   2.582   3.325   4.248  0.4590 -0.2122  0.1048
 6828SOL    HW123438   2.651   3.390   4.234  1.8762 -1.6298  0.3384
 6828SOL    HW223439   2.586   3.268   4.171 -0.1853 -0.5536  0.3139
 6829SOL     OW23440   6.665   6.962   2.087 -0.6556 -0.2426 -0.4713
 6829SOL    HW123441   6.695   6.872   2.100  2.0599  0.6349  0.0425
 6829SOL    HW223442   6.743   7.010   2.058 -2.1895  1.8104 -1.5439
 6830SOL     OW23443   3.473   0.912   6.216 -0.2856 -0.5487  0.3140
 6830SOL    HW123444   3.526   0.992   6.213 -0.8749 -0.1733 -0.2814
 6830SOL    HW223445   3.454   0.900   6.309 -0.3219  0.0964  0.3992
 6831SOL     OW23446   2.664   6.018   4.639  0.0872  0.8615 -0.4893
 6831SOL    HW123447   2.588   5.983   4.593  0.3752  1.3161 -1.3193
 6831SOL    HW223448   2.663   5.973   4.724 -0.2014 -0.2898 -1.0878
 6832SOL     OW23449   4.722   1.802   1.708  0.1765  0.1787 -0.5393
 6832SOL    HW123450   4.664   1.850   1.649 -1.3407 -1.6534 -0.6281
 6832SOL    HW223451   4.723   1.712   1.674  1.0983 -0.4063  0.9088
 6833SOL     OW23452   5.386   6.583   6.607  0.0118  0.0171  0.0991
 6833SOL    HW123453   5.291   6.572   6.597 -0.4326  0.6696  2.7014
 6833SOL    HW223454   5.407   6.659   6.553 -0.6985 -0.7744 -1.3687
 6834SOL     OW23455   6.382   0.006   7.810 -0.2030 -0.0766  0.5011
 6834SOL    HW123456   6.404  -0.087   7.805  0.1753  0.0436 -0.2721
 6834SOL    HW223457   6.356   0.029   7.720 -1.0800  0.3734  0.8568
 6835SOL     OW23458   7.388   3.610   5.021  0.2890 -0.0277 -0.1204
 6835SOL    HW123459   7.349   3.621   5.108  1.2457 -1.4737  0.5356
 6835SOL    HW223460   7.317   3.629   4.960 -1.2431 -1.7762  1.0145
 6836SOL     OW23461   2.020   6.710   7.087  0.6466 -0.4473  0.1464
 6836SOL    HW123462   2.027   6.617   7.069  2.4737 -0.1318 -0.9294
 6836SOL    HW223463   1.976   6.746   7.010  1.7764 -0.1429 -0.3628
 6837SOL     OW23464   5.999   1.488   6.869 -0.5184 -0.1937  0.0436
 6837SOL    HW123465   6.035   1.401   6.885  0.5011 -0.0552 -1.3852
 6837SOL    HW223466   5.962   1.484   6.781  0.5702  1.1366 -0.4952
 6838SOL     OW23467   2.753   7.459   7.145 -0.0087  0.2203  0.1557
 6838SOL    HW123468   2.738   7.372   7.109 -1.0310  0.9058 -1.1614
 6838SOL    HW223469   2.751   7.446   7.240 -0.8615 -1.0749 -0.0116
 6839SOL     OW23470   2.484   0.112   5.144 -0.4729  0.2040 -0.0963
 6839SOL    HW123471   2.575   0.083   5.149  0.3606  2.3625 -1.3508
 6839SOL    HW223472   2.442   0.051   5.084  0.8740  0.7290 -1.6283
 6840SOL     OW23473   2.689   3.388   6.611  0.0356  0.1531  0.2186
 6840SOL    HW123474   2.743   3.382   6.690  0.1566 -0.1467  0.1169
 6840SOL    HW223475   2.663   3.297   6.593  0.2416  0.1801 -0.2427
 6841SOL     OW23476   2.375   6.057   3.826 -0.0988  0.8672 -0.1584
 6841SOL    HW123477   2.412   6.002   3.756 -1.7740  0.8447 -1.0958
 6841SOL    HW223478   2.362   5.997   3.899 -1.3027  0.1016 -0.9541
 6842SOL     OW23479   4.115   4.489   8.021  0.2828 -0.3934  0.7376
 6842SOL    HW123480   4.200   4.508   8.062  0.6988 -1.1214  0.2536
 6842SOL    HW223481   4.073   4.428   8.081 -0.9587  1.7664  2.1823
 6843SOL     OW23482   2.844   2.525   5.091  0.3698  0.2775 -0.3482
 6843SOL    HW123483   2.919   2.585   5.091  0.2507  0.4453  0.8496
 6843SOL    HW223484   2.775   2.573   5.045  0.4308  0.8663  0.1669
 6844SOL     OW23485   2.245   5.608   0.418  0.3175 -0.1537 -0.3728
 6844SOL    HW123486   2.338   5.588   0.406  1.3346  1.6645  3.0893
 6844SOL    HW223487   2.229   5.683   0.361  2.0470  1.7289  1.4361
 6845SOL     OW23488   3.695   0.058   6.146  0.1623 -0.4598 -0.2535
 6845SOL    HW123489   3.759  -0.008   6.120  0.1176 -0.3377 -0.6806
 6845SOL    HW223490   3.749   0.129   6.182  0.2700 -0.3385 -0.6534
 6846SOL     OW23491   7.211   2.163   1.127 -0.9143  0.1895 -0.3223
 6846SOL    HW123492   7.154   2.150   1.051  2.4497  1.4343 -3.3522
 6846SOL    HW223493   7.285   2.105   1.111 -0.0914  0.4781  2.0818
 6847SOL     OW23494   3.695   3.380   6.559  0.5797 -0.0277 -0.6763
 6847SOL    HW123495   3.722   3.290   6.540  1.5096 -0.3267  1.6912
 6847SOL    HW223496   3.768   3.417   6.609 -0.9869  1.0260  0.9721
 6848SOL     OW23497   4.886   3.525   4.524 -0.2571  0.5447 -0.1104
 6848SOL    HW123498   4.900   3.436   4.557 -1.5334  0.3014 -0.1534
 6848SOL    HW223499   4.974   3.562   4.516  0.2098 -0.1400  1.4632
 6849SOL     OW23500   1.309   2.941   2.632  0.4035  0.2310  0.0267
 6849SOL    HW123501   1.369   2.887   2.582 -0.2113  0.0754 -0.5677
 6849SOL    HW223502   1.259   2.989   2.566  1.8668  2.6342  0.5218
 6850SOL     OW23503   1.353   1.176   2.558  0.3090  0.2716 -0.4994
 6850SOL    HW123504   1.331   1.189   2.651  2.3397  0.6365 -0.0250
 6850SOL    HW223505   1.330   1.259   2.516 -0.5523  0.1305 -0.3304
 6851SOL     OW23506   4.993   2.474   4.336 -0.3007  0.2963  0.2730
 6851SOL    HW123507   5.046   2.401   4.302  0.1878  0.7669  0.0212
 6851SOL    HW223508   4.934   2.496   4.264 -1.2183 -0.5702  0.7320
 6852SOL     OW23509   1.354   7.618   5.502  0.1713  0.2839  0.1602
 6852SOL    HW123510   1.418   7.580   5.561  0.0110  3.3494  2.5715
 6852SOL    HW223511   1.395   7.700   5.472 -1.2173  0.5815 -1.0572
 6853SOL     OW23512   2.180   3.226   7.760  0.5535  0.2882  0.2155
 6853SOL    HW123513   2.200   3.318   7.743 -0.4990  0.1764 -1.9308
 6853SOL    HW223514   2.133   3.227   7.844 -1.0094  1.9731 -0.5966
 6854SOL     OW23515   7.392   1.367   2.647  0.3538 -0.3262 -0.0792
 6854SOL    HW123516   7.460   1.377   2.581  1.1579  0.2599  0.8012
 6854SOL    HW223517   7.427   1.413   2.724 -1.1860  0.3029  0.2843
 6855SOL     OW23518   6.816   0.912   4.877 -0.0569  0.4235  0.3152
 6855SOL    HW123519   6.837   0.829   4.835  0.4739 -0.4261  2.1681
 6855SOL    HW223520   6.888   0.970   4.854  0.4780 -0.1841  0.4283
 6856SOL     OW23521   2.962   7.570   1.277 -0.0581  0.2592  0.8751
 6856SOL    HW123522   2.975   7.483   1.240 -0.8904 -0.0717  1.3381
 6856SOL    HW223523   3.048   7.595   1.312  0.7741  0.5942 -1.2591
 6857SOL     OW23524   4.534   6.469   6.318  0.1617 -0.0971 -0.2969
 6857SOL    HW123525   4.562   6.548   6.272 -3.1476  0.3802 -1.8356
 6857SOL    HW223526   4.544   6.399   6.253 -1.0409 -0.1006 -0.5000
 6858SOL     OW23527   2.680   1.787   5.991 -0.2809 -0.1962 -0.3820
 6858SOL    HW123528   2.768   1.822   5.977 -1.3308  2.4836 -0.9657
 6858SOL    HW223529   2.672   1.716   5.928  0.7143  1.0955 -2.0667
 6859SOL     OW23530   5.132   0.892   0.719 -0.1752 -0.1126  0.0610
 6859SOL    HW123531   5.067   0.841   0.669  0.0492 -1.2776  0.9331
 6859SOL    HW223532   5.195   0.921   0.653 -0.5947 -0.5130 -0.5278
 6860SOL     OW23533   5.492   6.262   5.522  0.4603 -0.0823 -0.0101
 6860SOL    HW123534   5.413   6.261   5.576 -1.3518  0.3452 -2.4312
 6860SOL    HW223535   5.500   6.353   5.493  1.3079 -0.3086 -0.5030
 6861SOL     OW23536   2.955   1.844   6.068  0.4620 -0.0140  0.4043
 6861SOL    HW123537   3.008   1.768   6.044 -0.2224 -0.3334 -0.1274
 6861SOL    HW223538   2.961   1.902   5.992  0.5039  0.1971  0.5693
 6862SOL     OW23539   4.692   3.455   4.843  0.5274 -0.2202 -0.1730
 6862SOL    HW123540   4.725   3.399   4.772  1.4557  0.2801 -0.1509
 6862SOL    HW223541   4.666   3.394   4.912  1.9724 -0.6157  0.0448
 6863SOL     OW23542   3.917   0.763   6.805 -0.6468  0.3917 -0.2229
 6863SOL    HW123543   4.008   0.792   6.797 -0.7149  0.1763 -2.3574
 6863SOL    HW223544   3.877   0.787   6.722 -2.3743 -0.1613  0.4118
 6864SOL     OW23545   0.830   6.257   6.899  0.0311  0.4328  0.3227
 6864SOL    HW123546   0.743   6.216   6.894  0.5454 -0.5856 -0.6177
 6864SOL    HW223547   0.813   6.350   6.884 -0.7365  0.0371 -1.4947
 6865SOL     OW23548   2.554   6.237   0.251 -0.2889 -0.3103  0.1212
 6865SOL    HW123549   2.498   6.196   0.318  1.8193  0.4389  2.4947
 6865SOL    HW223550   2.600   6.163   0.211 -1.3046 -0.7411 -0.2957
 6866SOL     OW23551   4.853   6.076   3.474 -0.0743 -0.1850 -0.0208
 6866SOL    HW123552   4.925   6.020   3.443  1.4261  0.7240  1.5896
 6866SOL    HW223553   4.796   6.086   3.398  0.4197 -2.5809 -0.8131
 6867SOL     OW23554   3.222   7.185   2.822  0.1648 -0.4941 -0.1534
 6867SOL    HW123555   3.229   7.164   2.729 -1.0588  0.6013 -0.5346
 6867SOL    HW223556   3.308   7.221   2.844  0.5613 -1.0210 -0.7833
 6868SOL     OW23557   6.997   3.156   0.076  0.0265 -0.0297  0.4154
 6868SOL    HW123558   7.040   3.236   0.106  1.2430 -1.5433  3.1108
 6868SOL    HW223559   6.904   3.180   0.070  0.4943  1.8373  0.0685
 6869SOL     OW23560   1.219   7.920   7.324 -0.6569  0.4956 -0.0880
 6869SOL    HW123561   1.311   7.949   7.323 -0.0612 -1.2704 -0.4731
 6869SOL    HW223562   1.203   7.895   7.415 -1.0428  1.5968  0.1587
 6870SOL     OW23563   4.094   3.576   4.846 -0.8088  0.7000 -0.7043
 6870SOL    HW123564   4.171   3.528   4.815 -0.8550  0.3875 -0.3422
 6870SOL    HW223565   4.045   3.595   4.766 -2.3252 -2.4750 -0.6806
 6871SOL     OW23566   0.071   6.585   6.468 -0.3208 -0.2171 -0.3837
 6871SOL    HW123567   0.162   6.572   6.493 -0.5687 -0.9515  0.1938
 6871SOL    HW223568   0.024   6.514   6.512 -1.8084  2.5139  2.8902
 6872SOL     OW23569   6.403   7.392   2.144 -0.7404  0.4288 -0.3410
 6872SOL    HW123570   6.394   7.343   2.225 -0.4954  0.2917 -0.3936
 6872SOL    HW223571   6.479   7.449   2.158  0.7042 -1.1848 -1.2486
 6873SOL     OW23572   1.081   7.515   1.387 -0.3944 -0.5351  0.2736
 6873SOL    HW123573   0.991   7.533   1.361 -0.4471 -0.1592  0.6982
 6873SOL    HW223574   1.113   7.598   1.422  0.0472 -0.7229  0.3252
 6874SOL     OW23575   1.349   7.354   7.138 -0.5322  0.0801 -0.1827
 6874SOL    HW123576   1.384   7.423   7.194 -0.2584 -0.9588  0.9653
 6874SOL    HW223577   1.396   7.275   7.164  0.2682 -0.2974 -2.5201
 6875SOL     OW23578   3.447   8.104   0.909  0.2089  0.1603  0.5214
 6875SOL    HW123579   3.404   8.190   0.904 -0.3725 -0.1310  0.4887
 6875SOL    HW223580   3.426   8.061   0.826  0.6951  0.0754  0.4413
 6876SOL     OW23581   5.387   4.442   6.563  0.9716  0.5884 -0.5010
 6876SOL    HW123582   5.409   4.427   6.655  1.7894 -0.1369 -0.7999
 6876SOL    HW223583   5.420   4.530   6.545  0.9649  0.6661 -0.1443
 6877SOL     OW23584   7.410   1.955   1.462  0.8912  1.1886 -0.8420
 6877SOL    HW123585   7.388   1.912   1.380 -0.2291 -2.5696  1.1762
 6877SOL    HW223586   7.506   1.958   1.463  0.9927 -0.5127 -1.5582
 6878SOL     OW23587   7.083   4.918   4.765 -0.7575  0.4284 -0.3543
 6878SOL    HW123588   7.044   4.995   4.724 -2.4759  0.0330  0.4282
 6878SOL    HW223589   7.026   4.899   4.839  1.2635  0.0935  1.2177
 6879SOL     OW23590   6.122   3.076   0.443  0.2377  0.1046 -0.3457
 6879SOL    HW123591   6.101   2.998   0.391  0.7562  0.3473 -0.9199
 6879SOL    HW223592   6.154   3.140   0.379 -1.7969  1.4106 -0.1577
 6880SOL     OW23593   5.401   1.875   7.330  0.1352  0.3645  0.3665
 6880SOL    HW123594   5.345   1.885   7.253  2.0198  1.4207 -0.9482
 6880SOL    HW223595   5.469   1.814   7.302  0.4426  0.1956  1.4506
 6881SOL     OW23596   4.224   5.218   5.235 -0.2245 -0.0252 -0.0501
 6881SOL    HW123597   4.244   5.138   5.284  0.1208  0.3328  0.3999
 6881SOL    HW223598   4.271   5.287   5.282  0.6386  0.2308 -1.2465
 6882SOL     OW23599   0.765   4.830   6.409  0.2060  0.6306  0.4033
 6882SOL    HW123600   0.725   4.817   6.495 -1.5928  2.1467 -0.1338
 6882SOL    HW223601   0.732   4.757   6.357  1.1406 -0.1797  0.9079
 6883SOL     OW23602   0.437   3.526   0.176  0.3109 -0.1189  0.1049
 6883SOL    HW123603   0.449   3.600   0.117 -1.3813 -0.8369 -1.2314
 6883SOL    HW223604   0.515   3.472   0.164 -0.1481 -0.4174 -1.7711
 6884SOL     OW23605   5.588   1.429   0.431  0.4401 -0.0734  0.2095
 6884SOL    HW123606   5.659   1.400   0.487  0.4862 -1.9831 -0.7618
 6884SOL    HW223607   5.627   1.495   0.373  1.4632 -1.1688 -0.3775
 6885SOL     OW23608   3.042   6.995   5.280  0.1300 -0.4074  0.1818
 6885SOL    HW123609   3.088   6.913   5.266 -1.7105 -1.4323 -0.1411
 6885SOL    HW223610   3.102   7.047   5.334  1.7486 -1.5438 -0.4509
 6886SOL     OW23611   0.821   7.486   6.502 -0.2446  0.3851  0.2159
 6886SOL    HW123612   0.901   7.439   6.523  0.3562  0.6078 -1.3991
 6886SOL    HW223613   0.768   7.482   6.582  3.0064  3.7707  2.9106
 6887SOL     OW23614   5.699   4.553   2.329  0.0305  0.3992 -0.1532
 6887SOL    HW123615   5.646   4.590   2.258 -2.0044  0.8798  1.5340
 6887SOL    HW223616   5.699   4.459   2.312  0.2675  0.5741 -1.2198
 6888SOL     OW23617   3.556   1.115   1.441  0.1755 -0.0332  0.2381
 6888SOL    HW123618   3.589   1.134   1.353 -0.1199 -0.9716 -0.0909
 6888SOL    HW223619   3.620   1.154   1.500  0.5531  0.3231 -0.3953
 6889SOL     OW23620   0.815   3.772   0.879 -0.1327 -0.2356  0.4394
 6889SOL    HW123621   0.791   3.736   0.794 -1.3470  1.4782 -0.0036
 6889SOL    HW223622   0.863   3.853   0.858 -1.9973  1.1799  1.3102
 6890SOL     OW23623   0.352   7.213   1.127  0.6384  0.4321  0.3937
 6890SOL    HW123624   0.360   7.201   1.032  0.8900  0.2089  0.4438
 6890SOL    HW223625   0.316   7.302   1.136 -0.1467  0.1641  0.0653
 6891SOL     OW23626   0.207   1.480   6.399  0.1859  0.0636 -0.0410
 6891SOL    HW123627   0.290   1.435   6.417 -0.6813 -1.9092 -0.6823
 6891SOL    HW223628   0.152   1.413   6.357 -1.8429  1.2194  0.6412
 6892SOL     OW23629   0.801   6.359   3.579 -0.5224 -0.5829 -0.0249
 6892SOL    HW123630   0.816   6.438   3.526 -4.8594  0.5858  0.1088
 6892SOL    HW223631   0.789   6.289   3.515 -0.1923 -0.4039 -0.2900
 6893SOL     OW23632   4.052   1.290   7.339 -0.3198  0.1236  0.9594
 6893SOL    HW123633   4.133   1.242   7.321 -0.5746 -0.6163  1.7191
 6893SOL    HW223634   3.985   1.223   7.347 -0.2157  0.2377  4.7649
 6894SOL     OW23635   1.479   5.692   5.981 -0.1961 -0.5560 -0.1597
 6894SOL    HW123636   1.517   5.674   5.895  0.0354  0.5430 -0.2975
 6894SOL    HW223637   1.521   5.629   6.039 -0.3333 -1.2890 -0.8363
 6895SOL     OW23638   7.532   3.344   3.454  0.0679  0.3159  0.4517
 6895SOL    HW123639   7.546   3.431   3.493 -0.8530  0.8759 -0.4060
 6895SOL    HW223640   7.458   3.308   3.502  0.8124 -0.2552  1.1944
 6896SOL     OW23641   4.516   1.738   1.427  0.4938  0.0273 -0.1208
 6896SOL    HW123642   4.474   1.787   1.356  0.4755  0.1471 -0.0260
 6896SOL    HW223643   4.463   1.659   1.436  0.3645  0.1173 -0.0894
 6897SOL     OW23644   6.077   1.156   6.615  0.0632 -0.6700 -0.0537
 6897SOL    HW123645   6.015   1.183   6.548  0.1784 -1.8221 -0.6428
 6897SOL    HW223646   6.028   1.162   6.697 -0.5023 -0.5956 -0.3925
 6898SOL     OW23647   4.712   1.621   4.367 -0.5040  0.4039 -0.2220
 6898SOL    HW123648   4.778   1.583   4.310 -1.6996 -0.4305 -1.0940
 6898SOL    HW223649   4.758   1.691   4.414  1.1805 -0.7014 -0.1780
 6899SOL     OW23650   5.869   3.986   6.630 -0.1651 -0.7468 -0.0523
 6899SOL    HW123651   5.944   4.045   6.632 -1.2283  0.6412 -0.0178
 6899SOL    HW223652   5.827   4.003   6.545 -0.5720 -1.3343  0.0242
 6900SOL     OW23653   4.028   0.508   0.058  0.1035 -0.1340 -0.1701
 6900SOL    HW123654   4.112   0.514   0.012 -0.5610 -1.7240 -1.7419
 6900SOL    HW223655   3.963   0.513  -0.012 -0.9977 -1.7705  0.6868
 6901SOL     OW23656   7.332   0.104   6.294  0.3069  0.5716  0.1129
 6901SOL    HW123657   7.245   0.075   6.265  0.1415  1.4012 -0.2349
 6901SOL    HW223658   7.382   0.113   6.213  0.7195  0.0948  0.3139
 6902SOL     OW23659   6.042   4.430   1.153  0.2571  0.0374  0.0709
 6902SOL    HW123660   6.131   4.465   1.163  0.8148 -0.1214 -3.2564
 6902SOL    HW223661   5.987   4.508   1.143  0.4187  0.1039 -0.3160
 6903SOL     OW23662   6.423   5.095   5.313  0.0754  0.1691 -0.0697
 6903SOL    HW123663   6.355   5.138   5.365 -0.5162 -0.5900 -0.2031
 6903SOL    HW223664   6.464   5.033   5.374  0.2099  0.1554 -0.1743
 6904SOL     OW23665   3.297   6.345   5.702 -0.0667 -0.6191 -0.1276
 6904SOL    HW123666   3.369   6.282   5.700 -0.6222 -1.2796  0.4792
 6904SOL    HW223667   3.303   6.387   5.788  0.5102  0.4262 -0.6538
 6905SOL     OW23668   4.912   4.290   6.068 -0.1343  0.2725 -0.1627
 6905SOL    HW123669   4.884   4.199   6.076 -1.3087  0.2403 -3.2228
 6905SOL    HW223670   4.839   4.334   6.024  0.9212  2.4068  0.0901
 6906SOL     OW23671   2.435   2.389   0.845 -0.0804 -0.1756 -0.0208
 6906SOL    HW123672   2.446   2.448   0.920  0.8932 -0.6804  0.2414
 6906SOL    HW223673   2.470   2.305   0.875 -1.1937 -0.8273 -0.4920
 6907SOL     OW23674   0.046   3.074   0.727  0.4560 -0.1314 -0.2221
 6907SOL    HW123675   0.001   3.054   0.809  0.7976 -1.3011 -0.3047
 6907SOL    HW223676   0.081   3.162   0.740 -2.4018  1.1421 -0.4078
 6908SOL     OW23677   3.398   7.543   6.287  0.3975  0.1534 -0.3056
 6908SOL    HW123678   3.447   7.510   6.212  0.9115 -0.5162  0.3146
 6908SOL    HW223679   3.442   7.506   6.363  0.6205  1.7828  0.4000
 6909SOL     OW23680   1.271   5.703   4.011 -0.0075 -0.1609 -0.1436
 6909SOL    HW123681   1.279   5.632   4.075  0.4979 -0.0864 -0.1227
 6909SOL    HW223682   1.326   5.773   4.045  0.7272 -0.3278 -0.9365
 6910SOL     OW23683   0.278   6.478   3.272 -0.7313  0.1515 -0.2193
 6910SOL    HW123684   0.302   6.466   3.364 -0.1794 -1.1028 -0.4976
 6910SOL    HW223685   0.360   6.463   3.224 -1.0872  0.4392 -0.9351
 6911SOL     OW23686   2.168   0.762   6.416  0.6946  1.0915 -0.2933
 6911SOL    HW123687   2.079   0.774   6.385 -0.4626 -2.7771  1.0710
 6911SOL    HW223688   2.215   0.727   6.340  0.3970  0.7309 -0.3116
 6912SOL     OW23689   5.717   1.643   7.950  0.2946  0.2883  0.1706
 6912SOL    HW123690   5.688   1.692   7.873 -0.0849 -1.6889 -1.0186
 6912SOL    HW223691   5.806   1.673   7.966  0.1759  1.1497 -0.6792
 6913SOL     OW23692   3.390   6.499   6.834  0.2247  0.1127  0.9757
 6913SOL    HW123693   3.377   6.582   6.879 -0.5189  0.6422 -0.1651
 6913SOL    HW223694   3.329   6.501   6.761 -1.9839 -2.7237  2.5477
 6914SOL     OW23695   6.172   2.199   5.369 -0.6942 -0.1858  0.5893
 6914SOL    HW123696   6.077   2.205   5.362 -0.6093  0.6120 -0.0448
 6914SOL    HW223697   6.200   2.283   5.404 -0.2606 -0.6243  1.3252
 6915SOL     OW23698   0.036   2.597   6.969  0.0137  0.4672  0.2893
 6915SOL    HW123699   0.002   2.568   7.054  0.1487  1.0726  0.5585
 6915SOL    HW223700  -0.000   2.535   6.906 -0.4895  0.3026  0.7324
 6916SOL     OW23701   6.569   1.993   7.403  0.4628 -0.4706  0.1446
 6916SOL    HW123702   6.560   1.940   7.324  0.3324 -0.6789  0.2989
 6916SOL    HW223703   6.543   2.081   7.375 -0.3156 -0.6964  0.1353
 6917SOL     OW23704   0.093   7.277   7.172 -0.2603 -0.1860 -0.1849
 6917SOL    HW123705   0.061   7.319   7.092  0.6149 -0.3238 -0.6226
 6917SOL    HW223706   0.051   7.192   7.173 -0.1058 -0.2709 -0.6264
 6918SOL     OW23707   4.141   6.811   0.395  0.0036 -0.6078 -0.2739
 6918SOL    HW123708   4.070   6.796   0.458  0.1894 -0.2699  0.0171
 6918SOL    HW223709   4.132   6.904   0.372  1.7921  0.0827  1.5494
 6919SOL     OW23710   1.341   0.901   2.449  0.0241 -0.3306  0.3777
 6919SOL    HW123711   1.407   0.904   2.379 -0.6755 -0.7567 -0.3129
 6919SOL    HW223712   1.332   0.991   2.478  1.1759 -0.3067  0.7402
 6920SOL     OW23713   3.536   3.300   8.128  0.7009 -0.5730  0.2413
 6920SOL    HW123714   3.515   3.329   8.217 -0.4256 -1.1567  0.1798
 6920SOL    HW223715   3.564   3.380   8.083 -0.7282  0.1464  0.5445
 6921SOL     OW23716   5.480   3.523   6.183 -0.2324 -0.7116 -0.6190
 6921SOL    HW123717   5.542   3.464   6.226  1.2809  0.0736 -1.6262
 6921SOL    HW223718   5.530   3.562   6.111 -1.0530  2.0418  0.1896
 6922SOL     OW23719   1.952   5.699   2.743 -0.0048  0.0233 -0.0575
 6922SOL    HW123720   1.956   5.719   2.836 -3.1381  0.3684  0.1111
 6922SOL    HW223721   2.018   5.756   2.703  1.0131  0.2699  1.8496
 6923SOL     OW23722   2.598   1.666   2.068  0.4770  0.0877 -0.2675
 6923SOL    HW123723   2.547   1.623   2.137  1.1988 -0.3056  0.0310
 6923SOL    HW223724   2.536   1.724   2.025 -0.8385 -2.0633 -1.4346
 6924SOL     OW23725   5.256   4.035   5.897  0.6149  0.0453  0.4344
 6924SOL    HW123726   5.284   4.117   5.858 -0.7668 -0.0027 -0.7363
 6924SOL    HW223727   5.315   3.969   5.861  0.1689  0.1864 -0.5631
 6925SOL     OW23728   7.477   1.971   7.463 -0.0519 -0.3525  0.4880
 6925SOL    HW123729   7.462   1.895   7.520  1.9502 -0.3883  1.0290
 6925SOL    HW223730   7.541   1.940   7.399 -1.3119  0.0814 -1.0358
 6926SOL     OW23731   4.528   6.847   4.644 -0.5717  0.2314  0.2211
 6926SOL    HW123732   4.541   6.871   4.552 -0.5627  2.2123  0.6963
 6926SOL    HW223733   4.501   6.928   4.686 -2.5364 -1.0435  1.6128
 6927SOL     OW23734   0.353   6.412   2.263 -0.1657 -0.6911  0.3516
 6927SOL    HW123735   0.262   6.441   2.256 -0.7460 -2.4775 -0.0788
 6927SOL    HW223736   0.385   6.410   2.172  0.9123  1.5989  0.6152
 6928SOL     OW23737   1.538   0.263   4.463 -0.4573  0.7796 -0.2722
 6928SOL    HW123738   1.603   0.255   4.393 -0.5834  0.4890 -0.3546
 6928SOL    HW223739   1.562   0.344   4.508  0.2504  0.4388 -0.0153
 6929SOL     OW23740   2.432   2.595   4.616  0.5027  0.7084 -0.0227
 6929SOL    HW123741   2.490   2.612   4.691 -0.0988  0.7521  0.4330
 6929SOL    HW223742   2.419   2.682   4.577  1.2278  0.6179 -0.4933
 6930SOL     OW23743   2.650   6.834   7.957 -0.3642 -1.1128  0.0467
 6930SOL    HW123744   2.615   6.891   7.889 -1.9629  0.2708  1.8916
 6930SOL    HW223745   2.654   6.748   7.916 -0.7510 -0.2459 -1.9303
 6931SOL     OW23746   4.698   0.691   1.751 -0.1838 -0.4232  0.1199
 6931SOL    HW123747   4.748   0.747   1.811 -0.9392 -1.1629  1.4843
 6931SOL    HW223748   4.761   0.625   1.721 -0.0947 -0.7914  1.0889
 6932SOL     OW23749   7.150   4.946   5.486  0.2254  0.0681 -0.3070
 6932SOL    HW123750   7.167   5.014   5.551 -1.7627  0.8583 -0.5422
 6932SOL    HW223751   7.191   4.868   5.522  1.2180  1.0180  0.7242
 6933SOL     OW23752   1.224   3.132   1.916  0.6129 -0.0975  0.2876
 6933SOL    HW123753   1.297   3.132   1.978  0.1942  1.6503  0.8511
 6933SOL    HW223754   1.251   3.195   1.848  0.1373 -0.3489 -0.1412
 6934SOL     OW23755   2.011   0.002   5.644  0.0360 -0.2018  0.0638
 6934SOL    HW123756   1.953  -0.039   5.579 -1.7424 -0.7921  1.9104
 6934SOL    HW223757   2.090  -0.051   5.642  0.3346  0.2333 -2.0892
 6935SOL     OW23758   4.855   7.935   3.507  0.1985 -0.4588 -0.0194
 6935SOL    HW123759   4.838   7.852   3.462  0.7728 -1.2785  1.1986
 6935SOL    HW223760   4.943   7.925   3.544  0.5217  0.9425 -0.3431
 6936SOL     OW23761   4.790   4.556   3.249 -0.2597 -0.1989  0.1097
 6936SOL    HW123762   4.863   4.521   3.198  1.3506  2.9020  0.0096
 6936SOL    HW223763   4.771   4.641   3.209  0.0916  1.7442  3.6236
 6937SOL     OW23764   1.888   3.492   4.532  0.1967  0.4501  0.1807
 6937SOL    HW123765   1.844   3.447   4.459  1.4009 -0.7068  0.1386
 6937SOL    HW223766   1.980   3.493   4.507  0.9981 -1.9547  2.6393
 6938SOL     OW23767   6.926   6.651   0.288  0.0170 -0.1230 -0.8037
 6938SOL    HW123768   6.921   6.742   0.260  0.3985 -0.2720 -1.3641
 6938SOL    HW223769   7.015   6.623   0.265  1.6512  0.7235  3.5302
 6939SOL     OW23770   2.822   3.899   1.485 -0.7153  0.1435  0.4170
 6939SOL    HW123771   2.822   3.905   1.581  1.2388 -1.3056  0.5634
 6939SOL    HW223772   2.886   3.831   1.465 -2.0171 -0.5154 -1.8932
 6940SOL     OW23773   6.510   3.324   6.857  0.3699  0.5905  0.3683
 6940SOL    HW123774   6.508   3.361   6.945  0.4117  0.8322  0.2685
 6940SOL    HW223775   6.420   3.333   6.825  0.3216  0.3709  0.4394
 6941SOL     OW23776   7.829   0.432   0.037 -0.5504 -0.1246  0.0862
 6941SOL    HW123777   7.759   0.441   0.101 -1.7413  0.7796 -1.2570
 6941SOL    HW223778   7.804   0.357  -0.017  0.1350 -0.5201  0.2988
 6942SOL     OW23779   7.059   6.422   0.958  0.5817 -0.5465  0.9466
 6942SOL    HW123780   7.056   6.367   0.880 -0.0664  0.4449  0.2300
 6942SOL    HW223781   7.151   6.423   0.984  1.5763  1.9523 -1.9687
 6943SOL     OW23782   4.459   6.112   7.824 -0.1045 -0.4307  0.7058
 6943SOL    HW123783   4.459   6.149   7.736  0.3783 -1.5783  0.1916
 6943SOL    HW223784   4.537   6.149   7.866  0.0267 -0.3763  0.4151
 6944SOL     OW23785   6.331   1.032   2.089 -0.1209 -0.7340  0.1263
 6944SOL    HW123786   6.385   1.111   2.078 -1.3844  0.5841  2.4263
 6944SOL    HW223787   6.393   0.964   2.115  0.8013 -0.0043 -0.0835
 6945SOL     OW23788   0.587   6.840   5.726  0.0494 -0.0803  0.6567
 6945SOL    HW123789   0.628   6.783   5.791  2.0724  1.6031  0.9691
 6945SOL    HW223790   0.585   6.927   5.768  0.0655  0.7462 -0.9789
 6946SOL     OW23791   0.946   4.788   5.524  0.3824  0.2586  0.2212
 6946SOL    HW123792   0.888   4.817   5.595  0.3551  0.8163 -0.0215
 6946SOL    HW223793   0.891   4.731   5.470 -0.1529  1.3347 -0.3906
 6947SOL     OW23794   1.469   3.889   8.037 -0.0701 -0.2238 -0.1265
 6947SOL    HW123795   1.451   3.959   8.099 -1.6255  0.0254 -0.8239
 6947SOL    HW223796   1.512   3.932   7.963 -0.1419 -0.1729 -0.1379
 6948SOL     OW23797   2.880   1.879   3.551 -0.4849 -0.3742 -0.0674
 6948SOL    HW123798   2.819   1.869   3.477  0.2660  0.2071 -0.7865
 6948SOL    HW223799   2.861   1.967   3.585  0.0453 -0.1340 -0.3863
 6949SOL     OW23800   1.028   5.834   6.273  0.0732 -0.0868 -0.0148
 6949SOL    HW123801   1.108   5.884   6.262  0.0494 -0.3603 -1.6533
 6949SOL    HW223802   0.963   5.880   6.220 -0.2157 -1.2292 -0.6920
 6950SOL     OW23803   7.687   3.171   4.431  0.0085 -0.2782  0.0218
 6950SOL    HW123804   7.715   3.209   4.514  0.1552  1.5061 -0.8111
 6950SOL    HW223805   7.621   3.106   4.456 -0.3361  0.6002  1.5014
 6951SOL     OW23806   3.422   7.800   0.166  0.1281  0.3083  0.0800
 6951SOL    HW123807   3.477   7.722   0.157 -0.0347  0.0455  1.1357
 6951SOL    HW223808   3.409   7.808   0.261  0.2529  1.6978 -0.0030
 6952SOL     OW23809   6.418   2.512   1.193 -0.1686 -0.0854 -0.0148
 6952SOL    HW123810   6.412   2.520   1.288 -0.2551  0.7429 -0.0773
 6952SOL    HW223811   6.412   2.418   1.176 -1.9294 -0.1317  0.6718
 6953SOL     OW23812   2.356   0.413   4.216  0.1020 -0.3380 -0.4423
 6953SOL    HW123813   2.285   0.447   4.271  2.0856  1.1781  1.3019
 6953SOL    HW223814   2.418   0.375   4.278  0.8141 -1.7356 -1.9481
 6954SOL     OW23815   6.586   5.333   7.076 -0.0524 -0.0850  0.4451
 6954SOL    HW123816   6.648   5.347   7.005  0.5775 -0.6859  0.8734
 6954SOL    HW223817   6.564   5.240   7.072  1.4737 -0.5648  2.2154
 6955SOL     OW23818   4.386   1.233   3.914 -0.2086  0.5004  0.0914
 6955SOL    HW123819   4.304   1.184   3.906 -0.1952  0.5669 -0.5398
 6955SOL    HW223820   4.442   1.177   3.969 -0.2241 -0.1620 -0.5494
 6956SOL     OW23821   1.031   1.086   2.750  0.1456  0.2109 -0.2251
 6956SOL    HW123822   1.028   1.002   2.705  0.6480  0.1961 -0.2343
 6956SOL    HW223823   1.115   1.086   2.796  0.2269  0.7728 -0.3611
 6957SOL     OW23824   2.839   7.324   2.726  0.2362 -0.0159 -0.1517
 6957SOL    HW123825   2.851   7.320   2.820  0.0902 -0.8925 -0.1664
 6957SOL    HW223826   2.876   7.409   2.701  1.1521 -0.1855  0.5641
 6958SOL     OW23827   5.559   4.068   2.381  0.5596  0.2370 -0.0192
 6958SOL    HW123828   5.612   3.988   2.380  1.4825  0.7561 -3.1999
 6958SOL    HW223829   5.496   4.055   2.311  0.7486  2.2995 -0.6120
 6959SOL     OW23830   7.099   3.659   6.138  0.5981  0.0317  0.2657
 6959SOL    HW123831   7.151   3.675   6.216  1.5086  0.8015 -0.4732
 6959SOL    HW223832   7.161   3.667   6.065  0.4682 -3.5978 -0.4474
 6960SOL     OW23833   6.509   3.498   3.801 -0.2509  0.1106  0.7199
 6960SOL    HW123834   6.479   3.554   3.730  0.5003 -1.7488 -1.1512
 6960SOL    HW223835   6.516   3.411   3.762  0.1597 -0.9985  3.0891
 6961SOL     OW23836   4.826   4.568   3.505  0.6721 -0.3219 -0.1338
 6961SOL    HW123837   4.741   4.528   3.525  0.3324  0.5783  0.2517
 6961SOL    HW223838   4.827   4.574   3.409 -0.4080  1.1285 -0.0916
 6962SOL     OW23839   5.913   3.760   1.283  0.1464 -0.6350  0.1447
 6962SOL    HW123840   5.983   3.746   1.346  0.9953  1.1915 -0.3328
 6962SOL    HW223841   5.954   3.744   1.198 -0.5000 -1.2588 -0.0593
 6963SOL     OW23842   0.907   7.118   0.133 -0.4736 -0.3796  0.2507
 6963SOL    HW123843   0.996   7.152   0.139  0.0640 -1.4534 -1.0886
 6963SOL    HW223844   0.904   7.049   0.199 -0.2787 -0.4033  0.2369
 6964SOL     OW23845   8.118   0.365   1.613 -0.5161 -0.0289 -0.6959
 6964SOL    HW123846   8.048   0.426   1.591  0.9727  1.1956 -2.2646
 6964SOL    HW223847   8.157   0.401   1.692 -1.2202 -0.3738 -0.1750
 6965SOL     OW23848   1.450   5.916   2.890 -0.5707 -0.2271 -0.6089
 6965SOL    HW123849   1.428   5.823   2.887 -1.9829  0.0170  0.7130
 6965SOL    HW223850   1.420   5.944   2.977  0.1738  1.3862 -0.8419
 6966SOL     OW23851   5.674   5.815   3.998 -0.0128  0.1157 -0.0679
 6966SOL    HW123852   5.678   5.908   4.018  0.7893  0.2630 -0.8396
 6966SOL    HW223853   5.604   5.807   3.932  0.8859  0.3968 -1.0801
 6967SOL     OW23854   6.051   7.843   3.606 -0.3669 -0.3205  0.1305
 6967SOL    HW123855   5.980   7.791   3.568 -0.5186  0.0811 -0.1402
 6967SOL    HW223856   6.029   7.933   3.585 -0.0582 -0.1487  0.5229
 6968SOL     OW23857   4.729   1.781   5.471 -0.2398 -0.6694  0.3783
 6968SOL    HW123858   4.773   1.835   5.537  0.3789  0.5274 -0.9646
 6968SOL    HW223859   4.789   1.709   5.454 -1.4838 -2.4537  2.8913
 6969SOL     OW23860   1.876   2.341   6.806  0.1222 -0.0055  0.1202
 6969SOL    HW123861   1.951   2.288   6.831 -0.2401 -0.3446  0.5024
 6969SOL    HW223862   1.906   2.391   6.730  0.9398  0.3540  0.6626
 6970SOL     OW23863   6.440   0.046   5.085 -0.2195  0.3730 -0.1674
 6970SOL    HW123864   6.387   0.116   5.047 -0.5073  0.6215  0.6625
 6970SOL    HW223865   6.386   0.011   5.156  0.0329 -0.5131 -0.4023
 6971SOL     OW23866   4.659   5.813   3.600 -0.2749  0.0441 -0.4295
 6971SOL    HW123867   4.665   5.855   3.686  2.0229  0.2026 -0.5930
 6971SOL    HW223868   4.749   5.815   3.566 -1.2741  0.9794 -3.3220
 6972SOL     OW23869   5.424   7.273   0.354 -0.0059 -0.2940  0.0361
 6972SOL    HW123870   5.357   7.319   0.404 -1.3113 -0.3223 -1.6022
 6972SOL    HW223871   5.474   7.224   0.420  0.0861  1.7491  1.5751
 6973SOL     OW23872   7.371   6.114   0.250  0.3335  0.8775  0.1278
 6973SOL    HW123873   7.402   6.202   0.227  2.9838 -0.2150 -0.8535
 6973SOL    HW223874   7.276   6.121   0.249  0.4338  3.9979  1.2481
 6974SOL     OW23875   5.304   6.428   0.505 -0.3833  0.5349 -0.1252
 6974SOL    HW123876   5.284   6.350   0.556  0.5522  0.7736  0.6287
 6974SOL    HW223877   5.287   6.501   0.565  2.1214  0.7727  0.4018
 6975SOL     OW23878   6.402   5.339   2.031 -0.8309  0.2123  0.3704
 6975SOL    HW123879   6.468   5.407   2.041 -1.1581  0.7085 -0.6940
 6975SOL    HW223880   6.354   5.363   1.951 -1.2830 -0.9808  0.2545
 6976SOL     OW23881   5.460   7.783   5.696  0.3141  0.0654  0.2024
 6976SOL    HW123882   5.551   7.808   5.680  0.5023 -0.1425  0.8782
 6976SOL    HW223883   5.420   7.862   5.732 -0.1112  0.5371 -1.2566
 6977SOL     OW23884   6.128   1.759   6.952  0.2043 -0.5933  0.1996
 6977SOL    HW123885   6.050   1.791   6.999  1.0611 -0.3274  1.4874
 6977SOL    HW223886   6.096   1.684   6.903 -1.2275  0.4896 -0.6260
 6978SOL     OW23887   5.084   5.457   4.186  0.5089  0.3929 -0.1527
 6978SOL    HW123888   5.158   5.425   4.133  0.3570 -0.1049 -0.0738
 6978SOL    HW223889   5.008   5.444   4.130 -0.3966 -4.5657  1.6827
 6979SOL     OW23890   1.955   6.923   2.786  0.5580  0.2193  0.0437
 6979SOL    HW123891   2.016   6.970   2.842  0.3989 -2.1038  2.3476
 6979SOL    HW223892   1.868   6.948   2.819  0.4047  0.1405 -0.2954
 6980SOL     OW23893   0.538   1.590   4.518  0.0265 -0.2760 -0.6429
 6980SOL    HW123894   0.490   1.514   4.486 -0.6972  0.0145 -0.2440
 6980SOL    HW223895   0.511   1.662   4.461 -1.1921  0.2248  0.5192
 6981SOL     OW23896   3.019   3.711   7.820  0.0786  0.7229 -0.6843
 6981SOL    HW123897   3.081   3.775   7.853 -0.1302  1.5027 -1.7476
 6981SOL    HW223898   2.963   3.760   7.759  0.2174 -0.5556 -1.9064
 6982SOL     OW23899   1.266   0.045   6.881  0.4872  1.1070 -0.4943
 6982SOL    HW123900   1.335   0.060   6.945 -0.1499  0.9953  0.2271
 6982SOL    HW223901   1.187   0.031   6.933  0.0509  0.5286 -1.2871
 6983SOL     OW23902   8.133   1.168   4.945 -0.4678  0.0168  0.2432
 6983SOL    HW123903   8.228   1.178   4.954 -0.3441 -1.6189  1.0370
 6983SOL    HW223904   8.098   1.197   5.029 -0.7938  1.5605 -0.3837
 6984SOL     OW23905   2.690   1.482   3.779 -0.8729  0.2431  0.0405
 6984SOL    HW123906   2.687   1.503   3.872 -0.0728  0.8090 -0.0461
 6984SOL    HW223907   2.682   1.567   3.735  1.7520  0.3792 -0.3388
 6985SOL     OW23908   5.771   6.513   2.986  0.0589  0.3810 -0.7238
 6985SOL    HW123909   5.708   6.570   3.030  0.8405  1.2854 -0.7493
 6985SOL    HW223910   5.786   6.442   3.049  0.8334  1.4362  0.3205
 6986SOL     OW23911   3.846   5.492   3.861  0.5415  0.2109  0.1553
 6986SOL    HW123912   3.799   5.408   3.865 -2.3631  1.6094 -1.1209
 6986SOL    HW223913   3.878   5.498   3.771 -0.3361  0.9197 -0.1341
 6987SOL     OW23914   0.493   1.266   7.198  0.0641  0.1707 -0.1789
 6987SOL    HW123915   0.509   1.203   7.127  1.1179 -0.7829  0.8635
 6987SOL    HW223916   0.567   1.254   7.258  0.0676  2.1156  0.2803
 6988SOL     OW23917   0.350   4.505   5.703 -0.2195 -0.4498  0.1395
 6988SOL    HW123918   0.371   4.575   5.765  1.9052 -0.9552  0.0654
 6988SOL    HW223919   0.343   4.426   5.757 -0.0415 -0.6041 -0.0614
 6989SOL     OW23920   6.457   0.999   6.834  0.2236 -0.0564 -0.0090
 6989SOL    HW123921   6.425   0.987   6.744 -1.7841  1.5422  0.4395
 6989SOL    HW223922   6.482   1.091   6.839  0.4402 -0.1600  1.0373
 6990SOL     OW23923   7.238   5.826   5.624  0.3445 -0.1852  0.0625
 6990SOL    HW123924   7.208   5.738   5.603  1.1464  0.0416 -2.2514
 6990SOL    HW223925   7.312   5.813   5.684  0.0574 -1.0409  0.2381
 6991SOL     OW23926   1.353   4.051   2.030 -0.0393 -0.3228  0.2674
 6991SOL    HW123927   1.392   3.969   2.060  0.1006 -1.1297 -1.9329
 6991SOL    HW223928   1.261   4.029   2.013  0.3899 -0.6045 -2.0698
 6992SOL     OW23929   7.435   2.677   1.007 -0.5427 -0.2312  0.0870
 6992SOL    HW123930   7.421   2.582   1.011  2.2487 -0.7972 -1.3103
 6992SOL    HW223931   7.487   2.691   0.928 -0.0370  2.3584  0.7697
 6993SOL     OW23932   4.895   3.747   0.466 -0.1899  0.2649 -0.2648
 6993SOL    HW123933   4.923   3.838   0.471  0.5822  0.0802 -0.9456
 6993SOL    HW223934   4.975   3.697   0.482 -0.9819 -0.3457  2.2884
 6994SOL     OW23935   7.101   6.682   0.920  1.3271  0.0915  0.1570
 6994SOL    HW123936   7.167   6.718   0.981  0.5344 -0.7553  1.5712
 6994SOL    HW223937   7.074   6.600   0.960  0.2299 -0.1359 -0.9974
 6995SOL     OW23938   6.963   5.455   1.196  0.1685 -0.7529  0.0326
 6995SOL    HW123939   6.877   5.487   1.168  1.5911  1.9437 -1.6408
 6995SOL    HW223940   6.976   5.375   1.144 -1.0571 -0.8620 -0.1481
 6996SOL     OW23941   1.430   3.606   7.115 -0.5295 -0.1979 -0.5357
 6996SOL    HW123942   1.380   3.628   7.036  0.0295 -1.3395 -1.2546
 6996SOL    HW223943   1.369   3.621   7.187 -1.6918 -0.8778 -1.3265
 6997SOL     OW23944   6.075   2.195   7.596  0.3833 -0.1931 -0.0433
 6997SOL    HW123945   6.109   2.109   7.619  0.7694  0.2792  1.2199
 6997SOL    HW223946   6.012   2.178   7.526  0.9303 -1.4222 -0.2536
 6998SOL     OW23947   1.257   5.605   0.313  0.4649 -0.3336 -0.1639
 6998SOL    HW123948   1.214   5.691   0.309 -0.2271 -0.6049  0.9557
 6998SOL    HW223949   1.188   5.546   0.342  0.3876 -1.6745 -2.7752
 6999SOL     OW23950   0.896   4.161   1.046 -0.0305  0.0559  0.1765
 6999SOL    HW123951   0.873   4.116   0.965 -1.4279 -0.4334  0.8102
 6999SOL    HW223952   0.880   4.253   1.027  1.5242  0.1700 -0.6965
 7000SOL     OW23953   3.993   6.920   0.667  0.4520  0.7663 -0.1027
 7000SOL    HW123954   3.930   6.990   0.679  1.4158  1.7080 -0.4098
 7000SOL    HW223955   4.071   6.948   0.716  0.7948 -0.1673 -0.0843
 7001SOL     OW23956   0.213   1.601   6.135 -0.0933  0.1840 -0.2621
 7001SOL    HW123957   0.199   1.544   6.211 -1.5352 -0.9597 -1.3436
 7001SOL    HW223958   0.137   1.660   6.135 -0.2085  0.0399 -0.9275
 7002SOL     OW23959   6.367   2.789   0.926 -0.3649  0.1495  0.5605
 7002SOL    HW123960   6.279   2.814   0.899 -0.2210 -0.7131 -0.8207
 7002SOL    HW223961   6.419   2.793   0.846  0.3494 -1.4574  0.8934
 7003SOL     OW23962   4.841   5.524   6.761 -0.0591 -0.3285  0.5371
 7003SOL    HW123963   4.935   5.517   6.777  0.0263  1.0246  0.7294
 7003SOL    HW223964   4.832   5.596   6.699 -0.9336 -0.9006 -0.0343
 7004SOL     OW23965   7.042   5.747   0.081  0.2621  0.0300  0.0373
 7004SOL    HW123966   7.008   5.800   0.154 -1.1292 -1.5406  0.5769
 7004SOL    HW223967   7.102   5.806   0.036  0.3474  1.4062  1.8170
 7005SOL     OW23968   1.538   6.049   1.928 -0.2843  0.1647 -0.0411
 7005SOL    HW123969   1.563   6.118   1.989  1.8392  0.0119 -0.6538
 7005SOL    HW223970   1.579   6.074   1.845 -0.9613 -0.9306 -0.7339
 7006SOL     OW23971   6.653   3.406   0.670 -0.8305  0.1536  0.4597
 7006SOL    HW123972   6.689   3.456   0.596 -0.0761  0.9265  1.3227
 7006SOL    HW223973   6.636   3.319   0.634 -2.6995  1.1203 -1.2523
 7007SOL     OW23974   7.407   1.894   6.693  0.2043 -0.0689  0.3498
 7007SOL    HW123975   7.410   1.803   6.721 -1.4352 -1.2109 -2.6559
 7007SOL    HW223976   7.354   1.939   6.759 -1.7376 -2.0888  0.2923
 7008SOL     OW23977   1.462   6.873   1.462 -0.3710  0.1114 -0.3586
 7008SOL    HW123978   1.395   6.942   1.463  1.1762  1.7198  2.0624
 7008SOL    HW223979   1.506   6.884   1.378 -1.7159  0.4278 -1.0546
 7009SOL     OW23980   1.162   0.410   2.951  0.2263  0.1526 -0.4302
 7009SOL    HW123981   1.081   0.423   3.000  0.1192 -1.9860  0.0662
 7009SOL    HW223982   1.214   0.351   3.005  1.8134  0.8566 -1.1094
 7010SOL     OW23983   4.967   2.837   3.073  0.1304 -0.2245  0.1292
 7010SOL    HW123984   4.900   2.894   3.034  0.5756  0.3852  0.2390
 7010SOL    HW223985   5.026   2.897   3.118  0.8637 -0.7364 -0.1312
 7011SOL     OW23986   7.795   4.584   4.799 -0.2177  0.4291 -0.0752
 7011SOL    HW123987   7.803   4.630   4.715 -0.6587  0.6638  0.0121
 7011SOL    HW223988   7.703   4.558   4.804  0.0763 -0.6980 -0.2425
 7012SOL     OW23989   7.711   3.278   0.322 -0.4954  0.3455  0.2336
 7012SOL    HW123990   7.637   3.248   0.374 -0.0737 -0.3156  0.4727
 7012SOL    HW223991   7.680   3.276   0.232  0.2713 -3.5253 -0.1266
 7013SOL     OW23992   0.453   2.364   5.427 -0.3711  0.0243 -0.1551
 7013SOL    HW123993   0.496   2.428   5.370 -0.8074 -1.5404 -2.3935
 7013SOL    HW223994   0.512   2.289   5.429 -0.4041  0.0017  1.4730
 7014SOL     OW23995   7.025   0.596   7.466 -0.5491  0.1996  0.5258
 7014SOL    HW123996   6.968   0.595   7.389  0.7977  1.5897 -0.5136
 7014SOL    HW223997   7.017   0.684   7.501  0.7780  0.3418  0.5040
 7015SOL     OW23998   7.447   1.347   5.671 -0.0407  0.2232  0.4598
 7015SOL    HW123999   7.352   1.359   5.661  0.0805 -0.0175 -1.1916
 7015SOL    HW224000   7.484   1.434   5.652  0.1475 -0.0031 -0.2190
 7016SOL     OW24001   0.731   2.612   5.254 -0.1638 -0.3012  0.3810
 7016SOL    HW124002   0.763   2.702   5.256 -1.2086  0.0749  1.3062
 7016SOL    HW224003   0.795   2.565   5.201  0.3115  1.0189 -0.2625
 7017SOL     OW24004   3.562   4.815   6.043  0.2422  0.0975 -0.2676
 7017SOL    HW124005   3.542   4.807   6.136  1.1084  1.8489  0.1083
 7017SOL    HW224006   3.636   4.756   6.029 -0.5363 -0.9546 -0.1062
 7018SOL     OW24007   0.034   0.548   7.743  0.1158 -0.0310 -0.4824
 7018SOL    HW124008   0.119   0.534   7.784  0.5770  0.6182 -1.1958
 7018SOL    HW224009   0.025   0.643   7.739  0.6939 -0.0332 -3.1051
 7019SOL     OW24010   5.766   6.099   3.893  0.5226 -0.2059  0.1306
 7019SOL    HW124011   5.818   6.112   3.973  1.3440  0.3523 -0.4748
 7019SOL    HW224012   5.831   6.089   3.824 -0.1664  0.9720 -0.7279
 7020SOL     OW24013   0.950   8.113   1.990 -0.0367 -0.4992  0.3535
 7020SOL    HW124014   1.001   8.142   2.066 -1.1496 -1.8064  1.6742
 7020SOL    HW224015   1.015   8.080   1.928  0.9584  1.4047  0.3158
 7021SOL     OW24016   2.213   3.982   5.582 -0.5781 -0.2769 -0.0530
 7021SOL    HW124017   2.205   4.069   5.543 -1.0704 -0.4827 -0.4297
 7021SOL    HW224018   2.255   3.997   5.666 -2.5394  0.5976  0.8453
 7022SOL     OW24019   3.808   1.328   2.331  0.2077 -0.0753  0.4766
 7022SOL    HW124020   3.816   1.268   2.405  0.9346  1.2120  1.4972
 7022SOL    HW224021   3.870   1.296   2.266  1.7715  0.4504  1.6566
 7023SOL     OW24022   5.868   2.567   5.083 -0.1289 -0.0622  0.0879
 7023SOL    HW124023   5.906   2.484   5.054 -2.1116 -1.3667  0.8982
 7023SOL    HW224024   5.826   2.603   5.005 -0.7946 -0.7930  0.0824
 7024SOL     OW24025   5.161   6.645   7.530  0.2880 -0.0493  0.5238
 7024SOL    HW124026   5.078   6.689   7.510  0.2528 -0.0147  0.7517
 7024SOL    HW224027   5.208   6.645   7.446 -1.2228 -2.8389 -0.4373
 7025SOL     OW24028   5.906   1.364   1.902 -0.3562 -0.1107 -0.2635
 7025SOL    HW124029   5.901   1.454   1.936 -2.7961  0.8411 -2.7453
 7025SOL    HW224030   5.992   1.359   1.859  0.4706  0.4451  1.2523
 7026SOL     OW24031   0.739   4.272   3.618 -0.5850 -0.1625 -0.2378
 7026SOL    HW124032   0.784   4.339   3.566  2.9539 -0.6697  1.8631
 7026SOL    HW224033   0.760   4.294   3.709 -2.7344 -1.8713  0.7650
 7027SOL     OW24034   2.316   2.003   7.578 -0.3821 -0.6455 -0.6054
 7027SOL    HW124035   2.336   2.096   7.590 -1.2473 -0.7407  2.6173
 7027SOL    HW224036   2.232   2.002   7.534 -0.6425  0.1476 -0.1560
 7028SOL     OW24037   0.873   5.670   7.965 -0.0444  0.1913 -0.2932
 7028SOL    HW124038   0.860   5.715   7.881 -0.4720 -1.4574 -1.1587
 7028SOL    HW224039   0.785   5.661   8.002  0.0221 -0.0351 -0.1871
 7029SOL     OW24040   2.499   7.254   2.266 -0.0987  0.4653  0.0067
 7029SOL    HW124041   2.440   7.184   2.238  1.8951 -1.0202 -0.7765
 7029SOL    HW224042   2.488   7.260   2.360 -0.2189 -1.0425  0.1021
 7030SOL     OW24043   3.382   6.588   2.877 -0.6045 -0.0803 -0.2169
 7030SOL    HW124044   3.350   6.543   2.955  0.3052 -1.8097 -0.7989
 7030SOL    HW224045   3.305   6.596   2.820 -0.8349 -0.6594  0.0108
 7031SOL     OW24046   6.307   5.931   0.297 -0.2278  0.2145 -0.1931
 7031SOL    HW124047   6.236   5.877   0.330  0.3464 -0.8347 -0.6194
 7031SOL    HW224048   6.361   5.950   0.375  0.3009 -0.9823 -0.2432
 7032SOL     OW24049   5.181   4.675   2.487 -0.1106  0.2482  0.0921
 7032SOL    HW124050   5.096   4.660   2.446  0.7496 -1.9144 -1.0519
 7032SOL    HW224051   5.170   4.646   2.577 -0.4508 -0.5162 -0.1888
 7033SOL     OW24052   0.182   2.860   0.614  0.2596 -0.1508  0.5178
 7033SOL    HW124053   0.142   2.942   0.643  0.3409 -0.0318  0.2998
 7033SOL    HW224054   0.108   2.804   0.591  0.2181  0.1951 -0.2275
 7034SOL     OW24055   2.565   6.698   2.026 -0.3078  0.1141  0.4511
 7034SOL    HW124056   2.632   6.667   2.088  1.0715  0.8135 -0.6525
 7034SOL    HW224057   2.612   6.756   1.967 -2.3589  2.5272  1.0339
 7035SOL     OW24058   7.047   3.934   6.354  0.0473  0.3579 -0.5261
 7035SOL    HW124059   7.115   3.866   6.352  0.2356  0.5297 -0.0902
 7035SOL    HW224060   7.095   4.016   6.365 -0.1725  0.5759 -1.1995
 7036SOL     OW24061   7.152   6.482   8.102 -0.4872  0.1802  0.3872
 7036SOL    HW124062   7.084   6.515   8.043 -1.0547  3.1814  2.4675
 7036SOL    HW224063   7.234   6.496   8.055 -1.0571  0.3538 -0.5784
 7037SOL     OW24064   0.071   5.941   7.636  0.0574  0.2041  0.1737
 7037SOL    HW124065   0.142   5.965   7.576 -0.9701 -0.9628 -1.6059
 7037SOL    HW224066   0.114   5.931   7.721  1.7546  0.9514 -0.5423
 7038SOL     OW24067   5.500   8.053   6.004 -0.1256  0.2199  0.4974
 7038SOL    HW124068   5.543   7.968   6.002 -0.3206  0.0967 -1.8477
 7038SOL    HW224069   5.562   8.111   6.048  2.0711 -0.1842 -1.8326
 7039SOL     OW24070   4.073   3.722   1.738 -0.0610 -0.3871 -0.2083
 7039SOL    HW124071   4.154   3.706   1.690  0.0694  1.1062 -0.5217
 7039SOL    HW224072   4.100   3.771   1.815 -0.5425 -0.8714  0.2780
 7040SOL     OW24073   0.210   5.166   4.845 -0.3330  0.0515  0.3371
 7040SOL    HW124074   0.306   5.164   4.854 -0.3690  1.2781  1.2329
 7040SOL    HW224075   0.196   5.207   4.759 -0.0526  0.1745  0.3473
 7041SOL     OW24076   5.682   3.619   7.429  0.2425 -0.2740  0.3489
 7041SOL    HW124077   5.674   3.524   7.430 -0.4014 -0.2718 -1.3028
 7041SOL    HW224078   5.592   3.650   7.419  0.4391  0.5175  0.9712
 7042SOL     OW24079   2.578   1.381   7.644  0.2916  0.3252 -0.1717
 7042SOL    HW124080   2.598   1.446   7.712  0.1818 -1.0367  1.2328
 7042SOL    HW224081   2.483   1.383   7.636  0.1917 -0.3653  0.6509
 7043SOL     OW24082   5.640   2.398   6.356  0.2938 -0.1945 -0.3218
 7043SOL    HW124083   5.642   2.449   6.275 -0.3208 -0.9527 -0.8254
 7043SOL    HW224084   5.631   2.307   6.327  1.8101 -0.6562  0.5438
 7044SOL     OW24085   6.233   3.191   5.567 -0.4376  0.0680 -0.9305
 7044SOL    HW124086   6.267   3.223   5.483 -1.7281  0.7316 -1.2271
 7044SOL    HW224087   6.142   3.222   5.569 -0.4561 -0.0292  0.6669
 7045SOL     OW24088   2.307   0.672   1.005  0.3691 -0.0105 -0.4981
 7045SOL    HW124089   2.265   0.620   0.936 -0.7647 -0.3972  0.4533
 7045SOL    HW224090   2.287   0.763   0.981  0.2087 -0.1259 -0.8216
 7046SOL     OW24091   2.627   7.669   6.017  0.0144  0.0641  0.4894
 7046SOL    HW124092   2.650   7.639   5.929  1.4220  0.4115  0.7302
 7046SOL    HW224093   2.710   7.694   6.057 -0.7197  0.8305  1.5837
 7047SOL     OW24094   7.042   5.180   6.321  0.7886 -0.0802 -0.1678
 7047SOL    HW124095   6.989   5.113   6.277 -0.4860  0.5736  0.3146
 7047SOL    HW224096   6.984   5.256   6.329  1.6688  0.5323  0.7454
 7048SOL     OW24097   8.121   6.025   0.344 -0.1398 -0.1423 -0.3153
 7048SOL    HW124098   8.087   5.938   0.326 -0.3078 -0.5478  1.6783
 7048SOL    HW224099   8.216   6.015   0.337  0.0235 -1.1840  2.2898
 7049SOL     OW24100   0.617   6.419   5.309 -0.4500  0.0176 -0.3750
 7049SOL    HW124101   0.570   6.398   5.228 -0.3424 -0.4712 -0.3112
 7049SOL    HW224102   0.601   6.345   5.366 -0.0712  0.1116 -0.1430
 7050SOL     OW24103   3.606   0.106   3.369 -0.5698  0.1669 -0.1075
 7050SOL    HW124104   3.604   0.156   3.451  0.2910  0.4738 -0.2566
 7050SOL    HW224105   3.525   0.129   3.325 -0.6203  0.7148  0.2554
 7051SOL     OW24106   2.030   0.320   4.185 -0.3236 -0.3199 -0.0132
 7051SOL    HW124107   2.089   0.360   4.249 -0.1131 -1.8292  0.7634
 7051SOL    HW224108   1.996   0.395   4.135  0.2657  0.8115  1.2015
 7052SOL     OW24109   7.391   2.614   3.617  0.7303 -0.6928 -0.2573
 7052SOL    HW124110   7.400   2.613   3.712  1.0756  0.5125 -0.2585
 7052SOL    HW224111   7.297   2.618   3.601  0.7095  0.3503  0.0711
 7053SOL     OW24112   3.523   7.447   7.492  0.2142  0.1390 -0.9445
 7053SOL    HW124113   3.440   7.479   7.527  0.7447  1.1297 -0.5659
 7053SOL    HW224114   3.539   7.366   7.540  0.5310  1.0684  0.5739
 7054SOL     OW24115   6.413   0.358   7.272 -0.1647  0.3580  0.2534
 7054SOL    HW124116   6.383   0.299   7.203 -0.1463  1.0844 -0.3867
 7054SOL    HW224117   6.507   0.346   7.276 -0.3399 -0.8235  1.2317
 7055SOL     OW24118   3.967   2.825   7.221 -0.2507 -0.2987  0.0239
 7055SOL    HW124119   3.887   2.856   7.263  0.4897  0.9614  0.5501
 7055SOL    HW224120   3.954   2.731   7.212 -1.8437 -0.1055 -0.0288
 7056SOL     OW24121   3.596   7.228   7.641 -0.6758 -0.7288  0.6824
 7056SOL    HW124122   3.591   7.168   7.715  1.5096  2.4265  3.7183
 7056SOL    HW224123   3.689   7.227   7.615 -0.8955  0.1995 -0.2300
 7057SOL     OW24124   1.870   1.086   5.334  0.8439 -0.2288 -0.0287
 7057SOL    HW124125   1.787   1.109   5.375  0.4863 -0.5116 -0.5795
 7057SOL    HW224126   1.934   1.092   5.405  0.0088 -2.2196  0.9761
 7058SOL     OW24127   0.327   0.963   5.018 -0.0537 -0.3787  0.2560
 7058SOL    HW124128   0.253   0.942   5.075  1.5074 -0.1163  2.4637
 7058SOL    HW224129   0.308   1.052   4.986 -0.5523 -0.2033  1.0203
 7059SOL     OW24130   4.691   0.681   2.922  0.0058 -0.4039 -0.5607
 7059SOL    HW124131   4.690   0.714   2.832 -1.7294  1.7908  0.1689
 7059SOL    HW224132   4.723   0.755   2.974 -1.5311 -0.7077  0.8877
 7060SOL     OW24133   7.262   1.757   6.200  0.2441 -0.2956 -0.3413
 7060SOL    HW124134   7.335   1.818   6.200  0.3458 -0.4183 -0.2177
 7060SOL    HW224135   7.184   1.813   6.193  0.2617 -0.0558  1.1139
 7061SOL     OW24136   5.257   0.149   5.683  0.1887 -0.9459 -0.4254
 7061SOL    HW124137   5.167   0.144   5.651  0.1609 -2.3918 -0.1997
 7061SOL    HW224138   5.266   0.239   5.713 -0.5458 -0.2088 -2.2360
 7062SOL     OW24139   3.504   0.913   3.075 -0.0744  0.0929  0.3013
 7062SOL    HW124140   3.592   0.911   3.113  0.5213 -0.0270 -1.0137
 7062SOL    HW224141   3.465   0.993   3.109  0.8780  0.6159  0.2105
 7063SOL     OW24142   7.593   2.559   1.813  0.5856  0.0200 -0.2395
 7063SOL    HW124143   7.571   2.649   1.837  1.7155  0.4847 -0.8659
 7063SOL    HW224144   7.684   2.548   1.842  0.2860 -1.1027  0.3035
 7064SOL     OW24145   4.414   4.729   3.876 -0.2448  0.4568 -0.1173
 7064SOL    HW124146   4.510   4.727   3.873 -0.2500  1.2426 -1.3056
 7064SOL    HW224147   4.391   4.654   3.931  1.0706  0.9003  1.1148
 7065SOL     OW24148   4.756   3.117   7.873 -0.1252 -0.2358  0.3010
 7065SOL    HW124149   4.693   3.073   7.930  0.5055  0.2223  1.3916
 7065SOL    HW224150   4.721   3.206   7.862  0.0713 -0.1321  0.5016
 7066SOL     OW24151   8.026   3.164   2.812  0.2785 -0.3496 -0.1077
 7066SOL    HW124152   7.959   3.225   2.780 -1.5493 -1.8233  0.7136
 7066SOL    HW224153   8.040   3.189   2.903  0.6358 -0.2343 -0.1923
 7067SOL     OW24154   6.322   7.877   5.784 -0.1262  0.4332  0.2812
 7067SOL    HW124155   6.281   7.937   5.721 -1.0178  0.8171  1.2136
 7067SOL    HW224156   6.341   7.798   5.733 -3.0714 -0.2227  0.0526
 7068SOL     OW24157   6.172   2.851   1.297  0.2211 -0.2780  0.2074
 7068SOL    HW124158   6.217   2.916   1.243 -0.9359 -0.7971 -1.4670
 7068SOL    HW224159   6.095   2.897   1.330 -1.5735 -1.1647 -2.4284
 7069SOL     OW24160   1.943   4.058   1.193 -0.0159 -0.9889 -0.2538
 7069SOL    HW124161   1.938   3.990   1.125  0.8296 -3.3258  1.8690
 7069SOL    HW224162   2.002   4.022   1.258  0.3368  1.7966  1.0837
 7070SOL     OW24163   0.906   7.534   0.421  0.2023  0.0781  0.1705
 7070SOL    HW124164   0.929   7.568   0.507  1.0792 -2.1689  0.9114
 7070SOL    HW224165   0.989   7.530   0.373 -0.2166  0.9329 -0.6755
 7071SOL     OW24166   5.162   7.072   4.086  0.3157  0.3848  0.8952
 7071SOL    HW124167   5.232   7.054   4.023 -1.4936 -1.8919 -0.6753
 7071SOL    HW224168   5.108   7.137   4.042 -1.2203 -1.5637 -0.3064
 7072SOL     OW24169   3.432   5.005   3.566 -0.0832  0.5183 -0.1452
 7072SOL    HW124170   3.428   4.936   3.500 -2.9198 -0.0353  0.4284
 7072SOL    HW224171   3.495   5.068   3.532  0.7931 -1.1773 -1.8744
 7073SOL     OW24172   2.730   6.172   0.547  0.1590  0.1134  0.1530
 7073SOL    HW124173   2.639   6.145   0.556  0.6134 -1.7495 -0.4825
 7073SOL    HW224174   2.767   6.163   0.635 -0.2384  0.8230  0.3989
 7074SOL     OW24175   1.980   3.016   2.215  0.5217  0.1815  0.1563
 7074SOL    HW124176   2.042   2.948   2.190 -0.0870 -0.6883  0.9517
 7074SOL    HW224177   2.008   3.094   2.166  0.0098 -1.1482 -2.4108
 7075SOL     OW24178   5.426   6.206   3.933  0.2540 -0.4019  0.6989
 7075SOL    HW124179   5.520   6.200   3.914 -0.0995  0.1625 -1.5491
 7075SOL    HW224180   5.390   6.122   3.905 -0.1196 -0.0124 -0.0221
 7076SOL     OW24181   7.900   3.038   5.221  0.1774 -0.1691  0.0971
 7076SOL    HW124182   7.886   3.130   5.244 -0.4220 -0.3537  0.4905
 7076SOL    HW224183   7.841   3.023   5.147 -0.9069 -0.6404  1.0214
 7077SOL     OW24184   7.114   0.010   2.467 -0.7411 -0.3083 -0.0826
 7077SOL    HW124185   7.081   0.094   2.437 -0.0557 -0.2265 -0.6616
 7077SOL    HW224186   7.172   0.031   2.540 -1.4973 -0.3931  0.5410
 7078SOL     OW24187   7.250   4.815   2.608  0.4932  0.1967 -0.1939
 7078SOL    HW124188   7.282   4.830   2.697  1.5344 -0.6121 -0.4050
 7078SOL    HW224189   7.298   4.738   2.578 -0.8567 -0.3811 -0.9725
 7079SOL     OW24190   5.245   4.843   5.815 -0.2210 -0.5806  0.2094
 7079SOL    HW124191   5.182   4.812   5.750 -0.2157  0.9387 -0.5656
 7079SOL    HW224192   5.260   4.767   5.871 -0.6844 -1.7698 -1.1948
 7080SOL     OW24193   6.081   7.810   1.079  0.2092  0.2321 -0.1631
 7080SOL    HW124194   5.988   7.824   1.100  0.6854  0.8615  1.7185
 7080SOL    HW224195   6.091   7.715   1.073 -0.1686  0.0598  1.6356
 7081SOL     OW24196   7.854   1.413   7.547 -0.0652  0.1853 -0.4100
 7081SOL    HW124197   7.917   1.459   7.492 -0.6588 -0.5525 -1.7457
 7081SOL    HW224198   7.778   1.470   7.549 -0.0499  0.2042 -0.3700
 7082SOL     OW24199   1.150   7.482   7.444  0.0485  0.2583  0.3843
 7082SOL    HW124200   1.167   7.560   7.391  0.5034  1.8334  2.6777
 7082SOL    HW224201   1.059   7.460   7.425 -0.1781  1.5429 -0.1161
 7083SOL     OW24202   7.391   2.245   5.837 -0.6505 -0.4038  0.8804
 7083SOL    HW124203   7.480   2.269   5.809 -0.1277 -1.9986  1.0883
 7083SOL    HW224204   7.336   2.315   5.803  0.5090 -0.0765 -0.4379
 7084SOL     OW24205   4.192   3.645   8.077  1.3761 -0.3313  0.2587
 7084SOL    HW124206   4.157   3.717   8.129 -2.5540 -1.5418 -0.3615
 7084SOL    HW224207   4.197   3.571   8.139 -0.8367 -1.0916 -0.3691
 7085SOL     OW24208   3.660   6.144   1.854  0.0976  0.0109 -0.9328
 7085SOL    HW124209   3.647   6.098   1.936 -1.8678 -0.5012 -1.4895
 7085SOL    HW224210   3.632   6.082   1.787 -3.8397  2.2680 -1.6663
 7086SOL     OW24211   2.232   0.823   7.538 -0.3593  0.1056  0.1417
 7086SOL    HW124212   2.203   0.908   7.571 -0.9652  0.1420 -0.4742
 7086SOL    HW224213   2.284   0.787   7.610 -2.4211 -0.2317  1.5637
 7087SOL     OW24214   5.283   8.071   6.143  0.1777 -0.3941  0.2884
 7087SOL    HW124215   5.360   8.085   6.088  0.1256 -1.2929 -0.0195
 7087SOL    HW224216   5.234   8.154   6.137  1.6416  0.5985  1.3672
 7088SOL     OW24217   3.715   0.105   4.143  0.3420  0.2314  0.0545
 7088SOL    HW124218   3.646   0.154   4.099  1.3410  2.2273  0.6171
 7088SOL    HW224219   3.737   0.158   4.220 -0.4567 -2.4969  2.3391
 7089SOL     OW24220   7.460   0.735   2.656 -0.5637  0.4602 -0.5561
 7089SOL    HW124221   7.546   0.762   2.622  0.9284 -2.5980  0.3700
 7089SOL    HW224222   7.480   0.659   2.710 -4.1256 -1.5365 -1.8070
 7090SOL     OW24223   5.524   2.661   0.653  0.3389  0.5258  0.3140
 7090SOL    HW124224   5.517   2.756   0.662  0.5151  0.5493  0.1971
 7090SOL    HW224225   5.610   2.646   0.612  0.7997  0.2648  1.3266
 7091SOL     OW24226   6.665   5.156   5.624  0.2641 -0.2940  0.5231
 7091SOL    HW124227   6.627   5.071   5.605  1.0597 -0.2411 -1.5308
 7091SOL    HW224228   6.649   5.208   5.545  1.2526  0.9223  1.0853
 7092SOL     OW24229   6.089   2.367   3.548  0.1934  0.4921 -0.0417
 7092SOL    HW124230   6.002   2.401   3.566  0.6740  1.6839  0.0829
 7092SOL    HW224231   6.110   2.313   3.624 -0.5916 -0.1388 -0.2625
 7093SOL     OW24232   1.147   4.193   7.931  0.4539 -0.5479 -0.4691
 7093SOL    HW124233   1.179   4.283   7.926 -0.3815 -0.2904 -3.0337
 7093SOL    HW224234   1.217   4.145   7.975  1.3421  1.1717  0.0996
 7094SOL     OW24235   6.008   3.710   1.043 -0.2290  0.7507  0.2647
 7094SOL    HW124236   6.091   3.663   1.031  0.6418  2.2334  0.2474
 7094SOL    HW224237   5.959   3.692   0.963 -0.3666 -0.9436  0.6911
 7095SOL     OW24238   2.628   6.348   4.359  0.1794 -0.2466 -0.0465
 7095SOL    HW124239   2.597   6.380   4.443 -1.0816 -0.5235 -0.3878
 7095SOL    HW224240   2.558   6.291   4.327  1.6255 -2.0141 -0.2311
 7096SOL     OW24241   0.707   7.788   7.640 -0.2627  0.3875  0.0794
 7096SOL    HW124242   0.734   7.763   7.728  0.1058 -0.5017 -0.2760
 7096SOL    HW224243   0.634   7.730   7.619  0.6235 -0.4598 -0.7690
 7097SOL     OW24244   1.853   1.588   0.437  0.5654 -0.7469  0.1039
 7097SOL    HW124245   1.923   1.537   0.396  1.1836 -0.8644  1.2730
 7097SOL    HW224246   1.888   1.676   0.445 -0.3755 -0.1713 -1.5892
 7098SOL     OW24247   2.710   4.691   6.075 -0.3935 -0.5740 -0.1022
 7098SOL    HW124248   2.724   4.616   6.133 -0.0549  0.2394  0.8906
 7098SOL    HW224249   2.721   4.768   6.131 -2.2823  0.2143 -0.7380
 7099SOL     OW24250   5.451   6.576   4.734 -0.1166  0.1623 -0.5150
 7099SOL    HW124251   5.437   6.671   4.736  0.8409  0.3081 -0.3876
 7099SOL    HW224252   5.546   6.566   4.734 -0.2136 -0.8018 -0.5556
 7100SOL     OW24253   3.312   4.830   5.701  0.3692  0.4044 -0.1151
 7100SOL    HW124254   3.364   4.909   5.689  3.3431 -1.6196 -1.9863
 7100SOL    HW224255   3.347   4.791   5.781  1.8658 -0.9418 -1.3542
 7101SOL     OW24256   2.815   3.001   7.984  0.3575 -0.8079  0.3014
 7101SOL    HW124257   2.770   2.920   7.957  0.3861 -1.1720  1.3112
 7101SOL    HW224258   2.832   2.989   8.077 -4.4292  2.5101  1.9836
 7102SOL     OW24259   0.384   0.999   0.206  0.7228  0.7737 -0.2052
 7102SOL    HW124260   0.436   1.030   0.131 -0.7561  1.3981 -1.0240
 7102SOL    HW224261   0.335   1.077   0.234 -1.3067 -0.2135 -0.7998
 7103SOL     OW24262   4.845   6.747   5.490 -0.8426  0.4282  0.1856
 7103SOL    HW124263   4.884   6.685   5.552 -0.8914  1.5891  1.3904
 7103SOL    HW224264   4.773   6.698   5.450 -1.8300  0.1613  2.1954
 7104SOL     OW24265   4.107   5.077   7.338  0.3053 -0.1048 -0.5414
 7104SOL    HW124266   4.158   5.044   7.263 -1.6180 -0.9639 -1.5547
 7104SOL    HW224267   4.018   5.047   7.320 -0.1464 -0.7604  2.3749
 7105SOL     OW24268   4.373   2.828   2.750 -0.1731 -0.4085  0.1022
 7105SOL    HW124269   4.308   2.819   2.681  1.7368  0.0450 -1.8461
 7105SOL    HW224270   4.422   2.746   2.749 -0.3769 -0.5704  1.2472
 7106SOL     OW24271   2.772   7.593   0.476 -0.0131  0.2736  0.2291
 7106SOL    HW124272   2.695   7.547   0.510 -0.4519  0.8321  0.0131
 7106SOL    HW224273   2.841   7.575   0.539 -0.4908  0.2873  0.7623
 7107SOL     OW24274   1.704   2.266   0.663 -0.9961  0.6794 -0.4216
 7107SOL    HW124275   1.646   2.193   0.682 -1.5167  0.9861 -0.7748
 7107SOL    HW224276   1.679   2.293   0.575 -0.7581  1.2295 -0.3238
 7108SOL     OW24277   1.954   6.157   5.996 -0.1967  0.0554 -0.3098
 7108SOL    HW124278   1.978   6.146   6.088  0.7195 -1.3565 -0.6924
 7108SOL    HW224279   2.017   6.221   5.962 -1.0594  1.2190  0.2192
 7109SOL     OW24280   6.888   2.743   8.076  0.0654 -0.2856  0.1847
 7109SOL    HW124281   6.799   2.709   8.067 -0.5599  1.3057  0.0658
 7109SOL    HW224282   6.923   2.696   8.152 -1.0643 -0.5543  0.5704
 7110SOL     OW24283   1.963   3.150   3.459 -0.0578 -0.6105 -0.3945
 7110SOL    HW124284   2.049   3.110   3.472 -1.1777 -2.5852  1.7109
 7110SOL    HW224285   1.969   3.234   3.504  0.6062 -1.0246  0.3395
 7111SOL     OW24286   4.893   4.991   2.271  0.1593 -0.2959 -0.4347
 7111SOL    HW124287   4.827   4.956   2.211  0.1813 -1.2364  0.0635
 7111SOL    HW224288   4.843   5.030   2.342  0.1328 -0.4508 -0.3672
 7112SOL     OW24289   2.005   0.981   0.613 -0.1877 -0.6327  0.5361
 7112SOL    HW124290   1.996   1.042   0.687  0.0183  1.5727 -1.1441
 7112SOL    HW224291   2.091   1.002   0.576 -0.3100 -1.6506 -0.3598
 7113SOL     OW24292   0.714   2.545   7.113 -0.1369 -0.6516 -0.0926
 7113SOL    HW124293   0.700   2.549   7.208 -1.3616  2.5016 -0.2738
 7113SOL    HW224294   0.806   2.520   7.104  0.0396 -0.9120  1.9338
 7114SOL     OW24295   0.484   1.872   8.133 -0.0910  0.0969 -0.4045
 7114SOL    HW124296   0.486   1.967   8.124  1.4429  0.0401 -1.1035
 7114SOL    HW224297   0.565   1.843   8.091 -0.7547 -1.5573 -0.6125
 7115SOL     OW24298   7.863   3.355   3.212  0.2510 -0.1512 -0.2565
 7115SOL    HW124299   7.943   3.305   3.197  0.1988 -0.1099 -0.6833
 7115SOL    HW224300   7.885   3.444   3.183  0.2216 -0.0161  0.1329
 7116SOL     OW24301   6.644   0.976   3.185  0.1143  0.5126  0.0910
 7116SOL    HW124302   6.624   0.977   3.279  0.3304  0.6117  0.1356
 7116SOL    HW224303   6.653   1.068   3.161  0.6693  0.4666  0.1043
 7117SOL     OW24304   2.748   3.294   1.356  0.4703 -0.1281 -0.4825
 7117SOL    HW124305   2.763   3.371   1.412  0.7468  0.2866 -1.1136
 7117SOL    HW224306   2.797   3.224   1.398 -0.1902 -0.0891  0.3751
 7118SOL     OW24307   8.125   0.821   3.138 -0.2224  0.0021 -0.1365
 7118SOL    HW124308   8.074   0.875   3.078  0.3156  1.4276  0.6273
 7118SOL    HW224309   8.206   0.803   3.090 -0.6924 -0.7562 -0.6673
 7119SOL     OW24310   6.753   3.087   3.354 -0.6770 -0.2453 -0.9466
 7119SOL    HW124311   6.732   3.180   3.360 -0.5459 -0.1376 -2.0047
 7119SOL    HW224312   6.676   3.047   3.316 -0.5514 -0.4945 -0.9401
 7120SOL     OW24313   3.603   1.689   1.323  0.5909  0.0972 -0.2345
 7120SOL    HW124314   3.630   1.608   1.366 -1.4963  0.6228  2.3537
 7120SOL    HW224315   3.656   1.757   1.365  1.6599  0.2195 -1.7185
 7121SOL     OW24316   7.782   4.432   0.636  0.3028 -0.0762  0.0668
 7121SOL    HW124317   7.704   4.385   0.603 -0.4110  0.6156  0.7389
 7121SOL    HW224318   7.813   4.482   0.560 -0.1986  0.0250 -0.0760
 7122SOL     OW24319   2.971   5.620   4.252  0.1388 -0.3672  0.5010
 7122SOL    HW124320   2.913   5.661   4.188  0.6602  0.9700  0.8516
 7122SOL    HW224321   2.929   5.536   4.273 -1.4912  0.4195  0.5043
 7123SOL     OW24322   4.466   2.897   1.391  0.1057  0.1359 -0.7726
 7123SOL    HW124323   4.547   2.909   1.342 -0.3201 -0.0404 -1.5346
 7123SOL    HW224324   4.492   2.848   1.469  0.6648 -0.3113 -1.2359
 7124SOL     OW24325   0.721   6.072   7.962 -0.1428  0.3633  0.2568
 7124SOL    HW124326   0.807   6.089   7.999 -0.5249  0.6292  1.0439
 7124SOL    HW224327   0.721   6.116   7.877  0.4353  0.4978  0.3272
 7125SOL     OW24328   5.689   0.507   7.478  0.2019 -0.2308  0.1255
 7125SOL    HW124329   5.749   0.542   7.544  0.8001  0.9274 -0.9870
 7125SOL    HW224330   5.669   0.582   7.422 -1.6729 -0.7819 -0.0017
 7126SOL     OW24331   0.305   1.491   2.983  0.5047  0.0165  0.1561
 7126SOL    HW124332   0.287   1.478   2.890  0.5738 -0.9776  0.2727
 7126SOL    HW224333   0.220   1.485   3.026  0.7626 -2.6132  0.4741
 7127SOL     OW24334   2.378   6.428   1.799  0.1250  0.1020  0.0008
 7127SOL    HW124335   2.466   6.394   1.782  0.7232  0.7054  1.7602
 7127SOL    HW224336   2.388   6.523   1.795 -0.6698  0.1680 -0.7482
 7128SOL     OW24337   1.911   3.797   3.251 -0.6070 -0.2366  0.4401
 7128SOL    HW124338   1.941   3.759   3.169  1.5542 -0.2133  1.1647
 7128SOL    HW224339   1.960   3.879   3.259 -0.8367 -0.2088  1.7337
 7129SOL     OW24340   0.901   4.840   6.154 -0.6320 -0.4112 -0.0084
 7129SOL    HW124341   0.985   4.799   6.171 -0.4967 -0.7868 -1.5350
 7129SOL    HW224342   0.864   4.855   6.242  0.6641 -0.9403  0.6498
 7130SOL     OW24343   0.647   7.515   8.086 -0.5790 -0.1724 -0.0196
 7130SOL    HW124344   0.654   7.420   8.080 -0.1192 -0.2876  1.7772
 7130SOL    HW224345   0.672   7.535   8.176 -0.6661  1.6562 -0.3680
 7131SOL     OW24346   3.440   5.719   1.528 -0.2751  0.0859  0.2476
 7131SOL    HW124347   3.471   5.776   1.599 -0.6895  0.1845  0.3502
 7131SOL    HW224348   3.370   5.768   1.486  0.0098  0.0486 -0.2714
 7132SOL     OW24349   1.329   6.523   4.170 -0.0049  0.5776  0.3160
 7132SOL    HW124350   1.424   6.529   4.182  0.2468 -1.5896 -0.1747
 7132SOL    HW224351   1.317   6.527   4.075 -0.6406  2.7827  0.4242
 7133SOL     OW24352   4.809   2.313   3.709 -0.0302  0.3427  0.1613
 7133SOL    HW124353   4.820   2.309   3.804  0.8232  1.5844  0.1333
 7133SOL    HW224354   4.729   2.263   3.692  0.6996 -1.3099  1.3503
 7134SOL     OW24355   7.796   8.010   5.437  0.5328  0.1454  0.0898
 7134SOL    HW124356   7.747   8.015   5.519  1.2294 -1.3631  0.6261
 7134SOL    HW224357   7.739   7.963   5.377  0.4154  0.4033 -0.0047
 7135SOL     OW24358   7.104   3.693   4.347  0.1269  0.0718  0.6061
 7135SOL    HW124359   7.110   3.600   4.326 -2.8804  0.0480 -0.6432
 7135SOL    HW224360   7.099   3.695   4.443 -0.1722 -1.0927  0.6308
 7136SOL     OW24361   5.500   5.061   1.967 -0.5429 -0.4439  0.0437
 7136SOL    HW124362   5.462   5.095   1.886  0.3649 -0.1712 -0.2864
 7136SOL    HW224363   5.453   5.107   2.037 -0.1038  0.6789 -0.3757
 7137SOL     OW24364   5.961   1.074   6.230 -0.0226  0.4062 -0.0248
 7137SOL    HW124365   5.979   1.134   6.158  0.0348  0.4291  0.0090
 7137SOL    HW224366   5.907   1.005   6.191  0.5860  0.0469 -0.2515
 7138SOL     OW24367   5.366   3.612   3.560 -0.3974  0.2816  0.0221
 7138SOL    HW124368   5.361   3.530   3.609 -2.4192  0.2493 -0.1537
 7138SOL    HW224369   5.367   3.680   3.628  1.8711  0.1338  0.1837
 7139SOL     OW24370   2.766   6.463   5.664 -0.1346  0.5642  0.5126
 7139SOL    HW124371   2.844   6.451   5.719  0.6840 -0.1583 -0.7409
 7139SOL    HW224372   2.780   6.403   5.590 -0.2530  2.8407 -1.4894
 7140SOL     OW24373   6.263   0.003   4.829  0.2842  0.0514  0.3352
 7140SOL    HW124374   6.310  -0.061   4.883  0.9997  0.0204 -0.3021
 7140SOL    HW224375   6.332   0.062   4.797 -0.1518  0.1781 -0.3859
 7141SOL     OW24376   2.280   5.975   7.585  0.0919 -0.3090  0.0383
 7141SOL    HW124377   2.188   6.001   7.587 -0.3010 -1.3977 -1.5742
 7141SOL    HW224378   2.309   5.982   7.676 -0.7755  2.7368  0.1905
 7142SOL     OW24379   3.061   3.330   2.580  0.7302  0.9343  0.1320
 7142SOL    HW124380   3.014   3.299   2.503 -0.0384  1.0871  0.5255
 7142SOL    HW224381   3.136   3.272   2.588 -1.1320 -1.5039  1.3678
 7143SOL     OW24382   0.525   5.977   4.718  0.2469  0.0621 -0.0143
 7143SOL    HW124383   0.570   5.997   4.799  0.4370  0.0819 -0.1250
 7143SOL    HW224384   0.446   5.930   4.745  1.2829 -1.7356  0.0885
 7144SOL     OW24385   2.849   1.279   6.534  0.0245  0.0660  0.5925
 7144SOL    HW124386   2.888   1.360   6.500  0.8636 -0.9627 -0.9971
 7144SOL    HW224387   2.766   1.270   6.486  0.7858 -0.9160 -0.6132
 7145SOL     OW24388   1.298   5.326   7.307  0.3925  0.6106  0.4751
 7145SOL    HW124389   1.224   5.268   7.291  0.5861  0.0574  1.5151
 7145SOL    HW224390   1.375   5.271   7.294  0.5821  0.6784  1.2433
 7146SOL     OW24391   5.101   6.768   0.778  0.1196 -0.2815 -0.1205
 7146SOL    HW124392   5.154   6.846   0.761 -1.1756  0.6272 -0.1181
 7146SOL    HW224393   5.057   6.750   0.696 -1.0047  0.1017  0.3857
 7147SOL     OW24394   2.150   7.138   0.061  0.2698  0.2637  0.0547
 7147SOL    HW124395   2.074   7.098   0.019 -0.2480  0.5552  0.7021
 7147SOL    HW224396   2.224   7.108   0.008 -0.3063  0.1585 -0.7205
 7148SOL     OW24397   6.562   5.357   5.450 -0.2884  0.7559  0.1277
 7148SOL    HW124398   6.476   5.316   5.458  0.2414 -0.3967  0.0011
 7148SOL    HW224399   6.555   5.410   5.370 -0.3144 -0.8179 -0.9623
 7149SOL     OW24400   5.813   6.866   3.719 -0.1419 -0.4195 -0.2926
 7149SOL    HW124401   5.819   6.920   3.797 -1.3851 -0.9206  0.1671
 7149SOL    HW224402   5.806   6.928   3.646 -1.0537  0.0383  0.1803
 7150SOL     OW24403   7.287   2.709   0.375 -0.6947 -0.3780 -0.3305
 7150SOL    HW124404   7.302   2.801   0.397  1.2463 -0.8229  0.3800
 7150SOL    HW224405   7.218   2.682   0.435 -1.6644  0.7161 -0.8960
 7151SOL     OW24406   0.262   4.676   2.749  0.3564  0.0476  0.3831
 7151SOL    HW124407   0.227   4.672   2.660 -0.9969  1.2383  0.8099
 7151SOL    HW224408   0.274   4.769   2.765  0.2927 -0.1320  1.5389
 7152SOL     OW24409   3.262   0.630   1.592  0.5897 -0.5016 -0.5737
 7152SOL    HW124410   3.236   0.546   1.629 -0.1263  0.2314  0.6907
 7152SOL    HW224411   3.184   0.661   1.545  0.1962  0.2730  0.5462
 7153SOL     OW24412   6.399   0.342   3.699 -0.0416  0.6749  0.4368
 7153SOL    HW124413   6.337   0.386   3.640 -1.1883 -0.0215  1.0708
 7153SOL    HW224414   6.400   0.251   3.668 -0.5291  0.3413  1.3568
 7154SOL     OW24415   0.178   6.093   0.948 -0.5042 -0.3954  0.0589
 7154SOL    HW124416   0.188   6.052   1.034 -1.0633  0.0605  0.3445
 7154SOL    HW224417   0.225   6.034   0.889 -1.4618 -1.5743  0.4236
 7155SOL     OW24418   1.956   3.873   1.859  0.1138  0.3995 -0.4707
 7155SOL    HW124419   1.869   3.861   1.897 -0.0152  0.7279 -0.6531
 7155SOL    HW224420   1.998   3.938   1.916  0.3857 -0.0576 -0.1507
 7156SOL     OW24421   0.155   4.198   4.023  0.0378  0.1434 -0.3416
 7156SOL    HW124422   0.090   4.263   4.052  0.4990  0.3318  0.2913
 7156SOL    HW224423   0.197   4.169   4.104 -0.2834 -1.0859 -0.5938
 7157SOL     OW24424   4.587   0.235   2.122 -0.2992 -0.0385 -0.2849
 7157SOL    HW124425   4.606   0.201   2.209  1.7452 -1.2591 -1.1365
 7157SOL    HW224426   4.546   0.320   2.138 -1.3744 -0.8764  1.8475
 7158SOL     OW24427   2.126   7.828   6.854 -0.0454  0.0148  0.6851
 7158SOL    HW124428   2.215   7.793   6.845  0.6651  1.9872 -0.3934
 7158SOL    HW224429   2.123   7.863   6.943  1.9001  3.9348 -0.5671
 7159SOL     OW24430   0.030   4.646   4.704 -0.0825  0.0658 -0.4642
 7159SOL    HW124431  -0.053   4.694   4.701  0.4172  1.0383  0.4917
 7159SOL    HW224432   0.059   4.643   4.612 -0.8817  0.2471 -0.7298
 7160SOL     OW24433   0.471   7.606   7.903  0.6143 -0.1280 -0.1240
 7160SOL    HW124434   0.543   7.582   7.961  1.1023  1.6626  0.0703
 7160SOL    HW224435   0.392   7.587   7.954  0.9778 -0.6735  0.2500
 7161SOL     OW24436   7.056   3.747   5.713  0.8632 -0.2741  0.6518
 7161SOL    HW124437   7.041   3.802   5.790  1.5108  1.4098 -0.3595
 7161SOL    HW224438   7.150   3.727   5.716  1.1179  0.7117 -0.2416
 7162SOL     OW24439   0.599   6.135   6.398 -0.4325  0.1082  0.2778
 7162SOL    HW124440   0.639   6.137   6.485  0.9900  0.3701 -0.3557
 7162SOL    HW224441   0.563   6.223   6.386  1.1799  0.7419 -0.1839
 7163SOL     OW24442   4.106   7.484   6.659 -0.3528  0.0041 -0.0624
 7163SOL    HW124443   4.093   7.422   6.587  0.8953  1.6599 -1.7967
 7163SOL    HW224444   4.184   7.452   6.704  0.3582  0.3408 -1.0252
 7164SOL     OW24445   5.073   3.056   0.969  0.2955  0.5719  0.2801
 7164SOL    HW124446   5.005   3.086   0.908  0.0519  0.6794  0.5998
 7164SOL    HW224447   5.093   2.967   0.941 -0.6479  0.1993  0.7518
 7165SOL     OW24448   3.545   5.285   2.186 -1.1804  0.6661  0.3820
 7165SOL    HW124449   3.606   5.247   2.249 -1.9112 -2.2290 -0.5438
 7165SOL    HW224450   3.465   5.302   2.236 -1.2384 -0.1466  0.5636
 7166SOL     OW24451   6.644   0.243   5.391  0.0555  0.3158  0.1026
 7166SOL    HW124452   6.699   0.294   5.450 -1.2483  1.1835  0.6219
 7166SOL    HW224453   6.672   0.270   5.303  0.5478  0.6380  0.3518
 7167SOL     OW24454   1.723   7.437   8.117  0.0081 -0.1303  0.0669
 7167SOL    HW124455   1.674   7.437   8.035  0.7711  2.7047 -0.5136
 7167SOL    HW224456   1.668   7.389   8.179 -1.2948 -1.0188 -1.6892
 7168SOL     OW24457   6.756   3.705   3.127  0.2970  0.5458  0.3200
 7168SOL    HW124458   6.698   3.629   3.140  2.0716 -1.0341 -0.5443
 7168SOL    HW224459   6.773   3.738   3.215 -0.7148  0.1202  0.6898
 7169SOL     OW24460   6.437   5.453   7.251  0.0436 -0.4319  0.0647
 7169SOL    HW124461   6.493   5.483   7.324  2.0373  0.1074 -1.5834
 7169SOL    HW224462   6.497   5.408   7.192 -1.0831  0.8920 -2.2205
 7170SOL     OW24463   3.515   7.186   2.951  0.9430  0.2485 -0.7126
 7170SOL    HW124464   3.528   7.092   2.957 -0.7390  0.0197 -0.2889
 7170SOL    HW224465   3.545   7.220   3.035  3.7714  0.4376 -1.6836
 7171SOL     OW24466   3.157   0.925   1.569 -0.8595  0.4809 -0.2298
 7171SOL    HW124467   3.068   0.915   1.533 -0.3002  0.1252 -1.5922
 7171SOL    HW224468   3.198   0.989   1.511 -0.7218  1.9523  1.4058
 7172SOL     OW24469   7.780   6.119   7.449 -0.5736  0.0177  0.0084
 7172SOL    HW124470   7.855   6.118   7.508  0.3368 -2.0204 -1.0717
 7172SOL    HW224471   7.768   6.211   7.427 -0.4500  0.7530  2.6892
 7173SOL     OW24472   7.560   0.618   7.746 -0.5685  0.1997 -0.0437
 7173SOL    HW124473   7.504   0.632   7.669 -0.8195  1.0228  0.2844
 7173SOL    HW224474   7.598   0.531   7.732 -1.9287 -0.3737 -0.2653
 7174SOL     OW24475   6.107   1.228   6.885  0.9601  0.4896 -0.1762
 7174SOL    HW124476   6.136   1.140   6.910 -0.8647 -1.0890 -3.0805
 7174SOL    HW224477   6.148   1.285   6.950  2.4238 -2.4303  1.7297
 7175SOL     OW24478   1.843   7.589   5.809 -0.2935  0.0855  0.2351
 7175SOL    HW124479   1.809   7.649   5.742 -0.8442 -0.7641 -0.2754
 7175SOL    HW224480   1.766   7.568   5.863  0.0957  0.5758  1.0024
 7176SOL     OW24481   7.146   1.241   2.761 -0.3068  0.0153 -0.0451
 7176SOL    HW124482   7.219   1.254   2.700  0.0561 -1.4474  0.0358
 7176SOL    HW224483   7.179   1.177   2.824 -0.8092  1.2355  1.5021
 7177SOL     OW24484   6.464   5.042   1.808 -0.0462 -0.5456 -0.1009
 7177SOL    HW124485   6.557   5.028   1.790  0.3584  0.9561  0.6894
 7177SOL    HW224486   6.462   5.098   1.886 -1.5974 -0.1462 -0.3895
 7178SOL     OW24487   2.709   8.017   2.941  0.5280  0.9604  0.0079
 7178SOL    HW124488   2.738   8.041   2.853 -1.1950 -1.3328 -1.2868
 7178SOL    HW224489   2.659   7.937   2.929 -1.2170  1.4709  2.8667
 7179SOL     OW24490   7.762   5.000   6.359 -0.4060 -0.0823 -0.1372
 7179SOL    HW124491   7.808   5.070   6.313 -0.1198 -1.0375 -1.3679
 7179SOL    HW224492   7.674   5.035   6.373 -0.0566  0.7995 -0.0514
 7180SOL     OW24493   6.970   1.525   5.090  0.4512 -0.2811  0.9243
 7180SOL    HW124494   6.883   1.498   5.120  0.6791 -1.2781  0.7172
 7180SOL    HW224495   6.959   1.617   5.066 -0.5243 -0.3683  0.9818
 7181SOL     OW24496   3.129   3.547   4.036 -0.2087  0.0324 -0.1133
 7181SOL    HW124497   3.044   3.503   4.032  0.4980 -1.3166 -1.4831
 7181SOL    HW224498   3.146   3.574   3.945  1.2906 -0.6880 -0.0728
 7182SOL     OW24499   7.480   0.593   2.888 -0.0015  0.5343  0.1438
 7182SOL    HW124500   7.467   0.613   2.981  1.0937  0.9501  0.2141
 7182SOL    HW224501   7.538   0.516   2.888  0.8567  1.1702 -0.1958
 7183SOL     OW24502   6.832   0.440   0.267 -0.3088 -0.3209  0.3445
 7183SOL    HW124503   6.758   0.396   0.226 -0.1112 -1.7714  1.4620
 7183SOL    HW224504   6.794   0.515   0.312 -0.7228  0.4348 -1.1788
 7184SOL     OW24505   0.371   6.155   6.592 -0.3038 -0.6396  0.0680
 7184SOL    HW124506   0.416   6.071   6.599 -2.7623 -1.9500  1.9613
 7184SOL    HW224507   0.428   6.216   6.639  1.1532 -1.3844 -0.6614
 7185SOL     OW24508   3.690   2.213   0.301  0.0212 -0.5882 -0.0069
 7185SOL    HW124509   3.628   2.200   0.373  0.9588  2.0971  1.4408
 7185SOL    HW224510   3.661   2.292   0.257  1.2021 -0.4805 -0.6466
 7186SOL     OW24511   5.209   0.893   3.176  0.0016 -0.8258  0.0251
 7186SOL    HW124512   5.249   0.950   3.242  0.1981 -0.1847 -0.6324
 7186SOL    HW224513   5.127   0.864   3.215 -0.3930  0.4004  0.1391
 7187SOL     OW24514   0.268   6.186   6.341 -0.3918  0.1062 -0.0332
 7187SOL    HW124515   0.175   6.171   6.353 -0.1994  0.0614  1.6787
 7187SOL    HW224516   0.306   6.173   6.428  1.2709 -0.2924 -0.7755
 7188SOL     OW24517   0.751   7.058   4.280 -0.0264 -0.1319 -0.5249
 7188SOL    HW124518   0.717   6.976   4.242 -0.2952 -0.1517 -0.2467
 7188SOL    HW224519   0.710   7.127   4.228  1.6553 -0.1702 -2.0166
 7189SOL     OW24520   3.895   4.176   4.495  0.5934  0.1213  0.2491
 7189SOL    HW124521   3.906   4.153   4.403  0.1910  1.3021 -0.1086
 7189SOL    HW224522   3.872   4.269   4.494 -2.4749 -0.5309  1.3409
 7190SOL     OW24523   4.458   2.182   3.189  0.4763  0.2131 -0.2662
 7190SOL    HW124524   4.397   2.145   3.125  1.3049 -0.9761 -0.3819
 7190SOL    HW224525   4.402   2.208   3.262 -0.1545 -1.2582 -0.1922
 7191SOL     OW24526   3.317   5.852   3.389  0.0825  0.5946 -0.1745
 7191SOL    HW124527   3.222   5.864   3.386 -0.0019  0.4268  1.0910
 7191SOL    HW224528   3.331   5.764   3.356 -0.0988  0.9648 -1.2832
 7192SOL     OW24529   0.678   5.911   5.827  0.4555  0.0890  0.4256
 7192SOL    HW124530   0.719   5.864   5.899  1.5940  1.1206  0.4845
 7192SOL    HW224531   0.634   5.843   5.776 -0.0513 -0.7036  1.8598
 7193SOL     OW24532   0.757   7.620   1.587  0.1180 -0.2659 -0.2071
 7193SOL    HW124533   0.779   7.531   1.613 -0.7483 -0.1422  1.0297
 7193SOL    HW224534   0.662   7.621   1.583  0.0554  0.8596  0.8452
 7194SOL     OW24535   0.127   4.457   2.807 -0.1477  0.2689 -0.2461
 7194SOL    HW124536   0.183   4.534   2.798 -0.3865  0.2163 -3.0569
 7194SOL    HW224537   0.061   4.482   2.872  1.8560  1.0615  1.6012
 7195SOL     OW24538   4.579   4.069   0.303 -0.1105  0.0049  0.4582
 7195SOL    HW124539   4.506   4.103   0.355 -0.4117 -0.2330  0.1925
 7195SOL    HW224540   4.651   4.130   0.321  0.5593 -1.4145  3.0855
 7196SOL     OW24541   7.582   4.186   6.759  0.0507  0.4660 -0.1107
 7196SOL    HW124542   7.673   4.173   6.733 -0.2801 -0.3066 -0.9099
 7196SOL    HW224543   7.588   4.227   6.846  1.1530 -0.8033  0.4506
 7197SOL     OW24544   4.507   3.402   3.651  0.5467 -0.0972 -0.3015
 7197SOL    HW124545   4.477   3.490   3.672  1.1465  0.0381  0.0214
 7197SOL    HW224546   4.494   3.352   3.732  2.2804  0.2685  0.2542
 7198SOL     OW24547   4.772   0.312   6.387  0.0610 -0.2937 -0.0660
 7198SOL    HW124548   4.787   0.378   6.453  0.9553 -1.7358  1.2383
 7198SOL    HW224549   4.700   0.259   6.422  1.5941 -2.0405  0.6008
 7199SOL     OW24550   4.102   1.864   4.739  0.4170  1.0220 -0.2231
 7199SOL    HW124551   4.155   1.793   4.704 -1.2805 -0.4322  0.0104
 7199SOL    HW224552   4.014   1.827   4.746  0.1690  1.9016  3.4923
 7200SOL     OW24553   7.767   6.991   5.579  0.2560  0.3752 -0.4452
 7200SOL    HW124554   7.810   7.034   5.653 -1.7849  1.0741  0.3980
 7200SOL    HW224555   7.818   7.017   5.503  1.6890  0.6191  0.5670
 7201SOL     OW24556   5.350   5.030   2.572  0.7966 -0.3659  0.3359
 7201SOL    HW124557   5.356   4.992   2.484  1.0698 -0.3951  0.3665
 7201SOL    HW224558   5.433   5.076   2.584  1.0778 -1.0052  0.8796
 7202SOL     OW24559   4.328   0.408   1.731 -0.3970 -0.5555  0.0485
 7202SOL    HW124560   4.317   0.441   1.642  0.7702 -0.6623 -0.1582
 7202SOL    HW224561   4.345   0.315   1.721 -1.8112 -0.8882  0.5064
 7203SOL     OW24562   6.854   0.755   5.117  0.1911  0.0473  0.1476
 7203SOL    HW124563   6.775   0.771   5.169 -0.3273 -0.6392 -0.3990
 7203SOL    HW224564   6.830   0.781   5.028  0.1500 -1.3180 -0.2656
 7204SOL     OW24565   3.534   2.205   1.674  0.5134  0.4641 -0.1459
 7204SOL    HW124566   3.592   2.156   1.733  0.9873  0.6185 -0.4795
 7204SOL    HW224567   3.592   2.243   1.609 -0.2034 -1.5119 -2.0233
 7205SOL     OW24568   7.376   4.297   2.459 -0.2609 -0.6228  0.1616
 7205SOL    HW124569   7.470   4.303   2.443 -0.2854 -1.2546 -0.2318
 7205SOL    HW224570   7.346   4.226   2.403 -1.3648  0.9798 -1.3919
 7206SOL     OW24571   6.580   6.612   0.528  0.0625 -0.2443  0.0944
 7206SOL    HW124572   6.628   6.568   0.458 -1.5651  1.6799 -2.4164
 7206SOL    HW224573   6.640   6.677   0.562  0.7670 -0.9753  0.2696
 7207SOL     OW24574   0.792   5.791   0.910  0.6964 -0.0632  0.3942
 7207SOL    HW124575   0.775   5.885   0.906 -0.5855 -0.2321  1.2110
 7207SOL    HW224576   0.706   5.751   0.895  0.6830 -1.0295  2.7061
 7208SOL     OW24577   0.133   2.768   6.779  0.2415 -0.0217  0.1483
 7208SOL    HW124578   0.114   2.694   6.836  1.3162  1.1706  2.1522
 7208SOL    HW224579   0.047   2.799   6.751 -0.2673 -1.2438  0.3066
 7209SOL     OW24580   1.240   1.953   3.580  0.3196 -0.1418 -0.5524
 7209SOL    HW124581   1.147   1.960   3.602 -0.2986 -1.3100 -2.4607
 7209SOL    HW224582   1.282   1.929   3.662 -1.1248  0.0303  0.2798
 7210SOL     OW24583   3.487   1.568   3.250  0.3283 -0.2868 -0.0502
 7210SOL    HW124584   3.461   1.513   3.176 -1.7330 -0.4955  0.7546
 7210SOL    HW224585   3.408   1.617   3.272  0.7254 -0.5818  2.2770
 7211SOL     OW24586   4.034   4.122   6.549 -0.5795  0.3705  0.5341
 7211SOL    HW124587   3.966   4.183   6.521 -0.7537  0.0480  0.2451
 7211SOL    HW224588   4.010   4.099   6.638 -1.5931 -0.7397  0.0102
 7212SOL     OW24589   5.205   6.971   0.614 -0.0265  0.1072  0.0359
 7212SOL    HW124590   5.190   7.064   0.598 -1.4185 -0.0373  0.3068
 7212SOL    HW224591   5.291   6.953   0.576  0.0913  1.4097 -0.3675
 7213SOL     OW24592   5.868   1.115   3.063  0.8616  0.0074  0.4182
 7213SOL    HW124593   5.841   1.037   3.111 -0.4364  0.4065  0.3573
 7213SOL    HW224594   5.911   1.170   3.129 -1.3066  0.7612  1.3001
 7214SOL     OW24595   7.744   5.032   0.197 -0.1899  0.0225 -0.6928
 7214SOL    HW124596   7.761   5.117   0.155 -0.3844  1.4314  1.8951
 7214SOL    HW224597   7.805   5.029   0.271 -1.1275 -1.4750  0.0528
 7215SOL     OW24598   5.314   4.118   2.005  0.3420 -0.4216 -0.3769
 7215SOL    HW124599   5.292   4.062   2.080  0.0921 -1.6986 -1.3768
 7215SOL    HW224600   5.358   4.194   2.044  1.9211 -1.9173  0.9317
 7216SOL     OW24601   1.216   5.253   1.752 -0.3662 -0.1900 -1.1817
 7216SOL    HW124602   1.217   5.277   1.659  0.3202  1.6813 -0.7207
 7216SOL    HW224603   1.172   5.168   1.753  0.5508 -0.7608 -3.3229
 7217SOL     OW24604   4.909   3.488   4.055 -0.2102 -0.0114 -0.2397
 7217SOL    HW124605   4.860   3.490   4.137  0.2034  2.8547  0.0549
 7217SOL    HW224606   5.000   3.507   4.081  0.0411  0.2378 -1.2614
 7218SOL     OW24607   6.382   2.287   7.112  0.0593 -0.4174  0.2074
 7218SOL    HW124608   6.457   2.259   7.059 -0.7255 -0.6155 -0.8389
 7218SOL    HW224609   6.394   2.382   7.122  0.0781 -0.3353 -0.5558
 7219SOL     OW24610   6.750   3.012   4.312  0.0395  0.0333  0.3181
 7219SOL    HW124611   6.827   3.026   4.258 -1.0311 -0.8429 -1.5473
 7219SOL    HW224612   6.727   2.920   4.298  0.0468 -0.4289  2.8007
 7220SOL     OW24613   5.375   4.110   5.500  0.0042 -0.0815  0.2008
 7220SOL    HW124614   5.281   4.121   5.489  0.0831  0.6391  0.2199
 7220SOL    HW224615   5.406   4.195   5.531  0.5853 -0.4631  0.6917
 7221SOL     OW24616   8.006   2.127   4.014 -0.1654 -0.3410  0.0536
 7221SOL    HW124617   7.972   2.107   3.927  0.1789  0.3960 -0.2575
 7221SOL    HW224618   7.955   2.202   4.044  0.9051  0.5553 -0.2757
 7222SOL     OW24619   0.092   6.469   2.252  0.0073  0.0809  0.1410
 7222SOL    HW124620   0.087   6.510   2.339 -0.3759  1.3550 -0.4645
 7222SOL    HW224621   0.044   6.528   2.195 -1.2346 -1.6212 -0.6366
 7223SOL     OW24622   5.076   5.020   5.540  0.6243  0.1860 -0.1899
 7223SOL    HW124623   5.151   5.000   5.484  0.8619  0.1059  0.1590
 7223SOL    HW224624   5.072   4.948   5.602  0.8143  0.6545  0.3740
 7224SOL     OW24625   1.225   3.766   1.402 -0.0810  0.1452  0.3435
 7224SOL    HW124626   1.281   3.766   1.324 -2.4252 -0.2555 -1.4644
 7224SOL    HW224627   1.186   3.679   1.404  0.2853 -0.0278  2.3171
 7225SOL     OW24628   7.832   2.821   7.162 -0.0316 -0.0067 -0.1276
 7225SOL    HW124629   7.808   2.829   7.254 -2.0565 -1.0929 -0.4936
 7225SOL    HW224630   7.839   2.726   7.147 -2.6331 -0.0694 -1.6657
 7226SOL     OW24631   3.617   7.122   0.415 -0.8633  0.2006 -0.1406
 7226SOL    HW124632   3.522   7.127   0.411 -0.8537 -0.1022 -1.9477
 7226SOL    HW224633   3.647   7.181   0.345  0.3273  0.9691  0.9581
 7227SOL     OW24634   4.562   0.836   3.913 -0.5246 -0.4709 -0.5463
 7227SOL    HW124635   4.652   0.823   3.946 -0.1580  0.7801 -0.9892
 7227SOL    HW224636   4.574   0.862   3.822 -1.2193  1.4440 -0.1260
 7228SOL     OW24637   4.068   6.315   3.549 -0.2259  0.6844 -0.3312
 7228SOL    HW124638   4.121   6.334   3.471  0.2087  0.9745  0.0297
 7228SOL    HW224639   4.128   6.329   3.622 -0.6006  0.3023  0.0521
 7229SOL     OW24640   3.350   5.046   5.378  0.4262  0.6918  0.1951
 7229SOL    HW124641   3.289   5.060   5.450 -1.6071  0.1791 -1.3502
 7229SOL    HW224642   3.390   4.961   5.396  1.5537  1.4968  1.7629
 7230SOL     OW24643   7.594   0.371   3.677  0.4471 -0.1958  0.1975
 7230SOL    HW124644   7.639   0.341   3.599  1.0046  0.2412  0.3377
 7230SOL    HW224645   7.659   0.425   3.723 -0.2974  0.6731  0.2738
 7231SOL     OW24646   5.771   2.662   7.189  0.2582  0.0032  0.5056
 7231SOL    HW124647   5.781   2.709   7.272  0.7406  0.0919  0.4029
 7231SOL    HW224648   5.772   2.570   7.213  0.7538  0.0222  0.5663
 7232SOL     OW24649   3.402   5.538   1.331  0.2879  0.5530  0.5272
 7232SOL    HW124650   3.422   5.580   1.414  2.0117 -0.3791  0.6309
 7232SOL    HW224651   3.319   5.492   1.346  1.1784 -0.6005  2.1328
 7233SOL     OW24652   5.395   6.714   3.950  0.2787 -0.0562 -0.3179
 7233SOL    HW124653   5.309   6.672   3.955 -0.1533  0.9287  0.8789
 7233SOL    HW224654   5.452   6.646   3.914 -1.2812 -0.2709 -2.6352
 7234SOL     OW24655   6.374   6.523   6.824  0.0158  0.0651 -0.8952
 7234SOL    HW124656   6.399   6.444   6.777 -0.4698 -0.4192 -0.3601
 7234SOL    HW224657   6.454   6.575   6.829  0.4670 -0.6350 -0.7796
 7235SOL     OW24658   3.259   4.449   7.852  0.3910 -0.1330 -0.2443
 7235SOL    HW124659   3.177   4.429   7.808  1.4209 -0.0475 -2.3254
 7235SOL    HW224660   3.293   4.525   7.806  1.2528  0.3707  1.1464
 7236SOL     OW24661   7.254   3.148   7.848 -0.0983  0.2720  0.1728
 7236SOL    HW124662   7.186   3.165   7.783 -0.4601  0.2788  0.5538
 7236SOL    HW224663   7.212   3.091   7.913 -0.3439  1.8583  1.4606
 7237SOL     OW24664   2.464   3.193   5.202  0.0252 -0.0344  0.4007
 7237SOL    HW124665   2.460   3.236   5.116 -0.3534  1.2396  1.0394
 7237SOL    HW224666   2.502   3.258   5.260  1.0466 -1.1778  1.0550
 7238SOL     OW24667   1.805   7.129   4.925  0.4671  0.6475 -0.2747
 7238SOL    HW124668   1.792   7.117   4.831  0.0851  0.0562 -0.1546
 7238SOL    HW224669   1.796   7.040   4.961  0.6815  0.8623  0.3066
 7239SOL     OW24670   7.069   3.151   3.899  0.3066  0.4548  0.4859
 7239SOL    HW124671   7.069   3.247   3.904 -0.7663  0.4958  0.1265
 7239SOL    HW224672   6.985   3.130   3.857  1.0574 -0.5936 -0.5470
 7240SOL     OW24673   6.445   4.074   2.328 -0.1752  0.0072  0.4033
 7240SOL    HW124674   6.438   4.087   2.423 -1.6985 -0.5895  0.3945
 7240SOL    HW224675   6.511   4.139   2.300 -0.4161  0.8582  1.7247
 7241SOL     OW24676   4.205   7.264   7.408 -0.1181 -0.2958 -0.5930
 7241SOL    HW124677   4.209   7.334   7.342  0.8339  0.1366 -0.0973
 7241SOL    HW224678   4.295   7.232   7.413  0.4173  1.2945  2.2023
 7242SOL     OW24679   3.884   7.997   1.500  0.2958  0.0161 -0.0762
 7242SOL    HW124680   3.946   7.960   1.563 -2.6453 -1.8531  1.9691
 7242SOL    HW224681   3.868   8.086   1.532  1.3064  0.2473 -0.1836
 7243SOL     OW24682   1.192   5.428   5.777 -0.3639 -0.1208  0.6717
 7243SOL    HW124683   1.249   5.380   5.716  0.1986  2.2827 -0.7937
 7243SOL    HW224684   1.122   5.365   5.798  1.3278 -2.2336  0.3999
 7244SOL     OW24685   4.848   5.290   1.428  0.1516 -0.1560 -0.2954
 7244SOL    HW124686   4.782   5.262   1.365 -0.9168  1.1123  0.2060
 7244SOL    HW224687   4.931   5.281   1.382 -0.5166 -0.2394 -1.5200
 7245SOL     OW24688   3.929   5.902   0.035  0.5682 -0.1686  0.1617
 7245SOL    HW124689   3.887   5.845   0.099  0.9313 -0.0894  0.4762
 7245SOL    HW224690   3.966   5.843  -0.030 -1.3025 -0.1934 -0.9436
 7246SOL     OW24691   4.456   1.568   1.043  0.9554 -0.1452  0.7241
 7246SOL    HW124692   4.507   1.636   1.088  1.6160 -1.3028  1.7737
 7246SOL    HW224693   4.392   1.617   0.993  0.9841  1.2632  1.9712
 7247SOL     OW24694   5.622   7.787   1.531 -0.3253 -0.5435  0.0955
 7247SOL    HW124695   5.647   7.738   1.453 -0.1687 -0.4959  0.1166
 7247SOL    HW224696   5.618   7.879   1.502  0.4606 -0.4347  0.3218
 7248SOL     OW24697   2.894   7.638   2.933  0.6993  0.0975  0.2539
 7248SOL    HW124698   2.929   7.726   2.951  0.3840  0.3491 -0.3361
 7248SOL    HW224699   2.922   7.619   2.844 -1.6506  0.8174 -0.7031
 7249SOL     OW24700   7.399   1.718   7.540  0.1141  0.3577  0.5165
 7249SOL    HW124701   7.410   1.648   7.475 -1.9625  0.6378 -0.1938
 7249SOL    HW224702   7.311   1.706   7.574  1.3009 -0.0927  3.7760
 7250SOL     OW24703   2.169   4.232   5.470  0.1462  0.1183  0.2931
 7250SOL    HW124704   2.077   4.215   5.449  0.5334 -0.9058 -0.7166
 7250SOL    HW224705   2.202   4.283   5.396  0.2702  0.9056  0.8884
 7251SOL     OW24706   0.534   3.655   5.700  0.2716  0.2220  0.2291
 7251SOL    HW124707   0.534   3.645   5.795 -2.0652  0.9194  0.3785
 7251SOL    HW224708   0.592   3.730   5.683  0.8831 -0.0503  1.0739
 7252SOL     OW24709   4.290   3.215   0.350  0.4313  0.1366 -0.7778
 7252SOL    HW124710   4.204   3.179   0.326  1.2344 -1.4851 -1.3529
 7252SOL    HW224711   4.292   3.210   0.446 -0.4066  0.9562 -0.6941
 7253SOL     OW24712   5.196   5.607   3.761 -0.5833 -0.1069  0.5826
 7253SOL    HW124713   5.106   5.600   3.729 -0.7277 -0.6348  1.0779
 7253SOL    HW224714   5.241   5.661   3.696 -1.4319  0.7560  0.6834
 7254SOL     OW24715   2.506   5.945   4.352 -0.4274 -0.0773  0.8392
 7254SOL    HW124716   2.490   5.909   4.265  0.4462  0.9231  0.2300
 7254SOL    HW224717   2.475   6.035   4.347  0.4329  0.2618  1.2646
 7255SOL     OW24718   5.728   2.085   0.973  0.4484 -0.1152  0.1125
 7255SOL    HW124719   5.784   2.157   1.001  1.0994 -0.3852 -0.4560
 7255SOL    HW224720   5.787   2.025   0.927 -0.3967 -0.1788 -0.9179
 7256SOL     OW24721   1.448   6.927   0.266 -0.1466 -0.6507 -0.4838
 7256SOL    HW124722   1.398   6.914   0.347 -0.8960  1.9712 -0.4324
 7256SOL    HW224723   1.539   6.913   0.292 -0.4750 -1.0119  0.5350
 7257SOL     OW24724   2.090   4.288   0.958  0.5004  0.2399  0.2472
 7257SOL    HW124725   2.108   4.197   0.933  0.0872  0.0215  0.7250
 7257SOL    HW224726   2.109   4.339   0.879 -0.9682 -0.4651 -0.6070
 7258SOL     OW24727   0.643   3.849   2.986 -0.5097  0.2905  0.0881
 7258SOL    HW124728   0.618   3.853   2.894 -0.3055 -0.9353 -0.0389
 7258SOL    HW224729   0.703   3.922   2.998  0.2175 -0.0911 -1.0078
 7259SOL     OW24730   0.493   4.790   6.100  0.5382 -0.4203 -0.4397
 7259SOL    HW124731   0.544   4.866   6.073 -0.4627 -0.0807 -1.4264
 7259SOL    HW224732   0.437   4.823   6.170  0.9729 -0.5658 -0.0134
 7260SOL     OW24733   8.001   2.017   5.675  0.1451 -0.0029  0.6754
 7260SOL    HW124734   7.994   2.035   5.581 -0.2835  0.2450  0.7544
 7260SOL    HW224735   8.023   1.923   5.679  1.1915  0.2080  0.3040
 7261SOL     OW24736   6.307   0.308   6.208  0.5822 -0.3157  0.3652
 7261SOL    HW124737   6.332   0.239   6.270  0.1996  0.1740  1.0701
 7261SOL    HW224738   6.236   0.269   6.156  0.4775 -0.5082  0.6540
 7262SOL     OW24739   1.442   4.023   6.115 -0.3779 -0.2459  0.1675
 7262SOL    HW124740   1.462   4.047   6.206 -3.1791  0.4486  0.7005
 7262SOL    HW224741   1.473   4.098   6.064 -2.6791  1.4447  1.0838
 7263SOL     OW24742   1.011   3.934   6.027 -0.2343 -0.3173 -0.8342
 7263SOL    HW124743   1.054   3.992   6.090 -0.5904 -1.1554  0.2111
 7263SOL    HW224744   0.963   3.993   5.969  0.6245  0.5056 -0.7296
 7264SOL     OW24745   5.480   7.081   4.802 -0.1463  0.2702 -0.0986
 7264SOL    HW124746   5.444   7.095   4.890  1.2741 -1.2014  0.7695
 7264SOL    HW224747   5.459   6.990   4.782 -1.9656  1.0445 -2.0790
 7265SOL     OW24748   4.050   5.133   6.047 -0.5300  0.4606  0.4959
 7265SOL    HW124749   4.055   5.043   6.017 -0.7342  0.8154 -0.6536
 7265SOL    HW224750   4.076   5.130   6.139  0.2273 -0.6535  0.2551
 7266SOL     OW24751   0.908   1.159   4.440 -0.6972 -0.7552  0.1981
 7266SOL    HW124752   0.875   1.070   4.438 -3.7643  0.2480 -2.0163
 7266SOL    HW224753   0.862   1.201   4.513 -0.4197 -0.5742  0.2756
 7267SOL     OW24754   5.723   0.840   5.958  0.1977  0.3815  0.4740
 7267SOL    HW124755   5.709   0.746   5.967  0.1624  0.2886 -0.4550
 7267SOL    HW224756   5.645   0.879   5.997 -0.6240 -0.0321 -0.6858
 7268SOL     OW24757   2.852   8.124   3.925  0.1649  0.4652 -0.0357
 7268SOL    HW124758   2.763   8.153   3.906  0.4108  0.6987 -0.8871
 7268SOL    HW224759   2.857   8.037   3.885  0.2619  0.3776  0.1683
 7269SOL     OW24760   0.735   4.490   4.771  0.1383 -0.7057 -0.1471
 7269SOL    HW124761   0.801   4.477   4.839 -0.6752 -0.7288  0.6687
 7269SOL    HW224762   0.698   4.576   4.790 -0.2081 -0.7840 -0.4618
 7270SOL     OW24763   3.114   0.129   7.166 -0.4514  0.1789 -0.4024
 7270SOL    HW124764   3.106   0.035   7.182 -0.7508  0.1535 -0.6820
 7270SOL    HW224765   3.186   0.158   7.222  0.5529 -0.4681 -1.3222
 7271SOL     OW24766   3.510   1.413   5.139 -0.1506  0.3491  0.1476
 7271SOL    HW124767   3.598   1.375   5.143  0.4584  1.6473 -0.4594
 7271SOL    HW224768   3.523   1.505   5.163 -0.9340  1.1553 -2.3154
 7272SOL     OW24769   4.622   2.928   6.233  0.5246  0.9486 -0.5094
 7272SOL    HW124770   4.659   3.005   6.275  0.5547  0.5426  0.2176
 7272SOL    HW224771   4.533   2.954   6.210 -0.4035  0.4034  2.1035
 7273SOL     OW24772   4.914   8.077   4.302 -0.1544  0.1980  0.0236
 7273SOL    HW124773   4.847   8.095   4.368 -1.1269 -0.2781 -0.7920
 7273SOL    HW224774   4.870   8.094   4.219  0.4316 -1.0852 -0.5705
 7274SOL     OW24775   2.506   4.739   5.750 -0.5028  0.5232 -0.1137
 7274SOL    HW124776   2.554   4.784   5.820 -1.3305  0.8798  0.2420
 7274SOL    HW224777   2.461   4.810   5.703 -0.7772  0.1919 -0.3529
 7275SOL     OW24778   3.876   0.733   0.942  0.1168  0.4673 -0.7060
 7275SOL    HW124779   3.961   0.712   0.982 -0.1347  0.1814 -0.3179
 7275SOL    HW224780   3.825   0.769   1.015  0.3990  2.0441 -1.2517
 7276SOL     OW24781   3.219   7.892   4.668  0.4874  0.4283 -0.3048
 7276SOL    HW124782   3.187   7.810   4.631 -0.7202 -0.0058  1.5631
 7276SOL    HW224783   3.154   7.957   4.641 -0.3813  0.1151  0.9021
 7277SOL     OW24784   0.310   7.410   7.592  0.1912  0.0399 -0.1815
 7277SOL    HW124785   0.313   7.441   7.682  0.8475 -2.1891  0.6362
 7277SOL    HW224786   0.369   7.334   7.591 -0.9022 -0.8594 -2.1164
 7278SOL     OW24787   7.845   4.569   5.934  0.5566  0.1113 -0.0308
 7278SOL    HW124788   7.870   4.652   5.975  0.9828 -0.2471  0.4457
 7278SOL    HW224789   7.882   4.574   5.846  1.4390  0.0128  0.3276
 7279SOL     OW24790   1.707   0.441   7.123 -0.0746  0.1738 -0.0130
 7279SOL    HW124791   1.751   0.510   7.173  1.6702 -0.8281 -0.0568
 7279SOL    HW224792   1.742   0.450   7.035  0.1513 -0.7216 -0.0236
 7280SOL     OW24793   2.097   1.314   0.506  0.1257 -0.3742  0.3958
 7280SOL    HW124794   2.175   1.337   0.456 -0.3360 -0.3731 -0.3359
 7280SOL    HW224795   2.024   1.333   0.447 -0.4594  0.1536  1.2692
 7281SOL     OW24796   3.053   4.516   7.657  0.2552 -0.1819 -0.7573
 7281SOL    HW124797   2.966   4.553   7.671 -0.4060 -1.6351 -0.8521
 7281SOL    HW224798   3.113   4.590   7.666 -0.8782  0.6001  0.6553
 7282SOL     OW24799   3.895   1.511   4.639  0.0049  0.3340  0.2467
 7282SOL    HW124800   3.971   1.471   4.599  0.3768  1.7796 -0.5799
 7282SOL    HW224801   3.840   1.438   4.666  0.9731 -0.7111 -0.5311
 7283SOL     OW24802   6.656   3.997   7.545  0.1683 -0.6212 -0.2763
 7283SOL    HW124803   6.618   4.082   7.524  0.6978 -0.4123 -0.4001
 7283SOL    HW224804   6.603   3.934   7.496 -0.6487 -0.4372  0.3296
 7284SOL     OW24805   7.197   3.029   6.288 -0.3115 -0.0733  0.1625
 7284SOL    HW124806   7.275   3.042   6.234 -0.1587 -0.4927  0.2728
 7284SOL    HW224807   7.160   3.117   6.299 -1.3184 -0.1797 -2.0226
 7285SOL     OW24808   6.825   6.310   3.311 -0.3781  0.1123 -0.6180
 7285SOL    HW124809   6.838   6.327   3.217  0.6983  0.9478 -0.3312
 7285SOL    HW224810   6.742   6.262   3.315  0.6269 -1.9012 -2.2000
 7286SOL     OW24811   7.071   6.885   1.635  0.6950  0.2825  0.1005
 7286SOL    HW124812   7.042   6.794   1.641  2.9301 -0.6839 -2.2101
 7286SOL    HW224813   6.991   6.935   1.624 -0.5760 -1.4063  1.2083
 7287SOL     OW24814   0.949   5.815   3.690 -0.5266  0.0463 -0.5918
 7287SOL    HW124815   0.970   5.742   3.749 -0.5505 -0.8643 -1.6884
 7287SOL    HW224816   1.034   5.849   3.663 -0.5177  0.1945 -0.3897
 7288SOL     OW24817   4.421   3.452   7.509 -0.0008 -0.6631  0.2135
 7288SOL    HW124818   4.374   3.440   7.592  0.4748 -1.8441  0.3329
 7288SOL    HW224819   4.370   3.401   7.445  0.9814 -1.8284  0.3129
 7289SOL     OW24820   4.829   3.943   4.380 -0.1236  0.4247 -0.1702
 7289SOL    HW124821   4.869   4.016   4.333  0.0554  0.2849 -0.2339
 7289SOL    HW224822   4.877   3.939   4.463  1.0410 -0.7117 -0.8628
 7290SOL     OW24823   6.787   6.139   1.679 -0.2849  0.2812 -0.4770
 7290SOL    HW124824   6.872   6.183   1.680 -0.3983  0.5271  0.9326
 7290SOL    HW224825   6.741   6.176   1.754 -1.1535 -0.7785 -0.4688
 7291SOL     OW24826   0.283   7.630   3.341  0.3702 -0.1634 -0.3426
 7291SOL    HW124827   0.226   7.594   3.409 -0.2655  0.9498 -0.2634
 7291SOL    HW224828   0.366   7.647   3.386  0.1708 -0.0573 -0.0096
 7292SOL     OW24829   0.547   2.021   4.040 -0.3441  0.1813 -0.2080
 7292SOL    HW124830   0.473   2.081   4.052 -0.3036  0.2901 -0.4885
 7292SOL    HW224831   0.621   2.079   4.019  0.1025  0.1847  1.2300
 7293SOL     OW24832   1.687   0.212   3.677 -0.2304 -0.0855 -0.1984
 7293SOL    HW124833   1.769   0.245   3.713 -0.1074 -0.5763 -0.0208
 7293SOL    HW224834   1.684   0.120   3.705 -1.0960  0.0735  0.2519
 7294SOL     OW24835   7.813   3.087   3.068 -0.3875 -0.4164  0.0805
 7294SOL    HW124836   7.725   3.118   3.047 -0.9508 -2.5491 -1.1306
 7294SOL    HW224837   7.857   3.162   3.107 -3.0228  0.4665  1.6085
 7295SOL     OW24838   2.418   6.227   6.446  0.1791  0.4353  0.1854
 7295SOL    HW124839   2.364   6.148   6.438  0.7382  0.2469 -3.0138
 7295SOL    HW224840   2.367   6.296   6.404  1.9252  0.4367 -2.1421
 7296SOL     OW24841   3.501   4.349   7.016  0.4137 -0.1447  0.0308
 7296SOL    HW124842   3.434   4.309   6.960 -1.5037  1.1790  1.2337
 7296SOL    HW224843   3.454   4.372   7.096  2.1952  1.4108  0.7023
 7297SOL     OW24844   5.134   0.941   2.142  0.0389  0.3940 -0.4735
 7297SOL    HW124845   5.123   0.846   2.130 -0.9284  0.4468 -0.1092
 7297SOL    HW224846   5.227   0.952   2.161  0.0996 -0.5309 -0.1573
 7298SOL     OW24847   7.829   3.011   6.160  0.2006 -0.2755 -0.0986
 7298SOL    HW124848   7.809   2.920   6.139 -2.6212  0.7382 -2.4800
 7298SOL    HW224849   7.917   3.026   6.125  0.0601 -1.6730 -1.1049
 7299SOL     OW24850   6.365   4.151   7.783  0.0945  0.2154 -0.1094
 7299SOL    HW124851   6.415   4.171   7.863  2.1198 -4.7660  0.1767
 7299SOL    HW224852   6.421   4.182   7.712  0.6806  0.1153  0.3017
 7300SOL     OW24853   8.025   5.615   6.692  0.1236 -0.6299 -0.0098
 7300SOL    HW124854   7.973   5.539   6.667 -0.0867 -1.2937  2.2050
 7300SOL    HW224855   8.065   5.645   6.610 -1.2682 -1.9740 -1.2446
 7301SOL     OW24856   4.175   6.682   5.630 -0.5780  0.8215  0.3221
 7301SOL    HW124857   4.212   6.597   5.651 -0.7097  0.9381  1.0429
 7301SOL    HW224858   4.082   6.674   5.650 -0.2319  1.8212  2.6786
 7302SOL     OW24859   3.034   2.732   2.634  0.0027 -0.1061 -0.2057
 7302SOL    HW124860   3.067   2.821   2.645  0.5270 -0.5305  2.2810
 7302SOL    HW224861   3.101   2.677   2.674 -1.1556 -1.4718 -0.0802
 7303SOL     OW24862   2.997   0.688   1.512  0.1673  0.3031  0.1475
 7303SOL    HW124863   2.966   0.606   1.475  1.3162  0.5690 -1.5517
 7303SOL    HW224864   2.927   0.717   1.571 -1.8449 -0.1056 -1.9298
 7304SOL     OW24865   4.531   1.877   5.299 -0.3819  0.6782  0.5977
 7304SOL    HW124866   4.585   1.813   5.344 -0.8420 -0.3801 -0.2957
 7304SOL    HW224867   4.541   1.958   5.349  3.0088  0.8938 -0.2130
 7305SOL     OW24868   4.452   2.034   0.612 -0.3493  0.0340  0.0957
 7305SOL    HW124869   4.529   2.007   0.661 -0.0755  2.0231  0.8423
 7305SOL    HW224870   4.394   2.072   0.677 -1.9724 -1.3163 -0.4643
 7306SOL     OW24871   3.115   3.205   7.750 -0.0344  0.2873 -0.0724
 7306SOL    HW124872   3.153   3.200   7.838  0.6759  1.7700 -0.2605
 7306SOL    HW224873   3.022   3.224   7.765  0.6121  3.6974  0.4419
 7307SOL     OW24874   8.122   7.387   6.949  0.4957  0.4908 -0.1712
 7307SOL    HW124875   8.075   7.470   6.943 -1.4197 -0.6220 -2.0516
 7307SOL    HW224876   8.151   7.370   6.859  0.2307 -1.1853  0.0373
 7308SOL     OW24877   5.211   3.421   5.550 -0.1039 -0.7370 -0.2734
 7308SOL    HW124878   5.231   3.484   5.620  0.8220 -0.9315 -0.3538
 7308SOL    HW224879   5.171   3.347   5.596  0.8982 -1.0462  0.1142
 7309SOL     OW24880   1.311   4.621   1.262 -0.1866 -0.5648 -0.8807
 7309SOL    HW124881   1.229   4.646   1.304  0.8325  1.1619  0.2055
 7309SOL    HW224882   1.347   4.553   1.320  1.3706  2.0262  1.5041
 7310SOL     OW24883   4.499   1.166   6.736  0.3329 -0.2724  0.4458
 7310SOL    HW124884   4.581   1.118   6.725  1.1439  1.2871 -0.8613
 7310SOL    HW224885   4.438   1.125   6.674  0.6392 -0.3954  0.2241
 7311SOL     OW24886   2.320   1.303   1.565 -0.0953 -0.2822 -0.5045
 7311SOL    HW124887   2.311   1.390   1.603  1.4783 -0.5283  0.5307
 7311SOL    HW224888   2.316   1.243   1.640  2.9206 -0.7900 -0.6384
 7312SOL     OW24889   1.003   5.904   4.657  0.0108  0.1276  0.3750
 7312SOL    HW124890   0.964   5.859   4.732  1.9983  2.3773  2.9221
 7312SOL    HW224891   0.938   5.970   4.632 -2.2241 -2.7580 -2.3894
 7313SOL     OW24892   6.995   6.571   4.171 -0.0378 -0.2311 -0.4471
 7313SOL    HW124893   6.910   6.541   4.204  0.4392 -3.0768 -1.5300
 7313SOL    HW224894   7.038   6.608   4.247 -1.1076 -1.5044  0.8460
 7314SOL     OW24895   5.515   6.946   3.038  0.4709  0.3195 -0.1083
 7314SOL    HW124896   5.527   6.964   2.945  1.0963 -1.2613 -0.3645
 7314SOL    HW224897   5.557   7.019   3.083 -0.6880  1.6191 -1.0308
 7315SOL     OW24898   2.776   5.063   5.862 -0.0495 -0.6907 -0.0938
 7315SOL    HW124899   2.862   5.024   5.846 -0.0242 -1.1243  1.0321
 7315SOL    HW224900   2.732   5.003   5.922 -1.0461 -0.3434 -0.4550
 7316SOL     OW24901   4.806   1.195   3.709  0.0338 -0.4662  0.0930
 7316SOL    HW124902   4.834   1.166   3.796  1.2006  0.5440  0.0760
 7316SOL    HW224903   4.887   1.219   3.664 -0.6503  0.1523 -0.8610
 7317SOL     OW24904   6.998   1.829   7.295 -0.1901  0.3001  0.7117
 7317SOL    HW124905   7.047   1.750   7.273 -1.5867 -0.2904 -0.4410
 7317SOL    HW224906   6.983   1.822   7.390  0.0500 -0.6087  0.6934
 7318SOL     OW24907   2.889   2.610   5.346 -0.2681 -0.2746 -0.2414
 7318SOL    HW124908   2.832   2.604   5.270  0.6959 -1.0000 -0.9178
 7318SOL    HW224909   2.848   2.553   5.411  0.5519 -2.1722 -1.3116
 7319SOL     OW24910   6.777   7.363   0.863 -0.8012 -0.1937 -0.1106
 7319SOL    HW124911   6.749   7.422   0.793  0.5229  1.9283  1.0571
 7319SOL    HW224912   6.703   7.361   0.924 -1.6287 -1.4003 -1.0826
 7320SOL     OW24913   6.690   1.419   1.807 -0.4976 -0.3234 -0.1686
 7320SOL    HW124914   6.606   1.435   1.765 -0.3078  1.3076  0.0176
 7320SOL    HW224915   6.755   1.432   1.738 -0.3464 -0.7585 -0.1131
 7321SOL     OW24916   3.059   3.227   4.569  0.1172 -0.4178  0.0058
 7321SOL    HW124917   3.107   3.234   4.486  0.6246 -0.1090  0.3220
 7321SOL    HW224918   3.014   3.311   4.578  2.5746  0.8410  1.5662
 7322SOL     OW24919   7.019   1.728   4.820  0.4800 -0.0264  0.7772
 7322SOL    HW124920   7.106   1.768   4.820  0.1161  0.8078  0.0712
 7322SOL    HW224921   7.036   1.634   4.824  1.4346  0.1065  0.2562
 7323SOL     OW24922   4.079   0.747   7.504 -0.7004 -0.4935  0.8720
 7323SOL    HW124923   4.103   0.800   7.428  0.2024 -1.2486  0.6144
 7323SOL    HW224924   3.988   0.721   7.487 -0.9339  0.4006  0.6851
 7324SOL     OW24925   4.579   5.558   4.511 -0.1780  0.4823  0.3058
 7324SOL    HW124926   4.673   5.542   4.519 -0.1758  0.2010 -0.2203
 7324SOL    HW224927   4.572   5.621   4.438 -0.5438 -1.3682 -1.3388
 7325SOL     OW24928   4.644   7.384   5.951  0.0717 -0.2121 -0.0158
 7325SOL    HW124929   4.611   7.316   5.893  0.0533 -0.2064 -0.0121
 7325SOL    HW224930   4.656   7.460   5.894 -0.2262 -0.1198  0.0451
 7326SOL     OW24931   8.103   3.454   2.645 -0.6671  0.2357  0.0625
 7326SOL    HW124932   8.093   3.447   2.549  1.8618  0.0314 -0.2487
 7326SOL    HW224933   8.027   3.504   2.673 -0.6165  1.7980 -2.2875
 7327SOL     OW24934   4.816   2.578   3.162  0.6076  0.0688 -0.4086
 7327SOL    HW124935   4.893   2.521   3.162 -1.5881 -3.2594  1.6687
 7327SOL    HW224936   4.748   2.527   3.118 -0.8993  2.2105 -0.7266
 7328SOL     OW24937   5.720   2.479   3.193  0.0016 -0.0830  0.0612
 7328SOL    HW124938   5.772   2.418   3.244  0.3042 -0.5709 -0.8130
 7328SOL    HW224939   5.783   2.544   3.161  0.0919 -0.6531 -0.9672
 7329SOL     OW24940   1.988   6.414   3.825 -0.0608  0.5961  0.0065
 7329SOL    HW124941   1.950   6.434   3.739  0.6640 -1.8272 -0.9553
 7329SOL    HW224942   2.071   6.461   3.826 -0.0538  0.6104 -0.6307
 7330SOL     OW24943   7.346   0.286   6.502  0.1287 -0.2379  0.5338
 7330SOL    HW124944   7.352   0.226   6.428 -0.2401  0.3154  0.0411
 7330SOL    HW224945   7.265   0.335   6.486  0.3320  0.2636  1.0120
 7331SOL     OW24946   8.054   8.031   1.743  0.3841 -0.4689 -0.1840
 7331SOL    HW124947   8.130   8.087   1.729 -0.7262  1.2831  0.4171
 7331SOL    HW224948   7.998   8.081   1.802 -1.0322 -1.9015 -0.2426
 7332SOL     OW24949   1.659   0.845   0.962  0.0712 -0.4676  0.3262
 7332SOL    HW124950   1.747   0.839   0.924  0.2209 -0.3563  0.6514
 7332SOL    HW224951   1.614   0.909   0.907  0.7667  0.8341  1.2340
 7333SOL     OW24952   0.956   1.488   3.561 -0.3587  0.8237 -0.4949
 7333SOL    HW124953   0.911   1.404   3.567  1.2374 -0.0114  0.6109
 7333SOL    HW224954   0.972   1.501   3.467  0.0033 -0.4627 -0.6228
 7334SOL     OW24955   7.365   7.135   6.764 -0.5028 -0.7214 -0.0249
 7334SOL    HW124956   7.426   7.096   6.827 -0.3957 -1.0125 -0.3042
 7334SOL    HW224957   7.295   7.172   6.818  0.3397  0.3735  0.3592
 7335SOL     OW24958   1.763   7.829   3.567  0.0865  0.5556  0.1160
 7335SOL    HW124959   1.737   7.811   3.658  0.2229  0.6725  0.1803
 7335SOL    HW224960   1.782   7.743   3.530  0.5042  0.5426  0.3467
 7336SOL     OW24961   6.380   1.755   4.959  0.3060  0.2575 -0.2399
 7336SOL    HW124962   6.291   1.719   4.958  0.3735  0.0621  0.5701
 7336SOL    HW224963   6.367   1.849   4.972  0.1811  0.3851 -1.1932
 7337SOL     OW24964   5.082   3.190   3.334  0.4731  0.6049 -0.2153
 7337SOL    HW124965   5.076   3.280   3.300 -0.0101  1.2386  1.4555
 7337SOL    HW224966   5.061   3.198   3.427  1.1165 -1.1554  0.1169
 7338SOL     OW24967   2.887   3.688   4.425 -0.4651  0.0114  0.0861
 7338SOL    HW124968   2.844   3.725   4.502  0.5282  1.4623 -0.0287
 7338SOL    HW224969   2.973   3.730   4.422 -0.0559 -0.8396 -1.2017
 7339SOL     OW24970   5.815   0.488   3.327 -0.6200 -0.4687 -0.1020
 7339SOL    HW124971   5.768   0.470   3.408 -1.5881 -1.1290 -0.7811
 7339SOL    HW224972   5.747   0.500   3.261  0.1436 -0.0826 -0.8536
 7340SOL     OW24973   2.043   4.226   3.179 -0.1194 -0.3312  0.5500
 7340SOL    HW124974   2.137   4.234   3.194 -0.3271  0.1181  1.6895
 7340SOL    HW224975   2.020   4.305   3.130  0.7138 -2.2158 -3.2743
 7341SOL     OW24976   2.322   6.005   1.466  0.4283  0.4706  0.6216
 7341SOL    HW124977   2.380   5.935   1.496 -1.2419 -0.1303  2.7071
 7341SOL    HW224978   2.326   6.071   1.535  0.6612  1.6720 -0.4999
 7342SOL     OW24979   1.184   4.068   2.624  0.2298 -0.0805 -0.3993
 7342SOL    HW124980   1.094   4.098   2.606 -0.1010 -1.0400 -0.3923
 7342SOL    HW224981   1.202   4.005   2.555  0.6069 -0.4837  0.0688
 7343SOL     OW24982   3.718   7.530   4.922  0.3825  0.2949  0.2152
 7343SOL    HW124983   3.700   7.471   4.849  1.2215 -0.8829  0.9276
 7343SOL    HW224984   3.663   7.607   4.905 -1.0396 -0.8388 -0.5452
 7344SOL     OW24985   1.181   0.191   0.214 -0.2194 -0.0448 -0.0784
 7344SOL    HW124986   1.183   0.254   0.142 -0.5119 -0.1530 -0.1819
 7344SOL    HW224987   1.268   0.151   0.213 -0.5520 -0.8012 -1.0588
 7345SOL     OW24988   7.251   4.362   1.892 -0.0092  0.3894 -0.4480
 7345SOL    HW124989   7.253   4.447   1.847  1.9641  0.9750  0.6019
 7345SOL    HW224990   7.257   4.385   1.985  0.9001 -0.8995 -0.1663
 7346SOL     OW24991   5.833   7.948   4.978  0.4953 -0.1853 -1.2120
 7346SOL    HW124992   5.789   7.865   4.961 -2.4997 -0.6252  5.3365
 7346SOL    HW224993   5.915   7.923   5.022 -1.6281 -0.2369  3.2762
 7347SOL     OW24994   3.057   6.827   2.280  0.1184 -0.1165 -0.5496
 7347SOL    HW124995   3.092   6.884   2.212 -2.2543  0.8297 -1.0898
 7347SOL    HW224996   3.083   6.739   2.254  0.7105  0.3954 -1.7493
 7348SOL     OW24997   2.080   2.008   7.432  0.3755  0.0091  0.6641
 7348SOL    HW124998   2.067   2.101   7.449 -1.8895 -0.5328  2.5122
 7348SOL    HW224999   2.068   1.999   7.338  0.5180  1.5740  0.4698
 7349SOL     OW25000   4.919   1.789   6.722 -0.4588  0.0172 -0.2251
 7349SOL    HW125001   4.864   1.868   6.719  0.0653  0.3839 -0.3334
 7349SOL    HW225002   4.857   1.717   6.728 -0.9196  0.5008  1.0965
 7350SOL     OW25003   5.786   3.453   3.292  0.1571 -0.3098  0.6492
 7350SOL    HW125004   5.727   3.439   3.218 -1.2080 -1.1277  1.8177
 7350SOL    HW225005   5.794   3.548   3.299 -0.4595 -0.2065  0.0303
 7351SOL     OW25006   4.694   5.088   2.883 -0.1595  0.3681  0.0794
 7351SOL    HW125007   4.683   5.144   2.960 -0.3969 -1.0875  1.1516
 7351SOL    HW225008   4.727   5.005   2.919 -0.9145 -0.5695 -1.3224
 7352SOL     OW25009   7.653   0.184   5.173  0.4634 -0.0450  0.5293
 7352SOL    HW125010   7.704   0.201   5.094  1.2047 -0.7732  0.8330
 7352SOL    HW225011   7.598   0.262   5.183  1.4808  0.7565  0.1562
 7353SOL     OW25012   8.129   1.850   3.854 -0.2899 -0.1930 -0.3023
 7353SOL    HW125013   8.118   1.776   3.795 -0.5489 -0.4332  0.0481
 7353SOL    HW225014   8.069   1.917   3.820  0.4106  0.1031 -1.0013
 7354SOL     OW25015   2.612   6.261   5.060 -0.6946 -0.3700 -0.1620
 7354SOL    HW125016   2.623   6.171   5.028 -0.8310  0.0859 -1.5560
 7354SOL    HW225017   2.687   6.309   5.024 -0.2607 -0.0373  1.1157
 7355SOL     OW25018   1.945   4.856   4.038  0.3243  0.1753  0.3438
 7355SOL    HW125019   1.976   4.876   4.127 -0.4832 -1.3151  1.0077
 7355SOL    HW225020   1.870   4.913   4.026  0.2001  0.1107  0.7795
 7356SOL     OW25021   0.357   7.371   7.224  0.0487  0.4581 -0.8754
 7356SOL    HW125022   0.264   7.350   7.225  0.0324  0.5547 -0.1066
 7356SOL    HW225023   0.401   7.286   7.225 -0.0160  0.3394  2.1817
 7357SOL     OW25024   3.613   8.129   0.054  0.0334 -0.0603 -0.7265
 7357SOL    HW125025   3.699   8.086   0.060 -1.0318 -2.3739 -0.8804
 7357SOL    HW225026   3.588   8.145   0.145  0.5018  0.4105 -0.6738
 7358SOL     OW25027   4.496   0.359   7.639  0.8350  0.2057  0.1266
 7358SOL    HW125028   4.475   0.354   7.545  0.7957 -1.3987  0.1971
 7358SOL    HW225029   4.411   0.364   7.682  0.7794 -0.5914  0.1315
 7359SOL     OW25030   5.516   5.788   3.766 -0.5275  0.1442  0.1224
 7359SOL    HW125031   5.458   5.814   3.695 -0.0932  1.2473  0.1520
 7359SOL    HW225032   5.595   5.757   3.722 -0.6677 -0.1942  0.1071
 7360SOL     OW25033   4.654   4.903   3.154  0.3941 -0.0480 -0.2217
 7360SOL    HW125034   4.744   4.872   3.145  0.4057  0.2914 -1.3376
 7360SOL    HW225035   4.600   4.832   3.117  0.3357  0.5873 -1.4023
 7361SOL     OW25036   4.230   1.967   7.936 -0.4314 -0.8718  0.4024
 7361SOL    HW125037   4.183   2.046   7.962 -0.1812  0.0139 -1.5793
 7361SOL    HW225038   4.318   1.978   7.973  0.0828  0.6036 -1.1026
 7362SOL     OW25039   3.777   7.961   2.414 -0.0281 -0.2703  0.3341
 7362SOL    HW125040   3.745   7.907   2.486 -1.5249  2.2402  1.6963
 7362SOL    HW225041   3.721   8.039   2.416  0.5396  0.3738 -2.9260
 7363SOL     OW25042   3.225   5.420   4.609 -0.4453  0.0144 -0.3312
 7363SOL    HW125043   3.212   5.364   4.533 -0.9318  0.8756 -0.9042
 7363SOL    HW225044   3.203   5.508   4.578  0.3571  0.5375  0.5261
 7364SOL     OW25045   7.529   6.753   4.378 -0.4571 -0.3437  0.2852
 7364SOL    HW125046   7.589   6.805   4.432 -0.0736  0.3584 -0.7827
 7364SOL    HW225047   7.457   6.731   4.437 -0.0137  0.3372  1.1058
 7365SOL     OW25048   6.306   1.690   7.293  0.6900  0.8470  0.1856
 7365SOL    HW125049   6.327   1.752   7.224  0.7141  1.1257  0.4431
 7365SOL    HW225050   6.216   1.710   7.318  0.5066  0.4178 -0.1075
 7366SOL     OW25051   6.028   2.876   3.266 -0.0359  0.1187 -0.0341
 7366SOL    HW125052   6.081   2.916   3.197  0.8790 -0.2431  0.4469
 7366SOL    HW225053   5.975   2.949   3.300  0.1476  0.4866 -0.5256
 7367SOL     OW25054   1.261   3.681   3.462 -0.4593  0.1555  0.1579
 7367SOL    HW125055   1.167   3.661   3.460 -0.1410 -1.4354 -2.4572
 7367SOL    HW225056   1.290   3.651   3.549 -1.9181 -1.6926  0.0693
 7368SOL     OW25057   5.948   3.775   1.631  0.3946  0.0533 -0.3163
 7368SOL    HW125058   5.899   3.752   1.710  1.0787 -0.3750 -0.0000
 7368SOL    HW225059   5.927   3.867   1.615 -1.3851 -0.4164 -0.8477
 7369SOL     OW25060   4.696   2.313   3.343 -0.2831  0.6495 -0.7616
 7369SOL    HW125061   4.608   2.312   3.379  0.6300  1.9614  1.7718
 7369SOL    HW225062   4.719   2.221   3.332 -2.9746  0.1908 -4.5784
 7370SOL     OW25063   2.702   2.328   4.899 -0.4524 -0.4959 -0.0506
 7370SOL    HW125064   2.662   2.414   4.885 -1.5221 -0.4938  2.4794
 7370SOL    HW225065   2.769   2.321   4.830  0.2818  2.7311  0.1717
 7371SOL     OW25066   5.678   6.476   5.987  0.2507  1.0100 -0.3804
 7371SOL    HW125067   5.758   6.435   5.955  0.7639 -0.0086  2.0528
 7371SOL    HW225068   5.609   6.414   5.964  0.2641  1.4102 -1.5677
 7372SOL     OW25069   6.587   0.409   3.920  0.0260  0.0891 -0.5220
 7372SOL    HW125070   6.529   0.422   3.996 -0.5865  1.5922 -1.2078
 7372SOL    HW225071   6.527   0.385   3.849  0.4455  0.0524 -0.8634
 7373SOL     OW25072   3.867   4.604   6.687 -0.0186  0.2793 -0.2178
 7373SOL    HW125073   3.944   4.614   6.631  0.2804 -0.2445  0.0921
 7373SOL    HW225074   3.807   4.672   6.657  0.0876 -0.0571 -1.2465
 7374SOL     OW25075   2.880   0.300   1.612 -0.1163 -0.0572  0.3070
 7374SOL    HW125076   2.807   0.343   1.656  1.4698  3.3828 -0.0557
 7374SOL    HW225077   2.877   0.334   1.522  1.2455 -0.7579 -0.0396
 7375SOL     OW25078   4.999   4.329   1.294  0.0074  0.2084  0.6799
 7375SOL    HW125079   4.904   4.332   1.278  0.1975 -0.0179 -0.5756
 7375SOL    HW225080   5.023   4.421   1.305 -0.0038  0.5035 -1.3885
 7376SOL     OW25081   4.757   7.151   8.122 -0.6134 -0.7235  0.5026
 7376SOL    HW125082   4.779   7.138   8.214  0.2927  0.5878  0.5054
 7376SOL    HW225083   4.662   7.166   8.121 -0.4894  0.2759  1.3750
 7377SOL     OW25084   2.170   4.427   7.957 -0.5661  0.0688 -0.4846
 7377SOL    HW125085   2.158   4.332   7.955  0.1938 -0.0343 -0.3741
 7377SOL    HW225086   2.147   4.452   8.047 -0.1622 -0.0994 -0.3313
 7378SOL     OW25087   5.011   7.153   1.474 -0.0406 -0.1179  0.4597
 7378SOL    HW125088   4.994   7.239   1.512  1.4594 -0.4038  1.8929
 7378SOL    HW225089   5.089   7.166   1.418  0.7748 -0.7011  1.4258
 7379SOL     OW25090   4.637   4.522   4.740 -0.0044  0.8354 -0.2488
 7379SOL    HW125091   4.642   4.605   4.787 -0.4260  1.0108 -0.5047
 7379SOL    HW225092   4.717   4.519   4.688  0.4410  0.6596  0.4424
 7380SOL     OW25093   2.380   1.974   1.346 -0.5600  0.0986 -0.5242
 7380SOL    HW125094   2.398   2.063   1.374  0.7704 -0.3749  0.2303
 7380SOL    HW225095   2.419   1.919   1.414 -1.4936 -1.0630 -0.8893
 7381SOL     OW25096   6.750   6.724   5.625  0.3999  0.4422 -0.3379
 7381SOL    HW125097   6.727   6.659   5.692  1.5574 -0.2988 -0.6392
 7381SOL    HW225098   6.723   6.808   5.663 -0.8743 -0.1747  0.1689
 7382SOL     OW25099   1.911   3.251   5.118  0.1145  0.1300  0.0435
 7382SOL    HW125100   1.956   3.249   5.202  1.0979 -0.2046 -0.4754
 7382SOL    HW225101   1.839   3.189   5.127 -0.2694  0.6863  0.8899
 7383SOL     OW25102   7.844   6.550   1.168 -0.0724  0.4433  0.3868
 7383SOL    HW125103   7.819   6.526   1.258 -3.0268 -0.8287 -0.6465
 7383SOL    HW225104   7.919   6.495   1.149  1.3911  1.5926  2.4167
 7384SOL     OW25105   3.937   5.485   5.015 -0.4192 -0.1674 -0.1181
 7384SOL    HW125106   3.943   5.396   5.049  1.0453  0.3214  0.9928
 7384SOL    HW225107   3.903   5.537   5.088  0.0401  0.4160 -0.3135
 7385SOL     OW25108   5.788   1.657   3.481 -0.2057 -0.0156 -0.1190
 7385SOL    HW125109   5.863   1.694   3.434 -0.4990 -0.2692 -0.7945
 7385SOL    HW225110   5.803   1.563   3.482 -0.8737 -0.1406 -0.9032
 7386SOL     OW25111   6.538   0.225   2.521 -1.1278  0.1181 -0.0194
 7386SOL    HW125112   6.580   0.270   2.595  2.1615 -1.3018 -0.8339
 7386SOL    HW225113   6.533   0.134   2.549  0.6690 -0.5401 -1.6459
 7387SOL     OW25114   8.067   7.113   7.993  1.3326  0.1393 -0.4383
 7387SOL    HW125115   8.049   7.156   8.077  0.0505  0.3181 -0.7851
 7387SOL    HW225116   8.143   7.058   8.010  0.1136 -1.0974  1.2903
 7388SOL     OW25117   5.078   5.692   1.260 -0.0570 -0.1700 -0.1678
 7388SOL    HW125118   4.984   5.708   1.252 -0.5349 -2.0535  0.9740
 7388SOL    HW225119   5.093   5.685   1.354  1.4860  1.2445 -0.2592
 7389SOL     OW25120   0.571   0.096   7.777 -0.2207 -0.6041 -0.7602
 7389SOL    HW125121   0.485   0.068   7.745 -0.4432 -0.6172 -0.1735
 7389SOL    HW225122   0.607   0.019   7.820 -1.0622  0.0685  1.3362
 7390SOL     OW25123   6.600   3.559   0.430 -0.4738  0.0122 -0.6036
 7390SOL    HW125124   6.551   3.534   0.352 -1.1700 -0.3260 -0.0682
 7390SOL    HW225125   6.541   3.618   0.477 -1.4683 -2.3790  1.3286
 7391SOL     OW25126   7.818   2.465   7.867 -0.2302  0.2703 -0.4720
 7391SOL    HW125127   7.881   2.509   7.925  0.1846 -0.6323 -0.2299
 7391SOL    HW225128   7.850   2.376   7.860 -1.4412 -0.1879 -0.4066
 7392SOL     OW25129   7.618   5.844   5.713  0.0673 -0.2102  0.6980
 7392SOL    HW125130   7.652   5.768   5.761 -0.8724 -0.2842  1.2850
 7392SOL    HW225131   7.614   5.815   5.622 -1.2332 -1.2500  1.0486
 7393SOL     OW25132   1.577   0.329   1.728  0.0898  0.7133 -0.0328
 7393SOL    HW125133   1.618   0.258   1.778 -2.6677 -0.6071  0.5245
 7393SOL    HW225134   1.590   0.305   1.637  3.7928  2.3474 -0.1289
 7394SOL     OW25135   5.137   1.606   5.579  0.1502  0.0978  0.9432
 7394SOL    HW125136   5.068   1.588   5.514  1.5717  0.0801 -0.6342
 7394SOL    HW225137   5.091   1.649   5.651 -1.6772 -0.8636  0.4173
 7395SOL     OW25138   3.822   4.358   2.550  0.5502  0.4546  0.3830
 7395SOL    HW125139   3.833   4.390   2.640 -2.1009  1.3312  0.4692
 7395SOL    HW225140   3.813   4.263   2.560 -1.0161  0.6528  1.2608
 7396SOL     OW25141   5.991   4.475   3.804  0.4978  0.8185 -0.3264
 7396SOL    HW125142   5.907   4.433   3.788 -0.7992  2.9178  0.6813
 7396SOL    HW225143   6.039   4.464   3.721 -0.1234 -1.7020 -0.4277
 7397SOL     OW25144   2.325   7.730   5.011  0.2094  1.0226 -0.1275
 7397SOL    HW125145   2.306   7.681   5.091  1.4006  0.5928 -0.0997
 7397SOL    HW225146   2.245   7.721   4.958 -0.7301  1.6001  1.1368
 7398SOL     OW25147   3.620   6.568   1.602 -0.5147  0.2886 -0.2139
 7398SOL    HW125148   3.679   6.548   1.529 -1.2574  0.4077 -0.8526
 7398SOL    HW225149   3.646   6.507   1.671  0.7827  0.7649 -0.2538
 7399SOL     OW25150   6.103   0.601   2.358  0.0413 -0.3917 -0.1407
 7399SOL    HW125151   6.189   0.643   2.357 -0.0905 -0.1295 -0.6788
 7399SOL    HW225152   6.080   0.595   2.451  0.3494  0.1383 -0.0277
 7400SOL     OW25153   4.626   0.972   3.093 -0.4717 -0.4917 -0.5296
 7400SOL    HW125154   4.535   0.982   3.120 -0.0872  2.1662  0.0667
 7400SOL    HW225155   4.640   1.041   3.028  1.3867 -0.0623  0.2514
 7401SOL     OW25156   4.704   4.442   5.887  0.1309  0.4687 -0.4886
 7401SOL    HW125157   4.655   4.360   5.881 -0.5008  0.9087 -1.7850
 7401SOL    HW225158   4.748   4.449   5.803 -0.5890  1.9154 -0.7745
 7402SOL     OW25159   3.209   6.860   5.613 -0.2327  0.1584  0.3966
 7402SOL    HW125160   3.117   6.833   5.611 -0.7525  1.8633 -0.8001
 7402SOL    HW225161   3.210   6.947   5.572  1.6180  1.0871  2.1877
 7403SOL     OW25162   6.583   4.969   4.827  0.3772  0.1738  0.1187
 7403SOL    HW125163   6.515   4.983   4.762  0.2377 -1.7911 -0.2181
 7403SOL    HW225164   6.601   5.056   4.863  0.3396  1.2797 -2.3912
 7404SOL     OW25165   1.138   1.425   2.915  0.4536 -0.3364 -0.1934
 7404SOL    HW125166   1.225   1.465   2.906 -0.2796  1.2311 -0.4660
 7404SOL    HW225167   1.148   1.364   2.988  1.8254 -0.2986 -0.3226
 7405SOL     OW25168   4.949   6.188   7.876 -0.2518 -0.1769  0.2235
 7405SOL    HW125169   5.029   6.147   7.842 -0.0669  0.2341  0.1496
 7405SOL    HW225170   4.976   6.277   7.897 -0.6583 -0.0823  0.3472
 7406SOL     OW25171   7.320   7.437   1.338 -0.3770  0.0053 -0.1000
 7406SOL    HW125172   7.305   7.525   1.306 -0.7353 -0.6768 -1.9201
 7406SOL    HW225173   7.253   7.383   1.295 -3.7691 -0.4874  4.9127
 7407SOL     OW25174   7.930   1.310   1.548  0.3493 -0.3385  0.1597
 7407SOL    HW125175   8.011   1.260   1.561  1.6806  2.2822  3.0716
 7407SOL    HW225176   7.956   1.384   1.494 -0.3835 -0.0566  0.1850
 7408SOL     OW25177   1.657   6.742   2.459  0.3362 -0.5245  0.3103
 7408SOL    HW125178   1.743   6.702   2.458  0.3799 -0.4772 -2.1471
 7408SOL    HW225179   1.610   6.700   2.387 -0.4481  2.0060 -0.7516
 7409SOL     OW25180   4.212   3.815   7.491  0.5211 -0.8311  0.0811
 7409SOL    HW125181   4.171   3.784   7.411  1.2108 -0.4454 -0.4367
 7409SOL    HW225182   4.300   3.777   7.490  0.4927 -0.9223  0.7126
 7410SOL     OW25183   0.591   0.921   1.931 -0.0399 -0.5082  0.3311
 7410SOL    HW125184   0.663   0.900   1.991  1.8626 -1.3750 -2.0836
 7410SOL    HW225185   0.548   0.838   1.914 -0.6783 -0.2394  0.5999
 7411SOL     OW25186   1.333   5.039   0.297  0.2734 -0.3488  0.0177
 7411SOL    HW125187   1.260   5.051   0.236  1.1957 -0.1124 -1.0643
 7411SOL    HW225188   1.410   5.027   0.241  1.0089 -1.0535  1.1287
 7412SOL     OW25189   2.211   3.167   1.089 -0.2715  0.0609  0.5271
 7412SOL    HW125190   2.163   3.112   1.028 -0.0980 -0.8665  1.1989
 7412SOL    HW225191   2.195   3.257   1.059 -2.7917 -0.1536  0.9626
 7413SOL     OW25192   4.096   3.691   7.755 -0.2539 -0.3311 -0.1591
 7413SOL    HW125193   4.086   3.733   7.670 -2.1108  0.2389  0.2921
 7413SOL    HW225194   4.154   3.750   7.804  0.2611 -0.3012 -0.7987
 7414SOL     OW25195   7.302   2.992   3.821 -0.1027  0.5677 -0.2320
 7414SOL    HW125196   7.254   2.923   3.775  0.4579  0.2831 -0.3986
 7414SOL    HW225197   7.234   3.052   3.851 -0.7462 -0.7034  1.0394
 7415SOL     OW25198   1.420   0.219   1.043 -0.0358 -0.4413 -0.0996
 7415SOL    HW125199   1.424   0.281   0.969 -0.7823 -1.9335 -1.4543
 7415SOL    HW225200   1.351   0.158   1.019  0.2860 -1.4802  1.4711
 7416SOL     OW25201   3.948   0.956   2.242 -0.1838 -0.3531 -0.0080
 7416SOL    HW125202   4.004   0.979   2.316  0.5010  0.3069 -0.7226
 7416SOL    HW225203   3.986   0.876   2.206  0.4327  0.1983 -0.6092
 7417SOL     OW25204   3.183   1.982   4.639 -0.2060  0.0806  0.7829
 7417SOL    HW125205   3.140   1.930   4.707 -1.9482  0.0228 -0.3277
 7417SOL    HW225206   3.123   1.980   4.565  2.7095 -2.0142 -1.7742
 7418SOL     OW25207   6.362   3.200   2.363  0.3347  0.4151 -0.1996
 7418SOL    HW125208   6.275   3.160   2.370 -0.3858  1.5316 -2.0519
 7418SOL    HW225209   6.397   3.168   2.280  0.5946  1.9545 -0.7193
 7419SOL     OW25210   0.543   7.141   1.968  0.3190  0.2885  0.3149
 7419SOL    HW125211   0.557   7.236   1.961  0.0971  0.2622 -0.6138
 7419SOL    HW225212   0.448   7.132   1.976  0.0250  0.0342 -2.4571
 7420SOL     OW25213   6.986   0.914   7.475 -0.8666 -0.2862  0.1744
 7420SOL    HW125214   7.035   0.942   7.552  0.8552  1.3172 -1.3759
 7420SOL    HW225215   6.901   0.886   7.509 -0.5983  1.4249  2.5218
 7421SOL     OW25216   7.793   2.574   0.694 -0.6496  0.0745  0.2445
 7421SOL    HW125217   7.819   2.583   0.602 -1.7412 -1.6725 -0.2820
 7421SOL    HW225218   7.875   2.558   0.740 -0.3041 -1.2588 -0.7793
 7422SOL     OW25219   3.241   5.090   6.893  0.4718  0.3843  0.6058
 7422SOL    HW125220   3.162   5.102   6.947  1.4311  0.6514  1.9960
 7422SOL    HW225221   3.209   5.096   6.803 -1.4341 -1.6139  1.0631
 7423SOL     OW25222   5.999   5.956   2.870 -0.3744 -0.2467  0.2672
 7423SOL    HW125223   6.065   5.901   2.912 -1.4766 -2.5502 -0.8990
 7423SOL    HW225224   6.006   5.936   2.777 -2.7947 -0.7028  0.1197
 7424SOL     OW25225   6.569   2.925   7.896 -0.0133  0.2112  0.2214
 7424SOL    HW125226   6.643   2.986   7.890 -0.3555  0.7715  1.3725
 7424SOL    HW225227   6.602   2.851   7.946 -0.3723  0.7281  1.2564
 7425SOL     OW25228   5.674   1.731   7.291  0.2129  0.1764 -0.5513
 7425SOL    HW125229   5.685   1.810   7.238 -0.1421  0.6124  0.0083
 7425SOL    HW225230   5.743   1.737   7.357 -0.0761  0.2308 -0.2535
 7426SOL     OW25231   5.902   8.034   8.027 -0.0655 -0.0126 -0.7092
 7426SOL    HW125232   5.912   7.957   7.970 -0.6726  1.2972 -2.6805
 7426SOL    HW225233   5.985   8.040   8.074  0.4471 -1.1628 -1.4232
 7427SOL     OW25234   1.607   0.076   1.226 -0.0928  0.4562 -0.4675
 7427SOL    HW125235   1.619  -0.001   1.171 -0.2813  0.3927 -0.4192
 7427SOL    HW225236   1.564   0.140   1.169  0.6687  0.7643 -0.7091
 7428SOL     OW25237   4.731   7.129   6.620 -0.2748 -0.4907  0.0578
 7428SOL    HW125238   4.766   7.138   6.709  1.6755  0.6348 -0.7387
 7428SOL    HW225239   4.660   7.193   6.616  0.3800  0.2939  0.5007
 7429SOL     OW25240   8.080   2.928   6.052 -0.2522 -0.4937 -0.8641
 7429SOL    HW125241   8.150   2.954   6.112 -1.2902  0.6609 -0.1242
 7429SOL    HW225242   8.119   2.856   6.001  1.2402 -0.3321 -0.0279
 7430SOL     OW25243   7.295   7.038   6.337 -0.3215  0.2902 -0.1251
 7430SOL    HW125244   7.354   7.099   6.381  0.6070  2.2228 -3.6789
 7430SOL    HW225245   7.208   7.077   6.347 -0.1824  0.5233  0.1903
 7431SOL     OW25246   3.906   5.662   2.259 -0.1066  0.1283 -0.4523
 7431SOL    HW125247   3.838   5.729   2.254  0.0639  0.3058 -0.4019
 7431SOL    HW225248   3.898   5.626   2.347 -1.2396 -1.0219 -0.9944
 7432SOL     OW25249   7.918   0.806   5.937  0.0758 -0.3250 -0.0467
 7432SOL    HW125250   7.965   0.734   5.980 -1.7098 -1.2243  0.5360
 7432SOL    HW225251   7.888   0.861   6.010  1.9171  1.3753 -0.5211
 7433SOL     OW25252   4.014   3.487   6.138 -0.0338  0.7635  0.1690
 7433SOL    HW125253   4.075   3.511   6.068 -0.6177  2.8186  0.3238
 7433SOL    HW225254   3.928   3.511   6.103 -0.4415  0.7430  1.1486
 7434SOL     OW25255   4.016   5.180   1.841 -0.1995  0.4018  0.2318
 7434SOL    HW125256   4.038   5.087   1.839 -0.0241  0.4534 -1.0762
 7434SOL    HW225257   3.920   5.182   1.841 -0.2054  0.2264  0.5722
 7435SOL     OW25258   5.682   2.863   3.051  0.5057  0.6954  0.0222
 7435SOL    HW125259   5.597   2.849   3.008 -0.4625  0.0746  1.9754
 7435SOL    HW225260   5.663   2.926   3.121  1.1736 -0.8503  1.6795
 7436SOL     OW25261   6.420   0.455   6.433 -0.2371 -0.1993 -0.0183
 7436SOL    HW125262   6.478   0.524   6.402  1.1427 -1.3679 -0.1519
 7436SOL    HW225263   6.366   0.433   6.357 -0.3738  0.4289 -0.1036
 7437SOL     OW25264   8.085   7.898   3.964 -0.2314  0.0401  0.6664
 7437SOL    HW125265   8.155   7.838   3.940  1.0628  1.7111  0.0002
 7437SOL    HW225266   8.127   7.959   4.025 -1.2229  0.7960  0.6143
 7438SOL     OW25267   2.766   5.448   2.478 -0.1390 -0.6116 -0.0835
 7438SOL    HW125268   2.711   5.373   2.501  1.8925 -2.3067 -0.5490
 7438SOL    HW225269   2.785   5.437   2.385 -1.5580  1.7352 -0.7541
 7439SOL     OW25270   6.105   7.266   1.555  0.2796  0.1256 -0.0489
 7439SOL    HW125271   6.149   7.337   1.509  1.2714  0.8980  1.9500
 7439SOL    HW225272   6.093   7.198   1.489 -0.8841  2.1807 -2.0708
 7440SOL     OW25273   3.689   0.366   5.264  0.6482 -0.5916 -0.0227
 7440SOL    HW125274   3.735   0.401   5.341 -0.5448 -0.4033  0.6214
 7440SOL    HW225275   3.703   0.271   5.270  2.1101 -0.4476 -0.6184
 7441SOL     OW25276   1.185   0.078   5.786  0.2362 -0.5536 -0.2923
 7441SOL    HW125277   1.136   0.111   5.862 -0.7615  0.9211 -1.5214
 7441SOL    HW225278   1.268   0.126   5.789  0.2771 -0.6356 -0.0478
 7442SOL     OW25279   1.925   0.137   3.987 -0.5875 -0.0220 -0.0092
 7442SOL    HW125280   1.960   0.165   4.071 -0.4104  0.9865 -0.4086
 7442SOL    HW225281   1.992   0.078   3.952  0.2183  1.0378 -0.2778
 7443SOL     OW25282   3.095   2.283   7.829 -0.4208  0.1473  0.1325
 7443SOL    HW125283   3.133   2.218   7.770  1.0649 -0.3742  1.5968
 7443SOL    HW225284   3.068   2.355   7.771  0.3363 -0.6372 -1.2529
 7444SOL     OW25285   4.937   1.087   7.246  0.5552  0.3341 -0.5180
 7444SOL    HW125286   4.873   1.088   7.317  4.0600  0.5376  2.9831
 7444SOL    HW225287   4.912   1.160   7.190 -1.5475  1.1437  1.3296
 7445SOL     OW25288   4.065   6.894   5.080 -0.4880 -0.4403  0.3659
 7445SOL    HW125289   4.125   6.910   5.007 -0.5625  0.4573  0.4880
 7445SOL    HW225290   4.121   6.895   5.157 -0.3824 -1.5626  0.3265
 7446SOL     OW25291   1.855   3.147   1.578 -0.2051 -0.1742 -0.2490
 7446SOL    HW125292   1.877   3.172   1.667  0.7335  1.7199 -0.9524
 7446SOL    HW225293   1.934   3.107   1.543 -0.5584 -0.8832 -0.2572
 7447SOL     OW25294   0.438   5.568   4.595 -0.0569 -0.8444 -0.4486
 7447SOL    HW125295   0.519   5.617   4.587  0.3485 -1.0723  1.7792
 7447SOL    HW225296   0.382   5.602   4.525  1.5896  0.0015 -1.3978
 7448SOL     OW25297   5.216   6.177   4.961 -0.0663 -0.2788 -0.5836
 7448SOL    HW125298   5.211   6.138   4.873 -1.0348 -1.0117 -0.2165
 7448SOL    HW225299   5.254   6.263   4.946 -0.3536 -0.3329 -1.7521
 7449SOL     OW25300   5.776   3.501   4.752  0.2630 -0.0835 -0.1127
 7449SOL    HW125301   5.809   3.554   4.825  0.1897  0.6049 -0.5656
 7449SOL    HW225302   5.685   3.528   4.741 -0.1787 -1.2779  0.5035
 7450SOL     OW25303   0.500   6.811   2.952  0.1620  0.3060 -0.0160
 7450SOL    HW125304   0.522   6.904   2.958 -0.0431  0.3042  0.8757
 7450SOL    HW225305   0.533   6.774   3.034  0.2000 -0.4015 -0.3482
 7451SOL     OW25306   2.548   1.779   2.966  0.0992  0.1388 -0.2457
 7451SOL    HW125307   2.473   1.823   2.927  0.8871  2.6320  0.8409
 7451SOL    HW225308   2.599   1.747   2.891 -0.5065  1.1509 -1.1107
 7452SOL     OW25309   5.781   3.404   4.385  0.3180  0.1672  0.2888
 7452SOL    HW125310   5.870   3.430   4.408  0.6892  0.4736 -1.3772
 7452SOL    HW225311   5.742   3.484   4.350 -0.3071 -0.1959  0.1510
 7453SOL     OW25312   4.466   5.557   2.469  0.5456  0.0876 -0.6583
 7453SOL    HW125313   4.422   5.500   2.405 -2.1291 -0.4898  1.5433
 7453SOL    HW225314   4.397   5.612   2.504  2.6749  3.2777 -1.0653
 7454SOL     OW25315   7.668   7.313   5.762 -0.3961  0.2191  0.0447
 7454SOL    HW125316   7.700   7.268   5.840 -0.4899  1.0746  0.5859
 7454SOL    HW225317   7.724   7.391   5.755  0.4974 -0.5023 -1.5035
 7455SOL     OW25318   2.927   4.147   6.993  0.3380  0.4169 -0.0948
 7455SOL    HW125319   2.997   4.083   6.977 -0.5168 -0.4581 -0.4452
 7455SOL    HW225320   2.970   4.232   6.984  1.4352 -0.1049  0.0686
 7456SOL     OW25321   4.569   3.885   1.617 -0.4472 -0.8919  0.3389
 7456SOL    HW125322   4.529   3.919   1.536 -1.8121 -0.9905  0.9348
 7456SOL    HW225323   4.649   3.842   1.588  0.8661  1.9165 -0.5715
 7457SOL     OW25324   1.234   1.576   5.609  0.2625  0.4152 -0.0867
 7457SOL    HW125325   1.264   1.617   5.690  1.6206 -0.5271 -0.0786
 7457SOL    HW225326   1.312   1.570   5.555  0.0018 -1.6186 -0.3094
 7458SOL     OW25327   0.312   4.366   1.901 -0.0926  0.2280 -0.7503
 7458SOL    HW125328   0.337   4.455   1.874 -1.6480  0.1185 -2.8241
 7458SOL    HW225329   0.248   4.379   1.970  0.4994  0.6735 -0.2740
 7459SOL     OW25330   0.887   1.354   0.367  0.0669  0.1088  0.1848
 7459SOL    HW125331   0.970   1.383   0.330  0.2369 -0.6660 -0.0464
 7459SOL    HW225332   0.872   1.414   0.440 -0.5108  1.9530 -1.3724
 7460SOL     OW25333   1.149   1.698   4.805 -0.0730 -0.2846 -0.2594
 7460SOL    HW125334   1.203   1.720   4.729  3.5603 -1.6428  1.6700
 7460SOL    HW225335   1.140   1.780   4.853  0.1539  0.0054 -0.7066
 7461SOL     OW25336   2.645   3.762   6.870 -0.6249  0.4119  0.1326
 7461SOL    HW125337   2.636   3.806   6.955 -0.7021  0.4267  0.1164
 7461SOL    HW225338   2.713   3.812   6.824 -1.3120  1.0295 -0.2215
 7462SOL     OW25339   2.832   4.528   0.895 -0.3807 -0.2157 -0.3422
 7462SOL    HW125340   2.777   4.552   0.820 -0.1046 -1.9941 -1.1871
 7462SOL    HW225341   2.901   4.474   0.857 -0.1071 -0.9799  1.1737
 7463SOL     OW25342   6.782   4.615   6.764 -0.3581 -0.1369  0.4125
 7463SOL    HW125343   6.854   4.620   6.701  0.5963  0.4100  1.5028
 7463SOL    HW225344   6.784   4.699   6.810 -1.9379  0.0428  0.2322
 7464SOL     OW25345   3.666   6.968   2.599 -0.9146 -0.3484  0.0013
 7464SOL    HW125346   3.602   6.907   2.635 -2.3487  1.0137 -0.1566
 7464SOL    HW225347   3.650   6.968   2.505  0.8432 -1.6632 -0.3382
 7465SOL     OW25348   1.639   6.613   5.383 -0.0634 -0.0568  0.0853
 7465SOL    HW125349   1.618   6.583   5.471 -2.5614 -0.6053 -0.6090
 7465SOL    HW225350   1.673   6.535   5.338  2.6111  0.5521  0.8772
 7466SOL     OW25351   4.451   6.928   3.101  0.2753  0.0017  0.4158
 7466SOL    HW125352   4.532   6.915   3.149 -0.3284  1.5794  1.9909
 7466SOL    HW225353   4.476   6.980   3.024  0.9614 -0.9291 -0.0115
 7467SOL     OW25354   7.511   7.651   6.732  0.4069 -0.0614 -0.1145
 7467SOL    HW125355   7.438   7.674   6.790  0.9454  1.4218  0.0071
 7467SOL    HW225356   7.502   7.711   6.658  1.4099  0.0160 -0.1746
 7468SOL     OW25357   5.849   8.117   4.671  0.8577  0.1077 -0.1143
 7468SOL    HW125358   5.876   8.076   4.589  0.2040 -0.9226  0.1671
 7468SOL    HW225359   5.897   8.069   4.739 -0.0560 -0.3215  0.2343
 7469SOL     OW25360   4.275   3.421   3.095 -0.0003  0.0683 -0.0819
 7469SOL    HW125361   4.224   3.479   3.038 -0.4386 -1.5249 -1.4020
 7469SOL    HW225362   4.211   3.356   3.125  0.4810  0.2265  1.3556
 7470SOL     OW25363   1.998   0.816   3.061  0.5260  0.1493  0.3730
 7470SOL    HW125364   1.972   0.724   3.064  2.3925 -0.4336 -0.0841
 7470SOL    HW225365   1.990   0.846   3.151  0.7712 -0.7359  0.7023
 7471SOL     OW25366   0.694   3.173   1.562  0.2132  0.0002 -0.0053
 7471SOL    HW125367   0.762   3.149   1.626 -0.4489  0.8543  1.0444
 7471SOL    HW225368   0.622   3.207   1.615 -1.2677 -1.3642 -1.0599
 7472SOL     OW25369   5.036   6.913   6.561 -0.2562  0.6995 -0.2331
 7472SOL    HW125370   5.081   6.889   6.480 -0.6652  0.1991 -0.3179
 7472SOL    HW225371   4.979   6.985   6.536 -1.9358 -0.7729 -0.9026
 7473SOL     OW25372   1.748   1.072   4.688 -0.0216 -0.1033  0.1669
 7473SOL    HW125373   1.842   1.075   4.670  0.2224  0.7095  1.4061
 7473SOL    HW225374   1.712   1.150   4.646 -0.0603 -0.1448  0.1225
 7474SOL     OW25375   5.406   5.084   3.912  0.0747 -0.3647  0.1416
 7474SOL    HW125376   5.325   5.135   3.903 -0.2988 -0.8317  0.7957
 7474SOL    HW225377   5.393   5.008   3.854  0.4608  0.0561 -0.5130
 7475SOL     OW25378   0.046   6.583   6.776  0.1685  0.3551  0.7005
 7475SOL    HW125379  -0.023   6.606   6.713 -0.7079  0.8155  1.7856
 7475SOL    HW225380   0.072   6.494   6.752  0.9676  1.0736 -1.2533
 7476SOL     OW25381   2.817   3.433   2.925 -0.1647 -0.2201  0.5851
 7476SOL    HW125382   2.810   3.417   3.019 -2.3577 -2.0782  0.2002
 7476SOL    HW225383   2.866   3.358   2.891 -0.5820 -0.2789  0.0967
 7477SOL     OW25384   0.788   3.591   3.472 -0.6745  0.1861  0.4309
 7477SOL    HW125385   0.736   3.669   3.450  0.3189  1.0572  1.0552
 7477SOL    HW225386   0.855   3.588   3.404 -0.5766  0.0099  0.5373
 7478SOL     OW25387   2.809   2.924   5.180 -0.1546 -0.3478 -0.4636
 7478SOL    HW125388   2.765   2.978   5.245 -0.7162 -0.4497 -0.7497
 7478SOL    HW225389   2.865   2.984   5.131  0.3081 -0.2803  0.1424
 7479SOL     OW25390   0.254   2.958   7.693 -0.5701  0.1493  0.1207
 7479SOL    HW125391   0.190   3.000   7.750 -0.9089 -0.8405  0.4950
 7479SOL    HW225392   0.286   2.883   7.743 -0.2148 -0.2245 -0.6391
 7480SOL     OW25393   7.664   3.249   7.308  0.2416 -0.0288  0.0045
 7480SOL    HW125394   7.722   3.298   7.249  1.1251  0.5119  1.2697
 7480SOL    HW225395   7.680   3.157   7.286 -0.2178  0.1749 -1.2808
 7481SOL     OW25396   1.084   6.541   5.589 -0.0405 -0.3289  0.5678
 7481SOL    HW125397   1.102   6.635   5.596 -0.4669 -0.3668  3.4818
 7481SOL    HW225398   1.169   6.499   5.605 -0.0080 -0.4787  0.0459
 7482SOL     OW25399   1.540   7.454   1.423 -0.2015 -0.1072 -0.1340
 7482SOL    HW125400   1.613   7.417   1.375  0.3332  2.1944 -1.2432
 7482SOL    HW225401   1.467   7.455   1.360 -0.9600 -1.5599  0.6806
 7483SOL     OW25402   4.297   7.425   3.717  0.3346  0.2460 -0.0100
 7483SOL    HW125403   4.332   7.483   3.784  0.6728  0.8254 -0.6756
 7483SOL    HW225404   4.371   7.367   3.696  0.1225 -0.1629  0.3635
 7484SOL     OW25405   1.549   0.377   3.301 -0.0400  0.0960  0.0012
 7484SOL    HW125406   1.454   0.365   3.293 -0.3282  1.0735  1.5675
 7484SOL    HW225407   1.577   0.407   3.214 -1.1319 -0.3206 -0.5143
 7485SOL     OW25408   3.224   4.026   5.362 -0.1833  0.4898  0.2208
 7485SOL    HW125409   3.318   4.024   5.346 -0.3391  0.7952 -0.8156
 7485SOL    HW225410   3.207   4.116   5.390 -0.0732  0.2498  1.0787
 7486SOL     OW25411   2.304   6.480   6.323  0.5335 -0.4445  0.1173
 7486SOL    HW125412   2.383   6.503   6.274  0.8182 -0.7723  0.4230
 7486SOL    HW225413   2.276   6.562   6.363  0.7476 -0.3365  0.0481
 7487SOL     OW25414   6.842   0.840   3.602 -0.6287  0.3849  0.4448
 7487SOL    HW125415   6.905   0.894   3.554  0.6928 -1.5385 -0.0725
 7487SOL    HW225416   6.886   0.756   3.614 -3.4099 -1.4040 -0.7541
 7488SOL     OW25417   3.138   5.677   2.620 -0.2442 -0.2831  0.1425
 7488SOL    HW125418   3.167   5.733   2.548 -1.2176  1.0966  0.7722
 7488SOL    HW225419   3.043   5.684   2.619 -0.4018 -2.1259  0.1135
 7489SOL     OW25420   3.341   0.085   3.281 -0.2514 -0.6782 -0.0507
 7489SOL    HW125421   3.278   0.156   3.265  0.0703 -0.4919 -0.5029
 7489SOL    HW225422   3.361   0.051   3.194 -0.9208 -1.7829  0.2143
 7490SOL     OW25423   7.827   0.040   6.663  0.0812 -0.0073  0.1776
 7490SOL    HW125424   7.733   0.046   6.679 -0.0997  1.1796 -1.1161
 7490SOL    HW225425   7.836  -0.033   6.602 -0.2736  1.0802 -1.2476
 7491SOL     OW25426   5.889   6.323   2.088  0.1609  0.2555 -0.1888
 7491SOL    HW125427   5.980   6.334   2.064  0.1204  1.3801  0.1248
 7491SOL    HW225428   5.885   6.235   2.126  1.8200  1.3188  2.7918
 7492SOL     OW25429   6.416   1.989   5.848 -0.0951 -0.0080 -0.2703
 7492SOL    HW125430   6.465   2.070   5.863  0.0868  0.1846 -1.7878
 7492SOL    HW225431   6.328   2.009   5.880  0.6645 -0.2392  2.1511
 7493SOL     OW25432   3.531   6.861   1.729  0.7120  0.1945 -0.4028
 7493SOL    HW125433   3.537   6.776   1.687  0.7089 -0.1508  0.2834
 7493SOL    HW225434   3.538   6.843   1.823  0.3781  0.9142 -0.2253
 7494SOL     OW25435   4.418   7.870   4.047  0.2112 -0.1221  0.4164
 7494SOL    HW125436   4.488   7.832   4.099 -0.1397 -0.4152  0.6812
 7494SOL    HW225437   4.462   7.914   3.974  0.5983 -1.5836 -0.2679
 7495SOL     OW25438   1.565   2.841   1.068 -0.5048  0.1534 -0.1777
 7495SOL    HW125439   1.659   2.823   1.064 -0.5951 -0.0887 -1.9158
 7495SOL    HW225440   1.539   2.852   0.977 -1.9417  1.4648  0.3621
 7496SOL     OW25441   0.177   3.387   6.148  0.6674  0.2933  0.7739
 7496SOL    HW125442   0.122   3.411   6.223  1.8791  0.9182  1.5050
 7496SOL    HW225443   0.170   3.291   6.143 -0.6650  0.3845  0.6896
 7497SOL     OW25444   1.018   2.548   0.621 -0.6169 -0.1001 -0.4442
 7497SOL    HW125445   1.039   2.612   0.689  2.5800  0.0092 -1.3857
 7497SOL    HW225446   0.927   2.524   0.638 -0.1112  0.2150  3.5934
 7498SOL     OW25447   6.050   3.965   1.878 -0.4823 -0.6960  0.0382
 7498SOL    HW125448   6.093   4.051   1.880 -1.8655  0.0170  0.6664
 7498SOL    HW225449   6.002   3.965   1.795 -1.6421 -0.2486  0.6921
 7499SOL     OW25450   1.542   7.791   7.401  0.8676 -0.3279 -0.3510
 7499SOL    HW125451   1.634   7.806   7.423  0.3676  1.8680  0.5406
 7499SOL    HW225452   1.513   7.871   7.358 -0.8544 -0.5927  0.2008
 7500SOL     OW25453   7.247   7.618   1.150  0.1435  0.2774 -0.3473
 7500SOL    HW125454   7.179   7.593   1.088 -0.2314  2.3171 -0.8437
 7500SOL    HW225455   7.292   7.691   1.107  0.4353  1.1834  1.4026
 7501SOL     OW25456   1.752   7.468   2.226  0.5847  0.3801 -0.0676
 7501SOL    HW125457   1.836   7.462   2.181  1.2749 -0.7022  1.2786
 7501SOL    HW225458   1.753   7.555   2.266  0.7341  0.6585 -0.6706
 7502SOL     OW25459   5.007   7.994   1.615  0.5007 -0.2441 -0.0849
 7502SOL    HW125460   5.050   7.944   1.685  1.2377 -0.8508 -0.9542
 7502SOL    HW225461   5.076   8.047   1.577 -0.0579  0.6576  0.1112
 7503SOL     OW25462   4.521   6.220   7.578 -0.3860  0.4982  0.2526
 7503SOL    HW125463   4.497   6.194   7.488  2.5043  3.2052 -1.5102
 7503SOL    HW225464   4.603   6.172   7.595 -0.9953 -0.1146  1.5524
 7504SOL     OW25465   3.379   0.720   0.972  0.5024 -0.4907 -0.2423
 7504SOL    HW125466   3.413   0.677   1.050  0.2478  0.0447  0.1705
 7504SOL    HW225467   3.322   0.655   0.931  1.1951 -1.0245 -0.3781
 7505SOL     OW25468   6.905   2.994   6.170  0.3631 -0.1807  0.4957
 7505SOL    HW125469   6.880   3.086   6.185  1.0121  0.1841 -0.5448
 7505SOL    HW225470   6.994   2.987   6.206  0.0635 -0.5950  1.1821
 7506SOL     OW25471   5.923   0.534   1.102 -0.0596 -0.0131 -0.1120
 7506SOL    HW125472   5.845   0.540   1.159 -0.2279 -0.1037 -0.3307
 7506SOL    HW225473   5.898   0.472   1.034 -0.4438  1.2938 -1.2068
 7507SOL     OW25474   7.553   6.335   6.714  0.1905 -0.2127  0.2167
 7507SOL    HW125475   7.559   6.255   6.768  2.6440  0.7766  1.5901
 7507SOL    HW225476   7.639   6.341   6.672  0.6344  2.4191  1.3029
 7508SOL     OW25477   4.955   5.204   5.388 -0.0690  0.2911  0.3518
 7508SOL    HW125478   5.023   5.261   5.351 -0.6229  1.4279  1.0126
 7508SOL    HW225479   5.002   5.134   5.431  0.6977  1.0068  0.7095
 7509SOL     OW25480   7.160   6.401   5.641  0.4155  0.0743  0.4073
 7509SOL    HW125481   7.158   6.487   5.599  0.5259  0.1782  0.6128
 7509SOL    HW225482   7.084   6.401   5.699 -0.8808 -0.7940 -1.1853
 7510SOL     OW25483   6.085   5.440   5.556  0.1551  0.8531 -0.1017
 7510SOL    HW125484   6.124   5.443   5.643  0.7531  1.2128 -0.3787
 7510SOL    HW225485   6.065   5.531   5.536  0.1073  0.7797 -0.3871
 7511SOL     OW25486   4.578   0.980   0.163 -0.3123  0.5485  0.2388
 7511SOL    HW125487   4.632   1.056   0.143 -1.3193  0.7541 -1.9519
 7511SOL    HW225488   4.509   1.014   0.220  0.1748  0.9085  0.6230
 7512SOL     OW25489   6.781   3.711   1.765 -0.3155  0.5009  0.0551
 7512SOL    HW125490   6.794   3.650   1.692 -1.4045 -1.1810  1.1850
 7512SOL    HW225491   6.701   3.759   1.742 -0.0094  0.8070 -0.3822
 7513SOL     OW25492   3.345   7.403   1.023  0.0158 -0.1089  0.1140
 7513SOL    HW125493   3.432   7.368   1.004  0.8383  1.4435  0.8434
 7513SOL    HW225494   3.286   7.351   0.968  1.3779 -1.2482 -0.3343
 7514SOL     OW25495   1.290   5.444   3.195  0.0260  0.6720 -0.1310
 7514SOL    HW125496   1.219   5.379   3.188  0.7695 -0.0011 -2.0883
 7514SOL    HW225497   1.370   5.393   3.184  0.8614  1.4265  2.1013
 7515SOL     OW25498   2.281   0.879   7.162  0.3558 -0.3143  0.3079
 7515SOL    HW125499   2.313   0.880   7.072  0.5846  0.4045  0.3885
 7515SOL    HW225500   2.217   0.951   7.166  2.2008  1.3892  1.3450
 7516SOL     OW25501   6.219   5.357   1.247 -0.5258  0.0240 -0.1626
 7516SOL    HW125502   6.183   5.426   1.302  0.4007  1.7251 -1.6062
 7516SOL    HW225503   6.257   5.402   1.172 -1.8212 -2.1645 -2.3007
 7517SOL     OW25504   4.519   2.686   4.982  0.4527 -0.8051  0.1501
 7517SOL    HW125505   4.443   2.631   4.967  1.1964 -1.5028 -1.1388
 7517SOL    HW225506   4.538   2.725   4.897  0.8712  0.2487  0.7078
 7518SOL     OW25507   7.941   5.226   6.199  0.0580 -0.2697  0.9678
 7518SOL    HW125508   7.891   5.286   6.144  0.2905  0.2494  1.3156
 7518SOL    HW225509   8.012   5.196   6.142  0.1518  0.0715  0.8987
 7519SOL     OW25510   5.237   0.265   0.733  0.3202 -0.1015 -0.4742
 7519SOL    HW125511   5.311   0.253   0.673 -0.5135 -0.4259 -1.4805
 7519SOL    HW225512   5.276   0.293   0.815  1.6145 -0.8958 -0.7900
 7520SOL     OW25513   1.738   2.059   5.829  0.1009 -0.7444  0.4942
 7520SOL    HW125514   1.778   2.131   5.878  1.3196 -2.0756  1.5370
 7520SOL    HW225515   1.739   2.089   5.738 -0.0786  0.8296  0.9743
 7521SOL     OW25516   2.787   5.997   5.060 -0.4311  0.4366  0.4135
 7521SOL    HW125517   2.811   6.020   4.971 -0.4422 -0.1726  0.2534
 7521SOL    HW225518   2.839   5.920   5.080 -2.2222 -0.9199  0.0591
 7522SOL     OW25519   3.086   6.982   5.963  0.2919 -0.3443  0.3325
 7522SOL    HW125520   3.157   7.011   5.905 -0.7676 -0.9309 -1.3430
 7522SOL    HW225521   3.121   6.992   6.051  1.8537  0.9379 -0.3831
 7523SOL     OW25522   2.014   6.641   5.773  0.7608  0.3212  0.2587
 7523SOL    HW125523   2.027   6.709   5.706  0.3319  0.7098  0.5661
 7523SOL    HW225524   1.959   6.683   5.838  0.4126 -0.3659  0.4042
 7524SOL     OW25525   5.792   0.112   0.403 -0.2735 -0.0448  0.0867
 7524SOL    HW125526   5.841   0.159   0.471  0.9267 -0.9689 -0.1054
 7524SOL    HW225527   5.716   0.076   0.450 -1.0318  1.7092  0.3104
 7525SOL     OW25528   0.015   2.145   7.491 -0.4307  0.3018 -0.8048
 7525SOL    HW125529   0.013   2.165   7.397 -1.7970 -1.4475 -1.2179
 7525SOL    HW225530   0.003   2.050   7.495 -2.1109  0.5159  1.1776
 7526SOL     OW25531   4.925   2.381   4.589 -0.1985  0.0713  0.0112
 7526SOL    HW125532   4.951   2.292   4.566  1.5415  0.4348  0.4822
 7526SOL    HW225533   4.940   2.432   4.509  1.0068  0.3663  0.4124
 7527SOL     OW25534   3.830   3.910   2.928  0.2255  0.3526  0.3481
 7527SOL    HW125535   3.761   3.976   2.924  1.4029  1.7935  2.2601
 7527SOL    HW225536   3.787   3.828   2.904 -2.0094  1.2992  0.9211
 7528SOL     OW25537   0.505   7.975   6.498  0.1117 -0.3364 -0.3590
 7528SOL    HW125538   0.582   7.918   6.491 -0.1299 -0.7832  0.4336
 7528SOL    HW225539   0.515   8.038   6.426  1.0685 -0.5544 -0.4361
 7529SOL     OW25540   5.868   8.063   5.289 -0.1644  0.3361 -0.0889
 7529SOL    HW125541   5.840   8.094   5.203  0.4383 -1.0818 -0.8343
 7529SOL    HW225542   5.963   8.075   5.288 -0.0234 -0.6928 -0.0675
 7530SOL     OW25543   6.444   4.003   5.835  0.0495  0.0677  0.2209
 7530SOL    HW125544   6.423   4.093   5.808 -0.8778 -0.2129 -0.0419
 7530SOL    HW225545   6.521   3.980   5.783  0.9009  1.0424  1.0006
 7531SOL     OW25546   2.750   4.959   6.530 -0.2979 -0.4650  0.4814
 7531SOL    HW125547   2.699   5.041   6.533 -0.5013 -0.4888 -1.3738
 7531SOL    HW225548   2.807   4.964   6.607 -1.2536  0.7784  1.1602
 7532SOL     OW25549   0.225   0.743   2.171  0.4062  0.4362 -0.8576
 7532SOL    HW125550   0.159   0.677   2.152  0.0461  0.5313  0.0096
 7532SOL    HW225551   0.179   0.826   2.159  0.2366  0.4991  0.1628
 7533SOL     OW25552   7.028   5.548   4.164  0.7618 -0.3058 -0.3644
 7533SOL    HW125553   7.002   5.605   4.236  0.7682 -2.4021  1.3918
 7533SOL    HW225554   7.109   5.587   4.131  0.6220  0.8444  0.5671
 7534SOL     OW25555   2.277   8.127   7.172  0.0378 -0.4662 -1.2957
 7534SOL    HW125556   2.213   8.056   7.171 -1.7118  1.0477 -1.1646
 7534SOL    HW225557   2.226   8.206   7.161  1.4039  1.2032  2.4917
 7535SOL     OW25558   4.191   0.059   0.898  0.1325 -0.0711  0.6506
 7535SOL    HW125559   4.104   0.032   0.927 -0.9749  0.7221 -1.6229
 7535SOL    HW225560   4.227  -0.019   0.856  0.1304 -0.1467  0.7887
 7536SOL     OW25561   6.687   1.758   3.640  0.3910  0.1356  0.0161
 7536SOL    HW125562   6.678   1.790   3.729  1.0620  1.6274 -0.4148
 7536SOL    HW225563   6.780   1.766   3.620  0.3902 -0.9531 -0.5607
 7537SOL     OW25564   4.180   3.571   4.440  0.4876  0.1180 -0.5208
 7537SOL    HW125565   4.272   3.552   4.453  0.2727  0.1302  1.2708
 7537SOL    HW225566   4.135   3.487   4.452  0.1428  0.4134  0.4026
 7538SOL     OW25567   5.841   0.422   3.009 -0.2034  0.3293  0.3198
 7538SOL    HW125568   5.836   0.419   2.914  0.9671  0.3210  0.2439
 7538SOL    HW225569   5.793   0.501   3.033  0.7861  1.1631 -0.3904
 7539SOL     OW25570   7.203   3.648   1.429 -0.8111  0.3548 -0.2021
 7539SOL    HW125571   7.134   3.611   1.484  0.3059 -0.8330  0.4458
 7539SOL    HW225572   7.271   3.675   1.490  0.0313 -0.0784 -0.9163
 7540SOL     OW25573   7.496   5.994   3.682 -0.1614 -0.2165  0.4399
 7540SOL    HW125574   7.443   5.990   3.602 -0.4977  0.6596  0.6144
 7540SOL    HW225575   7.586   5.985   3.650 -0.2936  0.1320 -0.0440
 7541SOL     OW25576   6.910   4.621   7.234  0.4712 -0.2983  0.1662
 7541SOL    HW125577   6.835   4.565   7.216  0.3746  0.1912 -1.0256
 7541SOL    HW225578   6.873   4.698   7.277 -0.0171  0.8358 -2.1606
 7542SOL     OW25579   6.172   3.788   1.422  0.0223 -0.2531  0.5939
 7542SOL    HW125580   6.132   3.736   1.491  0.6808  0.8683  1.8567
 7542SOL    HW225581   6.215   3.860   1.467  0.9284  0.2285 -0.9450
 7543SOL     OW25582   5.130   7.967   2.315  0.0667 -0.2441  0.4980
 7543SOL    HW125583   5.203   7.952   2.375  0.0410 -0.8817  0.3753
 7543SOL    HW225584   5.149   8.051   2.274  1.1137 -0.7595 -0.0816
 7544SOL     OW25585   1.425   7.304   5.777 -0.3600 -0.2097 -0.3648
 7544SOL    HW125586   1.440   7.376   5.714 -1.6340 -1.2536 -1.9280
 7544SOL    HW225587   1.491   7.318   5.845  0.6492  1.3572 -1.5974
 7545SOL     OW25588   8.005   6.793   1.459  0.0076  0.0832  0.2038
 7545SOL    HW125589   7.918   6.830   1.478 -0.9671 -2.4297  1.1018
 7545SOL    HW225590   7.991   6.738   1.382  0.7550 -0.4662  0.4446
 7546SOL     OW25591   7.641   0.226   7.429 -0.4484  0.7271 -0.1722
 7546SOL    HW125592   7.688   0.145   7.452 -2.3218  0.1189  1.9286
 7546SOL    HW225593   7.585   0.201   7.356  0.6286  0.7871 -1.0441
 7547SOL     OW25594   7.484   6.543   1.880  0.3714  0.5295 -0.1083
 7547SOL    HW125595   7.459   6.526   1.789 -0.0973 -0.7144  0.2311
 7547SOL    HW225596   7.492   6.638   1.885 -2.0632  0.8434 -0.8363
 7548SOL     OW25597   5.295   4.774   4.928 -0.7893  0.4355 -1.0674
 7548SOL    HW125598   5.261   4.863   4.928  0.1165  0.7834 -1.1829
 7548SOL    HW225599   5.292   4.747   5.020 -0.0608  0.9675 -0.8874
 7549SOL     OW25600   2.289   5.920   4.040  0.2286 -0.0359 -0.4572
 7549SOL    HW125601   2.267   5.866   4.116  0.3025  0.9636  0.2906
 7549SOL    HW225602   2.213   5.912   3.983 -0.3365  0.1152  0.2514
 7550SOL     OW25603   7.984   2.445   4.325  0.0857  0.0755  0.2988
 7550SOL    HW125604   7.899   2.458   4.367 -0.2140 -2.1184  0.4682
 7550SOL    HW225605   8.031   2.528   4.339 -2.6603  2.0889 -1.4268
 7551SOL     OW25606   2.646   5.492   6.248  0.1093  0.2391  0.1809
 7551SOL    HW125607   2.689   5.516   6.331 -0.5595 -0.1219  0.6447
 7551SOL    HW225608   2.717   5.488   6.185  0.8593 -0.9453  1.0575
 7552SOL     OW25609   3.013   1.172   0.252  0.3320 -0.0072  0.0308
 7552SOL    HW125610   2.931   1.206   0.215  0.0428  0.7131  1.2982
 7552SOL    HW225611   3.081   1.221   0.207  0.0902 -0.5480 -0.9715
 7553SOL     OW25612   0.898   3.451   4.850  0.0386 -0.1064 -0.2844
 7553SOL    HW125613   0.930   3.361   4.848 -1.5122 -0.6911 -0.7026
 7553SOL    HW225614   0.822   3.448   4.909  0.2770  1.0402  0.1034
 7554SOL     OW25615   2.902   5.782   5.699  0.2514  0.5012  0.9376
 7554SOL    HW125616   2.881   5.698   5.659  2.0924  0.2786  0.3217
 7554SOL    HW225617   2.892   5.846   5.628  0.3350  0.5789  0.9949
 7555SOL     OW25618   3.053   5.377   5.767  0.1361 -0.1298  0.1643
 7555SOL    HW125619   3.087   5.288   5.752  0.3817  0.1533 -1.0641
 7555SOL    HW225620   2.963   5.363   5.798 -0.2034 -0.8144 -1.0313
 7556SOL     OW25621   1.543   0.343   0.416 -0.1496 -0.4992  1.2067
 7556SOL    HW125622   1.601   0.418   0.429 -0.4589 -0.1225  0.4630
 7556SOL    HW225623   1.458   0.382   0.396 -0.2101 -1.0382  0.3564
 7557SOL     OW25624   0.900   6.633   3.169 -0.3202 -0.3089 -0.1929
 7557SOL    HW125625   0.988   6.653   3.203  0.1836 -1.2501 -0.9006
 7557SOL    HW225626   0.908   6.546   3.131 -1.1837  0.1857 -1.5819
 7558SOL     OW25627   1.827   1.503   0.800  0.4236  0.2020  0.0112
 7558SOL    HW125628   1.830   1.590   0.759  0.8312 -0.0830 -0.5796
 7558SOL    HW225629   1.809   1.521   0.892 -0.1606  0.8836 -0.2212
 7559SOL     OW25630   7.335   7.416   6.632  0.0884 -0.0343  0.0296
 7559SOL    HW125631   7.395   7.354   6.591  0.0843  1.1799 -1.9897
 7559SOL    HW225632   7.389   7.494   6.648 -0.7839  0.9258 -1.4305
 7560SOL     OW25633   4.069   0.253   5.362 -0.2288  0.0115  0.1843
 7560SOL    HW125634   4.156   0.248   5.402 -0.3295 -0.2915  0.3755
 7560SOL    HW225635   4.067   0.338   5.319  0.5746 -0.4375 -0.7829
 7561SOL     OW25636   6.555   0.802   1.081 -0.2697  0.3875 -0.1990
 7561SOL    HW125637   6.610   0.874   1.049 -0.6552  0.5623 -0.4845
 7561SOL    HW225638   6.494   0.785   1.009  0.8675 -1.3512 -0.8297
 7562SOL     OW25639   2.641   4.205   2.554 -0.1929 -0.3928  0.0343
 7562SOL    HW125640   2.588   4.285   2.561  0.1490  0.1274 -2.2754
 7562SOL    HW225641   2.702   4.224   2.483  1.1528 -2.0596  0.6932
 7563SOL     OW25642   1.432   3.379   4.785  0.0975  0.0420 -0.0813
 7563SOL    HW125643   1.486   3.351   4.712  2.8365  2.7143  0.7111
 7563SOL    HW225644   1.494   3.392   4.857 -1.4933  3.3359  0.9029
 7564SOL     OW25645   0.322   0.395   6.335  0.2995 -0.2502 -0.4357
 7564SOL    HW125646   0.247   0.444   6.299  0.6503  1.7069  1.3117
 7564SOL    HW225647   0.399   0.437   6.297  0.5919 -2.0201 -1.9355
 7565SOL     OW25648   7.626   1.824   2.343 -0.2570 -0.6339 -0.0571
 7565SOL    HW125649   7.550   1.823   2.285 -0.7829 -0.8167  0.6254
 7565SOL    HW225650   7.641   1.917   2.362 -0.2934 -0.5961 -0.2140
 7566SOL     OW25651   6.220   1.888   3.740  0.2772  0.4123  0.2777
 7566SOL    HW125652   6.231   1.964   3.798  0.0019  0.7006 -0.0454
 7566SOL    HW225653   6.237   1.923   3.652  1.8760 -0.2667  0.2757
 7567SOL     OW25654   4.549   4.415   6.198 -0.3916  0.3195  0.3857
 7567SOL    HW125655   4.602   4.489   6.167  0.3071 -0.2819  0.1323
 7567SOL    HW225656   4.610   4.360   6.248  0.1525 -2.1827 -2.7399
 7568SOL     OW25657   3.576   7.963   5.687 -0.1812  0.5309 -0.3628
 7568SOL    HW125658   3.506   7.899   5.699  1.2357 -1.0514 -0.1011
 7568SOL    HW225659   3.562   7.999   5.600 -0.2488 -1.1471 -1.0713
 7569SOL     OW25660   5.017   7.575   6.301 -0.3432  0.1940  0.1159
 7569SOL    HW125661   4.942   7.580   6.241 -1.6347 -0.4675  1.6085
 7569SOL    HW225662   5.029   7.665   6.333 -0.5211  0.2905 -0.0876
 7570SOL     OW25663   1.262   7.091   0.482  0.2644  0.0961 -0.1313
 7570SOL    HW125664   1.242   7.016   0.537 -2.3444  2.8693  3.1755
 7570SOL    HW225665   1.328   7.140   0.532  1.8829  0.1874 -2.1862
 7571SOL     OW25666   8.135   5.136   3.771 -0.6065 -0.2060 -0.1995
 7571SOL    HW125667   8.047   5.113   3.740 -0.8992 -0.4884  0.8064
 7571SOL    HW225668   8.122   5.163   3.861  0.4714 -1.3056  0.3160
 7572SOL     OW25669   4.047   3.906   7.030 -0.0950  0.3499 -0.4773
 7572SOL    HW125670   3.978   3.923   7.095 -1.2462 -0.5730 -1.4026
 7572SOL    HW225671   4.129   3.920   7.077 -0.8921  2.3283  0.4339
 7573SOL     OW25672   4.229   6.047   4.833  0.5561 -0.1133  0.0735
 7573SOL    HW125673   4.169   6.092   4.893  0.8847 -0.9689  1.0779
 7573SOL    HW225674   4.191   6.060   4.746 -1.3000 -0.9582  0.7034
 7574SOL     OW25675   4.975   3.405   2.553  0.0701 -0.4476  0.4559
 7574SOL    HW125676   4.980   3.497   2.524 -1.2792 -0.1686  1.0540
 7574SOL    HW225677   5.046   3.362   2.505 -1.2893  0.2324 -2.3853
 7575SOL     OW25678   0.222   5.035   6.453  0.2927  0.4527 -0.3004
 7575SOL    HW125679   0.272   5.084   6.518 -0.8386 -1.0076  1.7818
 7575SOL    HW225680   0.202   4.952   6.495 -0.0386 -0.8202 -2.7626
 7576SOL     OW25681   5.635   4.383   1.351 -0.2082  0.1287 -0.4241
 7576SOL    HW125682   5.616   4.303   1.301  1.0660  1.4657 -3.2264
 7576SOL    HW225683   5.724   4.371   1.382 -0.2330  0.2197 -0.3176
 7577SOL     OW25684   5.189   6.419   3.748  0.1321 -0.9725  0.0547
 7577SOL    HW125685   5.254   6.372   3.695  0.0809 -2.0222  0.8859
 7577SOL    HW225686   5.236   6.442   3.828 -0.4975 -1.7322  0.6595
 7578SOL     OW25687   7.960   1.833   2.728  0.0976  0.2670 -0.2941
 7578SOL    HW125688   7.970   1.928   2.736 -1.2234  0.3445  0.7545
 7578SOL    HW225689   7.964   1.816   2.634  0.7916  1.2972 -0.4632
 7579SOL     OW25690   0.892   7.453   4.041  0.2013  0.1389 -0.2459
 7579SOL    HW125691   0.936   7.402   4.108  0.2274  2.2776  1.4860
 7579SOL    HW225692   0.918   7.412   3.959  1.8740 -1.3159  0.9241
 7580SOL     OW25693   6.206   6.375   0.547  0.3140  0.6339  0.0669
 7580SOL    HW125694   6.289   6.328   0.536 -0.3042 -0.5264  0.2023
 7580SOL    HW225695   6.222   6.435   0.620  0.9084  0.1007  0.3839
 7581SOL     OW25696   0.600   6.704   5.379  0.2599 -0.2859  0.1768
 7581SOL    HW125697   0.656   6.695   5.456 -0.3644  0.8404  0.7967
 7581SOL    HW225698   0.602   6.618   5.338  0.4131 -0.9984  1.5885
 7582SOL     OW25699   0.370   6.685   7.143  0.4052  0.1349  0.6230
 7582SOL    HW125700   0.373   6.700   7.238 -0.5419  2.2445  0.3586
 7582SOL    HW225701   0.331   6.598   7.134 -0.7405  0.4573  2.1425
 7583SOL     OW25702   3.264   2.114   4.348 -0.4343 -0.5804  0.3629
 7583SOL    HW125703   3.349   2.147   4.378  0.2800 -1.5249 -0.5387
 7583SOL    HW225704   3.224   2.076   4.426 -0.4565  0.7018  1.0015
 7584SOL     OW25705   3.336   2.757   1.220  0.8622  0.0863  0.3120
 7584SOL    HW125706   3.411   2.782   1.166  0.6221  0.8088  0.3006
 7584SOL    HW225707   3.295   2.840   1.244 -0.2341 -0.3183 -0.0921
 7585SOL     OW25708   4.953   3.759   6.987  0.1881  0.5377  0.3639
 7585SOL    HW125709   4.933   3.849   7.012 -0.1440  0.6447 -0.2806
 7585SOL    HW225710   4.906   3.706   7.052 -1.9458  0.7902 -0.8754
 7586SOL     OW25711   7.702   6.992   3.621 -0.0230  0.1364 -0.1827
 7586SOL    HW125712   7.644   7.008   3.546  0.4806 -0.7509 -0.7776
 7586SOL    HW225713   7.787   6.972   3.582  0.6635  1.2731  0.6839
 7587SOL     OW25714   2.687   0.412   4.763 -0.3603  0.0302 -0.3993
 7587SOL    HW125715   2.611   0.357   4.782 -0.9818  1.7852  2.8586
 7587SOL    HW225716   2.762   0.358   4.788 -0.7608 -0.4261 -0.1588
 7588SOL     OW25717   2.615   1.866   3.457  0.2591  0.5868  0.1193
 7588SOL    HW125718   2.655   1.827   3.379  1.7620  0.4862  0.9071
 7588SOL    HW225719   2.532   1.819   3.466  0.4019  0.0744 -0.9829
 7589SOL     OW25720   4.588   5.585   2.984  0.1484 -0.1245 -0.4930
 7589SOL    HW125721   4.676   5.548   2.982  0.0428 -0.6784  2.1870
 7589SOL    HW225722   4.530   5.510   2.996 -0.3303  0.5120  1.6440
 7590SOL     OW25723   6.611   0.251   4.207  0.2239 -0.0289  0.4244
 7590SOL    HW125724   6.688   0.302   4.182  1.4153 -1.1830  1.5634
 7590SOL    HW225725   6.630   0.162   4.176 -1.9565  0.1816 -1.8314
 7591SOL     OW25726   4.417   3.128   4.480  0.0887  0.3432 -0.2193
 7591SOL    HW125727   4.434   3.096   4.569 -0.3233 -0.1209 -0.3008
 7591SOL    HW225728   4.356   3.065   4.443 -0.0018  0.7156 -0.7226
 7592SOL     OW25729   6.802   5.498   6.030 -0.5743 -0.4654  0.1672
 7592SOL    HW125730   6.835   5.479   6.118 -0.0609 -0.8655 -0.1024
 7592SOL    HW225731   6.801   5.413   5.986  4.6213  0.2042 -2.0504
 7593SOL     OW25732   8.016   3.911   4.871 -0.6728  0.0912 -0.2157
 7593SOL    HW125733   8.013   3.821   4.903 -2.5970  0.3580  0.4521
 7593SOL    HW225734   7.943   3.918   4.810 -0.4703  1.1625 -0.3540
 7594SOL     OW25735   4.602   4.094   4.487 -0.1986 -0.1198 -0.7342
 7594SOL    HW125736   4.612   4.125   4.397  2.9614 -0.1053 -0.4708
 7594SOL    HW225737   4.589   4.000   4.479 -0.6664 -0.0238 -1.2001
 7595SOL     OW25738   0.772   4.100   3.413  0.1136 -0.0474 -0.0569
 7595SOL    HW125739   0.684   4.133   3.395 -0.2700 -1.0256 -0.0326
 7595SOL    HW225740   0.784   4.115   3.507 -0.1981 -0.3036  0.0253
 7596SOL     OW25741   6.046   5.125   4.337  0.0323  0.2794  0.0645
 7596SOL    HW125742   6.128   5.089   4.305 -0.6542 -0.3351 -1.0637
 7596SOL    HW225743   6.047   5.216   4.306  1.2513  0.9541  1.9447
 7597SOL     OW25744   2.124   5.813   4.764 -0.1634 -0.1170  0.4716
 7597SOL    HW125745   2.076   5.885   4.723  0.6510 -0.4396 -1.1284
 7597SOL    HW225746   2.081   5.734   4.730  1.2760 -0.4075 -0.7910
 7598SOL     OW25747   3.494   6.648   6.098 -0.3264 -0.3607  0.2273
 7598SOL    HW125748   3.572   6.639   6.153  0.0196 -0.6474 -0.3046
 7598SOL    HW225749   3.525   6.691   6.019 -1.0708  1.2741  0.7707
 7599SOL     OW25750   4.837   5.446   5.948 -0.1096  0.5042  0.1362
 7599SOL    HW125751   4.911   5.443   6.008 -0.9680 -0.3049  1.1997
 7599SOL    HW225752   4.852   5.523   5.894  1.7155  0.1105  0.0317
 7600SOL     OW25753   4.579   6.080   2.442  0.1261  0.3199 -0.3495
 7600SOL    HW125754   4.595   6.019   2.369  1.1004  1.1032 -0.8033
 7600SOL    HW225755   4.576   6.024   2.519  0.7742 -0.3436 -0.7882
 7601SOL     OW25756   6.559   4.589   5.174 -0.0356 -0.1716  0.3782
 7601SOL    HW125757   6.650   4.577   5.201  0.1654 -1.7389 -0.8271
 7601SOL    HW225758   6.554   4.550   5.087 -1.6868  0.6292  0.0597
 7602SOL     OW25759   2.867   8.121   5.598  0.3824 -0.1182 -0.0868
 7602SOL    HW125760   2.825   8.195   5.554 -0.1892  0.1996  0.9471
 7602SOL    HW225761   2.953   8.113   5.556  0.0267  0.4508 -0.9360
 7603SOL     OW25762   0.040   7.728   7.184 -0.3958  0.1962 -0.2158
 7603SOL    HW125763  -0.021   7.659   7.208 -0.7018  0.9938  1.4327
 7603SOL    HW225764   0.090   7.745   7.264 -0.4988  2.0309 -0.4973
 7604SOL     OW25765   3.904   5.008   6.544  0.0392  0.0211 -0.2660
 7604SOL    HW125766   3.884   5.042   6.631 -1.0077 -0.6308 -0.2275
 7604SOL    HW225767   3.888   5.081   6.484  0.5227  0.3976  0.0657
 7605SOL     OW25768   2.798   6.993   1.625  0.2900  0.3467 -0.8384
 7605SOL    HW125769   2.763   6.944   1.700  0.6446  1.2619 -0.0508
 7605SOL    HW225770   2.737   6.974   1.554 -0.0680 -0.5301 -0.3145
 7606SOL     OW25771   4.310   4.877   4.952  0.0254  0.1883  0.1051
 7606SOL    HW125772   4.309   4.844   5.042  1.4796 -0.2152  0.0126
 7606SOL    HW225773   4.261   4.959   4.955  1.1282  0.8379  1.5530
 7607SOL     OW25774   1.314   0.281   4.151 -0.7437 -0.8140 -0.1952
 7607SOL    HW125775   1.329   0.194   4.189 -1.6727  0.2687  2.9214
 7607SOL    HW225776   1.395   0.329   4.170 -1.5926  0.0384  1.4528
 7608SOL     OW25777   5.432   1.331   0.233  0.3006 -0.5022 -0.2551
 7608SOL    HW125778   5.496   1.344   0.303 -1.1566 -1.1504  1.2570
 7608SOL    HW225779   5.356   1.383   0.259 -0.0287 -0.1723 -1.7467
 7609SOL     OW25780   0.336   1.796   4.668 -0.1598 -0.0917 -0.1354
 7609SOL    HW125781   0.286   1.744   4.605 -1.1486 -0.4170  0.8926
 7609SOL    HW225782   0.407   1.834   4.616  0.1702 -1.8655 -1.0611
 7610SOL     OW25783   3.583   2.622   6.483  0.2935 -0.4690 -0.5555
 7610SOL    HW125784   3.593   2.528   6.498  0.2213 -1.0539 -3.4898
 7610SOL    HW225785   3.492   2.633   6.457  0.1683  0.5329  0.2207
 7611SOL     OW25786   4.348   1.901   7.402  0.8562  0.0569  0.2008
 7611SOL    HW125787   4.371   1.941   7.486  1.0211 -0.2398  0.2981
 7611SOL    HW225788   4.258   1.873   7.413  1.5144 -1.9257  1.0471
 7612SOL     OW25789   7.817   0.800   6.938  0.1126 -0.4769  0.2206
 7612SOL    HW125790   7.779   0.760   7.015 -0.7049  0.9443  0.5929
 7612SOL    HW225791   7.764   0.768   6.865 -0.8753  0.3070  0.5714
 7613SOL     OW25792   5.264   5.751   7.372 -0.1471  0.0723 -0.1406
 7613SOL    HW125793   5.268   5.779   7.464 -3.1009 -0.0885  0.1408
 7613SOL    HW225794   5.311   5.820   7.324 -0.3565  1.2628  1.2893
 7614SOL     OW25795   7.392   7.515   5.222  0.5675 -0.0463 -0.1442
 7614SOL    HW125796   7.431   7.559   5.146  1.1637 -0.4350 -0.0626
 7614SOL    HW225797   7.404   7.576   5.294 -0.3056  0.4735 -0.4257
 7615SOL     OW25798   3.441   2.774   2.064 -0.0563  0.2669  0.0780
 7615SOL    HW125799   3.463   2.682   2.076 -0.9008 -0.0310 -0.5223
 7615SOL    HW225800   3.505   2.807   2.000 -0.5167 -0.2409 -0.6630
 7616SOL     OW25801   3.714   3.634   5.049 -0.3123 -0.4928  0.1076
 7616SOL    HW125802   3.745   3.557   5.096 -1.4927 -0.8534  0.3412
 7616SOL    HW225803   3.671   3.598   4.971  3.1860  0.1532 -2.3359
 7617SOL     OW25804   1.548   2.509   1.994  0.7788 -0.4986  0.2324
 7617SOL    HW125805   1.497   2.431   1.972 -1.3112  1.0858 -0.9610
 7617SOL    HW225806   1.634   2.492   1.957  0.1445 -1.9335 -0.6781
 7618SOL     OW25807   1.074   4.108   2.882  0.0625 -0.3684  0.5238
 7618SOL    HW125808   0.984   4.114   2.851  0.0114  1.4520  0.9220
 7618SOL    HW225809   1.127   4.103   2.803 -0.3484 -0.9308  0.2784
 7619SOL     OW25810   2.346   5.087   2.523  1.2669  0.8084  0.0344
 7619SOL    HW125811   2.436   5.102   2.494  1.2794  0.4167 -0.1417
 7619SOL    HW225812   2.292   5.129   2.456  1.3217  1.2488  0.2650
 7620SOL     OW25813   1.132   1.569   3.918  0.3688 -0.1730 -0.1851
 7620SOL    HW125814   1.219   1.530   3.906  0.7335  0.2128  1.0285
 7620SOL    HW225815   1.150   1.661   3.937 -0.3010 -0.1211  0.2083
 7621SOL     OW25816   6.936   6.021   0.706  1.0282 -0.7920  0.3118
 7621SOL    HW125817   7.000   6.089   0.684 -1.1261  0.7137 -1.7627
 7621SOL    HW225818   6.856   6.069   0.726 -1.5588 -2.5305 -4.3805
 7622SOL     OW25819   7.609   3.666   5.764 -0.5742  0.7818 -0.0256
 7622SOL    HW125820   7.648   3.583   5.789 -1.3727  0.5171  0.3621
 7622SOL    HW225821   7.569   3.649   5.678  0.3674  1.1267 -0.5526
 7623SOL     OW25822   6.842   3.186   7.105  0.4982 -0.1990 -0.2944
 7623SOL    HW125823   6.917   3.142   7.146  0.1821  0.4946  1.0922
 7623SOL    HW225824   6.862   3.186   7.012  2.0286 -0.3893  0.0107
 7624SOL     OW25825   1.827   4.896   5.393  0.4421 -0.2639  0.0915
 7624SOL    HW125826   1.840   4.970   5.452  1.7103 -1.3441  1.2307
 7624SOL    HW225827   1.867   4.923   5.311  2.9674 -0.4777  1.1605
 7625SOL     OW25828   4.056   0.798   8.029  0.0874  0.0314  0.2066
 7625SOL    HW125829   4.059   0.845   7.946  0.8605 -1.0150 -0.3784
 7625SOL    HW225830   3.999   0.724   8.013  0.9631 -0.6851  0.3155
 7626SOL     OW25831   3.191   2.216   5.102 -0.3497 -0.2395  0.0419
 7626SOL    HW125832   3.144   2.254   5.028 -2.4243 -0.8435  0.9809
 7626SOL    HW225833   3.178   2.278   5.173 -0.9902 -1.1019  0.6987
 7627SOL     OW25834   7.537   7.113   3.441  0.2728 -0.4546  0.3679
 7627SOL    HW125835   7.462   7.053   3.430  0.0302 -0.0689 -0.1352
 7627SOL    HW225836   7.547   7.153   3.355  0.2714  0.4227  0.7714
 7628SOL     OW25837   7.427   4.369   3.510  0.0458  0.1476 -0.1542
 7628SOL    HW125838   7.474   4.342   3.431  2.4486 -0.9097  1.5086
 7628SOL    HW225839   7.348   4.412   3.477  1.5077  0.8527 -3.1473
 7629SOL     OW25840   5.847   5.957   3.553  0.3726  0.3300 -0.3081
 7629SOL    HW125841   5.933   5.956   3.594  0.1253  0.1031  0.2163
 7629SOL    HW225842   5.860   6.003   3.471  0.8061  1.1155  0.1887
 7630SOL     OW25843   0.166   4.730   7.224  0.2100  0.0549  0.3662
 7630SOL    HW125844   0.083   4.705   7.265 -0.2771  2.7680  1.2172
 7630SOL    HW225845   0.228   4.665   7.257 -1.6904 -2.8078 -1.2765
 7631SOL     OW25846   5.094   6.048   0.225  0.0226 -0.2407 -0.2967
 7631SOL    HW125847   5.032   6.040   0.152 -1.5141 -0.5779  0.9935
 7631SOL    HW225848   5.114   6.141   0.229  1.1897 -0.3775 -1.9634
 7632SOL     OW25849   0.950   5.447   7.439 -0.2207  0.2749  0.7075
 7632SOL    HW125850   1.019   5.441   7.374 -0.7271 -0.0677  0.1933
 7632SOL    HW225851   0.913   5.535   7.427  0.0907  0.4391  0.9491
 7633SOL     OW25852   0.067   6.478   2.537 -0.9768  0.1525 -0.1746
 7633SOL    HW125853   0.070   6.558   2.589  2.6905  1.5979 -2.2264
 7633SOL    HW225854   0.113   6.413   2.590  1.7028  1.2944 -0.9342
 7634SOL     OW25855   2.934   5.580   4.944  0.6320 -0.4585 -0.2675
 7634SOL    HW125856   2.842   5.602   4.934  0.5232  0.3268  1.9089
 7634SOL    HW225857   2.939   5.486   4.925 -1.0450 -1.0096  1.7433
 7635SOL     OW25858   3.307   3.239   2.485 -0.1711 -0.3554 -0.4014
 7635SOL    HW125859   3.321   3.250   2.391 -1.8220 -1.1768 -0.7723
 7635SOL    HW225860   3.350   3.156   2.506  0.3848 -0.0676 -0.3593
 7636SOL     OW25861   7.591   2.733   1.244  0.1327  0.4025  0.1409
 7636SOL    HW125862   7.649   2.804   1.214  2.5536 -1.4987  0.0465
 7636SOL    HW225863   7.544   2.705   1.165  0.3280  0.8494 -0.1358
 7637SOL     OW25864   7.214   1.128   7.033 -0.3644  0.3427  0.0621
 7637SOL    HW125865   7.151   1.139   7.105  1.0149  0.1787  1.3429
 7637SOL    HW225866   7.190   1.196   6.970 -2.3350 -0.2376  0.1032
 7638SOL     OW25867   8.006   3.644   4.925 -0.4508 -0.0254  0.1033
 7638SOL    HW125868   7.938   3.603   4.978 -2.1149  3.0085  0.5210
 7638SOL    HW225869   7.980   3.625   4.835 -0.7849 -0.4876  0.2954
 7639SOL     OW25870   3.983   1.494   0.040 -0.4661  0.3384 -0.2223
 7639SOL    HW125871   4.019   1.558   0.101  0.8637 -2.7717  2.5546
 7639SOL    HW225872   3.888   1.497   0.055 -0.3695  1.2317  0.2653
 7640SOL     OW25873   1.453   7.392   6.837  0.7939 -0.1572 -0.3111
 7640SOL    HW125874   1.383   7.327   6.843  0.3792  0.1696 -1.4496
 7640SOL    HW225875   1.497   7.386   6.922 -0.8196 -0.1263  0.5809
 7641SOL     OW25876   0.586   1.582   3.330 -0.3440  0.1062 -0.7955
 7641SOL    HW125877   0.538   1.500   3.317  0.3542 -0.5961  0.7749
 7641SOL    HW225878   0.551   1.618   3.411 -1.7248  2.2164 -2.2086
 7642SOL     OW25879   7.407   0.850   6.427 -0.4336 -0.3642 -0.2594
 7642SOL    HW125880   7.392   0.930   6.376  0.9635  0.2249  0.2149
 7642SOL    HW225881   7.385   0.874   6.517 -1.4207 -0.9661 -0.3150
 7643SOL     OW25882   2.624   7.794   2.539  0.0141 -0.3320 -0.5506
 7643SOL    HW125883   2.550   7.746   2.503 -0.9199  1.0860 -0.5831
 7643SOL    HW225884   2.665   7.835   2.462  1.7662 -2.2533 -0.7452
 7644SOL     OW25885   5.045   1.778   5.760  0.1222  0.2149  0.1572
 7644SOL    HW125886   4.999   1.835   5.699  0.9431 -0.6456 -1.3331
 7644SOL    HW225887   5.126   1.824   5.780  0.7096 -0.3069 -0.9160
 7645SOL     OW25888   0.511   5.631   6.343  0.3490 -0.7237  0.4012
 7645SOL    HW125889   0.475   5.710   6.383  2.0041  0.7258 -0.8571
 7645SOL    HW225890   0.554   5.586   6.416  0.4169  0.1354  0.9093
 7646SOL     OW25891   6.462   5.771   7.266 -0.0511  0.0650  0.2269
 7646SOL    HW125892   6.467   5.833   7.339 -0.6506 -0.0917  0.4049
 7646SOL    HW225893   6.438   5.688   7.307  1.3191 -0.4334  0.0660
 7647SOL     OW25894   0.420   5.432   7.458  0.2018  0.5414  0.3103
 7647SOL    HW125895   0.348   5.381   7.494  1.1356 -0.5702  0.6768
 7647SOL    HW225896   0.464   5.372   7.397  0.3442  1.4644 -0.5219
 7648SOL     OW25897   6.637   5.698   4.142  0.3872  0.4389 -0.3240
 7648SOL    HW125898   6.612   5.662   4.227  1.3951 -1.7415 -0.8839
 7648SOL    HW225899   6.724   5.735   4.157  0.7828 -0.4001 -0.4972
 7649SOL     OW25900   2.340   4.061   5.809 -0.4301 -0.0713  0.1868
 7649SOL    HW125901   2.277   4.112   5.861 -0.7868 -1.4865  1.2091
 7649SOL    HW225902   2.409   4.039   5.871  0.2535  0.0628 -0.5140
 7650SOL     OW25903   3.870   2.436   6.562 -0.1843 -0.6082  0.1147
 7650SOL    HW125904   3.927   2.456   6.636  0.1573  1.3891 -0.6369
 7650SOL    HW225905   3.782   2.437   6.598 -0.0107  0.2333  0.5233
 7651SOL     OW25906   0.268   4.861   6.251 -0.1315  0.0315  0.3245
 7651SOL    HW125907   0.283   4.931   6.314  2.6592 -0.5579  0.4249
 7651SOL    HW225908   0.185   4.821   6.278 -0.8556  2.0917  1.3544
 7652SOL     OW25909   5.839   7.949   0.544 -0.1235 -0.2166  0.5754
 7652SOL    HW125910   5.909   7.940   0.609 -0.7187  1.5932  1.5376
 7652SOL    HW225911   5.795   8.030   0.568 -2.1552 -0.9689 -0.4050
 7653SOL     OW25912   5.848   3.255   1.284 -0.0325 -0.0380  0.5573
 7653SOL    HW125913   5.936   3.287   1.262 -0.9176  2.5866  0.5299
 7653SOL    HW225914   5.863   3.168   1.322  2.3737 -0.5509 -1.3175
 7654SOL     OW25915   0.539   3.728   1.341  0.0702 -0.2202  0.1129
 7654SOL    HW125916   0.456   3.697   1.306 -0.4296  0.4138  0.7093
 7654SOL    HW225917   0.583   3.768   1.267 -1.1689  1.5050  0.2601
 7655SOL     OW25918   3.205   7.110   6.936 -0.0974  0.3017  0.8210
 7655SOL    HW125919   3.185   7.204   6.935 -1.8876 -0.0422  1.6677
 7655SOL    HW225920   3.171   7.077   6.853  0.2002  0.3302  0.6859
 7656SOL     OW25921   0.544   0.777   7.713  0.0972  0.6129  0.2350
 7656SOL    HW125922   0.529   0.754   7.621  1.1276 -3.5919  0.9245
 7656SOL    HW225923   0.464   0.750   7.757  0.2470  1.0975  0.8150
 7657SOL     OW25924   6.366   2.988   7.039 -0.7760 -0.0943 -0.3662
 7657SOL    HW125925   6.446   3.025   7.001 -0.1726 -1.6531 -0.6711
 7657SOL    HW225926   6.365   3.021   7.129  0.2432 -0.0815 -0.3474
 7658SOL     OW25927   0.130   1.459   6.759  0.2821  0.3805 -0.8002
 7658SOL    HW125928   0.049   1.455   6.810  0.2276  1.2329 -0.8027
 7658SOL    HW225929   0.187   1.517   6.811  0.7329  0.1359 -1.0169
 7659SOL     OW25930   2.747   6.215   3.462 -0.1801 -0.2153 -0.0684
 7659SOL    HW125931   2.744   6.133   3.512 -0.4219  0.4264  0.9888
 7659SOL    HW225932   2.656   6.243   3.455 -0.0205  0.4836  0.4794
 7660SOL     OW25933   4.988   7.878   1.087 -0.1146  0.5128  0.3456
 7660SOL    HW125934   5.062   7.935   1.105  0.0205  0.0813  1.2272
 7660SOL    HW225935   4.975   7.829   1.168 -0.9347  0.0943 -0.0197
 7661SOL     OW25936   7.699   4.819   7.740  0.4260 -0.6867  0.1576
 7661SOL    HW125937   7.613   4.845   7.772  0.5859  3.5208 -2.0476
 7661SOL    HW225938   7.760   4.866   7.797  1.1277 -1.2668 -0.1072
 7662SOL     OW25939   5.017   1.201   7.649 -0.4243  0.1338  0.4180
 7662SOL    HW125940   5.008   1.286   7.693 -1.9137  0.0745  0.3059
 7662SOL    HW225941   5.002   1.136   7.717 -2.5987  0.0406 -0.0647
 7663SOL     OW25942   1.916   5.305   3.708  0.3589 -0.4711  0.3887
 7663SOL    HW125943   1.945   5.297   3.799 -0.8676 -1.2745  0.7437
 7663SOL    HW225944   1.957   5.231   3.663  1.5036  0.3026  0.1061
 7664SOL     OW25945   4.199   6.231   7.834  0.5647 -0.3780  0.3233
 7664SOL    HW125946   4.291   6.206   7.843  0.4284 -0.5682  1.2947
 7664SOL    HW225947   4.162   6.166   7.774  0.6959 -1.2900  1.2082
 7665SOL     OW25948   8.041   7.345   5.443  0.0615  0.0415 -0.1474
 7665SOL    HW125949   8.041   7.392   5.359 -1.1179  0.6319  0.1721
 7665SOL    HW225950   7.985   7.269   5.428  2.2009 -1.5401 -0.7565
 7666SOL     OW25951   3.858   5.006   7.271  0.5428  0.4356 -0.1693
 7666SOL    HW125952   3.766   4.983   7.278  0.8485 -0.2398  2.4354
 7666SOL    HW225953   3.887   4.962   7.191 -1.1186 -0.2188 -0.4516
 7667SOL     OW25954   3.131   3.415   6.846 -0.2294 -0.2882 -0.2801
 7667SOL    HW125955   3.154   3.506   6.867  0.8922 -0.6061 -0.0997
 7667SOL    HW225956   3.125   3.371   6.930 -0.5530 -0.4467 -0.3806
 7668SOL     OW25957   1.534   3.770   1.889 -1.0422 -0.1109  0.4550
 7668SOL    HW125958   1.525   3.698   1.826 -0.7345 -0.5321  0.8781
 7668SOL    HW225959   1.487   3.739   1.967 -0.2046 -0.2202  0.9342
 7669SOL     OW25960   3.478   0.564   2.561  0.2867  0.1130  0.4752
 7669SOL    HW125961   3.440   0.476   2.569  1.1032 -0.2947 -0.0595
 7669SOL    HW225962   3.453   0.608   2.643  1.7698 -1.3532  1.7902
 7670SOL     OW25963   5.286   4.748   1.000 -0.3684  0.1696  0.4529
 7670SOL    HW125964   5.364   4.703   0.966 -0.9727 -0.5696  0.0126
 7670SOL    HW225965   5.282   4.721   1.092 -0.4477 -0.3017  0.3168
 7671SOL     OW25966   4.902   5.073   0.326 -0.2112  0.3742  0.1095
 7671SOL    HW125967   4.887   5.017   0.403 -0.8573  0.5145  0.0945
 7671SOL    HW225968   4.979   5.124   0.348 -0.3950  0.4169  0.6696
 7672SOL     OW25969   5.795   7.436   3.056  0.0736  0.0372  0.0055
 7672SOL    HW125970   5.782   7.467   3.146  1.5040 -0.9376  0.5853
 7672SOL    HW225971   5.834   7.511   3.011 -2.0767  1.0642 -0.2662
 7673SOL     OW25972   4.529   4.043   2.125  0.4360 -0.3357  0.6844
 7673SOL    HW125973   4.585   4.036   2.047 -2.0916  0.8353 -1.3710
 7673SOL    HW225974   4.552   4.127   2.163 -0.2808  0.4303 -0.5069
 7674SOL     OW25975   4.370   6.948   0.606 -0.4141 -0.2784 -0.2599
 7674SOL    HW125976   4.304   6.999   0.560  0.5227  0.0646 -1.2554
 7674SOL    HW225977   4.434   7.012   0.636 -0.1572 -0.6815  0.0739
 7675SOL     OW25978   2.813   2.015   4.232  0.1855 -0.0724 -0.0739
 7675SOL    HW125979   2.732   1.964   4.236 -0.0732  0.4009  0.8994
 7675SOL    HW225980   2.854   1.987   4.150 -1.5389  0.5711 -1.2142
 7676SOL     OW25981   2.056   2.095   6.398 -0.4729 -0.9890 -0.3516
 7676SOL    HW125982   2.046   2.142   6.315  0.6865 -1.1027 -0.5745
 7676SOL    HW225983   2.107   2.154   6.453 -2.1832 -0.4301  0.7197
 7677SOL     OW25984   7.716   6.698   5.349  0.7230  0.3201  0.8569
 7677SOL    HW125985   7.627   6.726   5.373 -0.0187 -1.3800  0.2935
 7677SOL    HW225986   7.737   6.751   5.272 -0.0573  0.3458  0.6444
 7678SOL     OW25987   0.610   4.163   2.504  0.1369 -0.4691  0.2453
 7678SOL    HW125988   0.619   4.096   2.436 -0.1276  0.4241 -0.6826
 7678SOL    HW225989   0.695   4.166   2.547  1.0929  0.6517 -1.6404
 7679SOL     OW25990   5.703   3.801   5.365  0.1564 -0.0181  0.4949
 7679SOL    HW125991   5.764   3.826   5.296 -0.1182 -0.5291  0.0615
 7679SOL    HW225992   5.619   3.836   5.337  0.0768 -0.0782  0.6560
 7680SOL     OW25993   5.150   3.672   7.232  0.1939  0.6124  0.4764
 7680SOL    HW125994   5.097   3.726   7.173  0.4530 -1.2858 -1.5927
 7680SOL    HW225995   5.097   3.593   7.246  1.1486  0.0329  0.8982
 7681SOL     OW25996   3.159   1.076   4.232 -0.6703 -0.2341 -0.0131
 7681SOL    HW125997   3.218   1.110   4.300  2.6857 -2.2836 -1.6423
 7681SOL    HW225998   3.140   1.152   4.178 -1.6038  0.9772  1.9038
 7682SOL     OW25999   4.521   3.702   3.182 -0.2089  0.2816 -0.4838
 7682SOL    HW126000   4.518   3.635   3.250 -0.2060 -0.0967 -0.8540
 7682SOL    HW226001   4.438   3.749   3.191 -0.9028 -0.7607 -1.2140
 7683SOL     OW26002   0.780   5.937   0.312 -0.4534 -0.1202  0.7653
 7683SOL    HW126003   0.765   5.977   0.398 -0.3915 -0.5473  0.9744
 7683SOL    HW226004   0.711   5.872   0.303 -1.9364  1.5521 -0.5375
 7684SOL     OW26005   5.247   0.238   4.123 -0.1282  0.4032 -0.4075
 7684SOL    HW126006   5.283   0.324   4.103  2.8518 -0.6758 -0.2153
 7684SOL    HW226007   5.175   0.255   4.183  0.6474  2.7196 -0.0437
 7685SOL     OW26008   7.231   2.106   7.750  0.1767 -0.1877 -0.2268
 7685SOL    HW126009   7.321   2.132   7.731 -0.0108  0.6220 -0.0649
 7685SOL    HW226010   7.207   2.158   7.827  0.5272 -2.5078  1.5851
 7686SOL     OW26011   3.386   0.233   7.791  0.1122  0.0477  0.5818
 7686SOL    HW126012   3.446   0.289   7.742 -0.6601  1.0399  0.7462
 7686SOL    HW226013   3.420   0.144   7.778  1.0139  0.4876 -0.1672
 7687SOL     OW26014   4.274   4.929   6.875  0.8433  0.3063  0.5741
 7687SOL    HW126015   4.244   5.002   6.821  0.2386  0.4185  1.0509
 7687SOL    HW226016   4.227   4.853   6.841  1.5157  0.1256  0.0408
 7688SOL     OW26017   5.949   5.338   4.878 -0.2285 -0.1402 -0.2210
 7688SOL    HW126018   5.867   5.385   4.864 -0.8704 -0.9654  0.6522
 7688SOL    HW226019   5.940   5.258   4.826  0.3241  0.0810 -0.6737
 7689SOL     OW26020   5.737   3.178   0.268  0.2995  0.1392  0.3739
 7689SOL    HW126021   5.727   3.253   0.326  1.4300  1.2063 -0.7316
 7689SOL    HW226022   5.693   3.203   0.187 -1.7018 -1.5290  0.8491
 7690SOL     OW26023   1.131   0.349   1.160 -0.5871 -0.3493  0.0151
 7690SOL    HW126024   1.207   0.336   1.217 -0.9531  0.9584  0.8301
 7690SOL    HW226025   1.118   0.443   1.158 -0.8841 -0.4054 -1.8760
 7691SOL     OW26026   1.560   0.072   2.259  0.1550 -0.3564 -0.2100
 7691SOL    HW126027   1.598   0.116   2.335 -0.6278 -0.1580  0.0764
 7691SOL    HW226028   1.508   0.001   2.296 -0.4644 -0.0812 -0.5387
 7692SOL     OW26029   2.922   1.391   4.177  0.1542  0.1760 -0.0870
 7692SOL    HW126030   2.870   1.383   4.257 -0.1132 -0.2843 -0.3004
 7692SOL    HW226031   2.905   1.480   4.146 -0.7657 -0.0754 -0.3239
 7693SOL     OW26032   6.218   0.344   2.045  0.4151 -0.0116  0.2923
 7693SOL    HW126033   6.152   0.392   1.995  0.9970  2.3076  1.5809
 7693SOL    HW226034   6.256   0.282   1.982 -0.5454  1.0640 -1.4330
 7694SOL     OW26035   7.489   0.902   5.326 -0.1704  0.1219  0.3793
 7694SOL    HW126036   7.422   0.924   5.261  0.4210  1.3707  0.1637
 7694SOL    HW226037   7.519   0.815   5.300  0.2241  0.6918 -1.1830
 7695SOL     OW26038   1.562   4.135   6.343  0.3239  0.4692  0.1256
 7695SOL    HW126039   1.496   4.145   6.411  0.3992  2.4092 -0.0314
 7695SOL    HW226040   1.645   4.156   6.386  0.5740  0.1410 -0.1884
 7696SOL     OW26041   5.929   6.550   7.070  0.5198  0.3634 -0.1610
 7696SOL    HW126042   5.984   6.595   7.134 -0.2306  0.3583  0.5072
 7696SOL    HW226043   5.980   6.551   6.989  0.7565  1.8922 -0.0126
 7697SOL     OW26044   7.967   3.503   7.221 -0.3212  0.0910  0.5676
 7697SOL    HW126045   7.969   3.598   7.218 -1.5956  0.1386  0.5835
 7697SOL    HW226046   7.934   3.477   7.135  0.6420 -0.3742  0.3277
 7698SOL     OW26047   4.901   2.832   5.667  0.3300 -0.1888  0.0683
 7698SOL    HW126048   4.934   2.826   5.757  1.6376 -0.7305 -0.4271
 7698SOL    HW226049   4.812   2.867   5.676  0.2119 -0.8226  1.6180
 7699SOL     OW26050   8.042   3.238   6.005  0.0185 -0.5317  0.1176
 7699SOL    HW126051   8.122   3.278   5.968  0.0841 -0.6234  0.1606
 7699SOL    HW226052   8.063   3.145   6.011  0.0120 -0.5147  0.4021
 7700SOL     OW26053   6.313   3.522   6.145 -0.0572 -0.2690  0.4343
 7700SOL    HW126054   6.391   3.515   6.200  0.6941 -0.4334 -0.6252
 7700SOL    HW226055   6.259   3.589   6.187  1.7632  1.6480 -0.1220
 7701SOL     OW26056   7.936   1.850   1.795  0.0657  0.3016  0.3003
 7701SOL    HW126057   8.031   1.863   1.791  0.2439 -0.8347  0.4453
 7701SOL    HW226058   7.912   1.874   1.885  0.0503  1.4705  0.0076
 7702SOL     OW26059   1.136   3.313   3.920 -0.0643  0.0446 -0.2835
 7702SOL    HW126060   1.212   3.255   3.925 -0.3998 -0.4332 -0.6373
 7702SOL    HW226061   1.070   3.262   3.872 -1.3186 -0.3296  1.7282
 7703SOL     OW26062   0.750   7.768   6.444  0.1854  0.7034 -0.1115
 7703SOL    HW126063   0.786   7.807   6.524 -1.4282  1.1339  0.4295
 7703SOL    HW226064   0.766   7.674   6.455 -1.1383  0.6118  1.3402
 7704SOL     OW26065   6.234   4.962   7.798 -0.2177 -0.3902  0.1372
 7704SOL    HW126066   6.169   4.896   7.823 -1.9773  1.2955  0.2722
 7704SOL    HW226067   6.230   4.964   7.702 -0.1002 -0.5514  0.1295
 7705SOL     OW26068   5.101   0.949   0.040  0.3592 -0.8370 -0.2798
 7705SOL    HW126069   5.062   0.950   0.127  0.1512 -0.7109 -0.3728
 7705SOL    HW226070   5.136   1.038   0.029  1.1064 -1.0922 -0.0040
 7706SOL     OW26071   0.700   3.794   1.120  0.4584 -0.1335 -0.2720
 7706SOL    HW126072   0.758   3.740   1.173 -1.5647 -1.3340  0.8578
 7706SOL    HW226073   0.732   3.783   1.030  1.8924 -0.8153  0.3005
 7707SOL     OW26074   5.200   3.805   1.985  0.4948  0.0151 -0.7332
 7707SOL    HW126075   5.119   3.760   1.959  0.5375 -0.1356 -0.6044
 7707SOL    HW226076   5.222   3.860   1.909 -1.0387  1.9207  0.1327
 7708SOL     OW26077   2.208   3.573   5.911 -0.2165 -0.4407 -0.3882
 7708SOL    HW126078   2.134   3.632   5.923  0.1840 -0.2004  1.2614
 7708SOL    HW226079   2.210   3.522   5.992  1.9365  0.1652 -0.0016
 7709SOL     OW26080   1.501   0.644   3.682  0.2831 -0.1487 -0.6636
 7709SOL    HW126081   1.422   0.606   3.643  0.0358  0.9882 -1.3039
 7709SOL    HW226082   1.547   0.569   3.719 -0.6323 -0.9547 -1.1007
 7710SOL     OW26083   5.329   6.745   6.230  0.1589 -0.2014  0.4628
 7710SOL    HW126084   5.423   6.757   6.242  0.3009 -1.4373  0.7821
 7710SOL    HW226085   5.321   6.657   6.194 -0.6700  1.0618 -2.8042
 7711SOL     OW26086   5.003   4.504   3.042  0.2657  0.0509 -0.3743
 7711SOL    HW126087   5.023   4.415   3.072 -1.1292 -1.1820 -2.7402
 7711SOL    HW226088   5.074   4.525   2.981 -0.1041 -0.0143 -0.8335
 7712SOL     OW26089   7.211   7.477   2.577 -0.0539  0.3682  0.2485
 7712SOL    HW126090   7.305   7.491   2.582 -0.0199 -0.0962  1.0389
 7712SOL    HW226091   7.172   7.559   2.608  0.0844  0.4749  0.1440
 7713SOL     OW26092   4.774   4.964   4.464 -0.0713 -0.4497  0.0301
 7713SOL    HW126093   4.841   4.944   4.397  0.4687 -0.3305  0.5292
 7713SOL    HW226094   4.704   5.007   4.415  1.1754  1.4909 -0.1891
 7714SOL     OW26095   7.241   2.475   4.821  0.0441 -0.0062  0.3271
 7714SOL    HW126096   7.293   2.513   4.892 -0.0917  0.8204 -0.0018
 7714SOL    HW226097   7.275   2.516   4.741 -1.0383  0.4804  0.0966
 7715SOL     OW26098   2.021   5.284   2.033 -0.3073 -0.2301  0.1540
 7715SOL    HW126099   1.989   5.373   2.025 -2.1576 -0.5547  2.5959
 7715SOL    HW226100   2.029   5.252   1.943  0.0004  2.2310 -0.7456
 7716SOL     OW26101   1.696   3.663   5.881 -0.5043  0.0233 -0.1115
 7716SOL    HW126102   1.787   3.692   5.877 -0.7494  0.7256 -1.3785
 7716SOL    HW226103   1.700   3.569   5.868 -0.0074  0.1849 -1.2754
 7717SOL     OW26104   5.996   6.272   7.332 -0.3589  0.0631 -0.5942
 7717SOL    HW126105   5.910   6.313   7.318  0.1930  1.2931 -0.5198
 7717SOL    HW226106   6.023   6.245   7.244 -0.2712  0.8378 -0.8176
 7718SOL     OW26107   4.270   5.776   4.904  0.3969 -0.3366 -0.1061
 7718SOL    HW126108   4.234   5.864   4.916 -1.1233 -0.9773  0.2921
 7718SOL    HW226109   4.279   5.766   4.809 -3.2235 -1.1055 -0.5316
 7719SOL     OW26110   1.218   5.886   3.615  0.1799 -0.2876 -0.2160
 7719SOL    HW126111   1.282   5.952   3.642 -2.3646  0.9605  3.7271
 7719SOL    HW226112   1.250   5.804   3.652  1.2400 -0.4906 -1.4977
 7720SOL     OW26113   0.052   7.657   7.642 -0.0575  0.1474  0.1119
 7720SOL    HW126114   0.037   7.564   7.627  1.4763  0.1096 -1.4771
 7720SOL    HW226115   0.147   7.664   7.656  0.0966  1.6529 -1.4234
 7721SOL     OW26116   4.408   0.842   2.704 -0.0451  0.5416  0.7893
 7721SOL    HW126117   4.385   0.832   2.611  0.7137  0.4730  0.6026
 7721SOL    HW226118   4.339   0.795   2.751 -0.9629  1.3753  0.3167
 7722SOL     OW26119   7.106   2.468   6.922  0.5170  0.3354  0.0781
 7722SOL    HW126120   7.067   2.380   6.929 -2.0750  1.5241  3.0866
 7722SOL    HW226121   7.191   2.453   6.881 -0.3655 -3.3765 -0.8064
 7723SOL     OW26122   4.651   8.008   5.643 -0.4689 -1.0476  0.2277
 7723SOL    HW126123   4.597   8.024   5.720 -1.0879  1.9646 -0.7050
 7723SOL    HW226124   4.589   8.005   5.570  0.4049  1.5636 -0.7484
 7724SOL     OW26125   6.569   0.266   6.540  0.3955  0.0137 -0.0641
 7724SOL    HW126126   6.512   0.336   6.508  1.4163  0.7139 -0.4066
 7724SOL    HW226127   6.651   0.310   6.561  0.3921 -0.7518  1.7259
 7725SOL     OW26128   5.330   1.451   5.619 -0.8163 -0.0567 -0.2976
 7725SOL    HW126129   5.265   1.516   5.592 -1.3358 -1.2340 -2.1401
 7725SOL    HW226130   5.360   1.413   5.536 -0.4238 -2.0068  0.6923
 7726SOL     OW26131   1.450   7.830   0.931 -0.5035 -0.1715  0.0194
 7726SOL    HW126132   1.364   7.810   0.969 -0.8996 -0.1380 -0.8407
 7726SOL    HW226133   1.497   7.747   0.932 -1.0055 -0.4747 -0.6498
 7727SOL     OW26134   3.486   6.025   3.516  0.2885 -0.0951 -0.2474
 7727SOL    HW126135   3.545   6.063   3.451  2.9330 -3.4194 -0.0397
 7727SOL    HW226136   3.424   5.974   3.465  1.0190 -0.9639 -0.2825
 7728SOL     OW26137   0.645   7.928   3.250 -0.0483  0.6274  0.1662
 7728SOL    HW126138   0.658   8.008   3.199  0.9262 -0.1813 -0.9133
 7728SOL    HW226139   0.732   7.888   3.256 -0.6675 -0.8787 -0.2253
 7729SOL     OW26140   2.774   8.039   0.708 -0.0116  0.6441  0.4955
 7729SOL    HW126141   2.820   8.057   0.626 -1.1745  1.4322 -0.0075
 7729SOL    HW226142   2.744   8.125   0.738  0.0600  0.3146  1.5535
 7730SOL     OW26143   7.139   1.964   0.731 -0.1959  0.8824  0.3176
 7730SOL    HW126144   7.140   1.903   0.657  0.5012  2.3963 -0.9885
 7730SOL    HW226145   7.223   2.010   0.725 -0.5912  1.7855  1.4118
 7731SOL     OW26146   5.125   7.202   3.816 -0.3160 -0.0974 -0.7409
 7731SOL    HW126147   5.043   7.189   3.863 -0.7221 -0.4383 -1.5303
 7731SOL    HW226148   5.109   7.278   3.760  0.2320  0.4313 -0.2079
 7732SOL     OW26149   3.005   2.310   5.706 -0.4417 -0.2626  0.2398
 7732SOL    HW126150   2.913   2.311   5.679 -1.3894  0.9490  3.1192
 7732SOL    HW226151   3.034   2.401   5.694 -0.1212 -0.2817  0.8755
 7733SOL     OW26152   1.689   3.059   0.540  0.4318 -0.3174 -0.1509
 7733SOL    HW126153   1.715   3.046   0.449  2.5829  1.1484  0.1612
 7733SOL    HW226154   1.746   3.130   0.571  0.8446 -1.7735  2.7684
 7734SOL     OW26155   6.938   1.896   0.435  0.2699 -0.8027 -0.1434
 7734SOL    HW126156   6.993   1.972   0.455 -0.1174 -0.3655 -0.7077
 7734SOL    HW226157   6.994   1.820   0.453  0.8129 -0.3756 -0.0175
 7735SOL     OW26158   3.330   0.150   3.771 -0.0617 -0.1749  0.1904
 7735SOL    HW126159   3.273   0.202   3.715 -0.7827 -0.3004  0.7960
 7735SOL    HW226160   3.271   0.097   3.824  0.6141 -0.3771  0.7699
 7736SOL     OW26161   4.757   6.222   5.701 -0.0894  0.3014  0.1502
 7736SOL    HW126162   4.734   6.260   5.616  0.4350  0.4343  0.0687
 7736SOL    HW226163   4.772   6.129   5.684  0.7080  0.4605 -0.0313
 7737SOL     OW26164   5.909   2.049   8.028 -0.1859  0.7924 -0.1843
 7737SOL    HW126165   5.902   2.128   8.082 -2.2279 -0.1877  1.1503
 7737SOL    HW226166   5.857   2.068   7.950 -0.1014  1.0250 -0.1836
 7738SOL     OW26167   5.190   3.990   2.650 -0.0043 -0.2040  0.0340
 7738SOL    HW126168   5.100   3.959   2.651  0.3528 -1.2916  0.6450
 7738SOL    HW226169   5.211   4.005   2.742 -0.1064  1.7514 -0.2343
 7739SOL     OW26170   7.436   2.891   4.264 -0.2937 -0.3881  0.4782
 7739SOL    HW126171   7.351   2.856   4.291 -1.9321  1.9675 -1.2762
 7739SOL    HW226172   7.441   2.872   4.170 -0.2452  2.0432 -0.0567
 7740SOL     OW26173   3.712   0.614   7.272 -0.2484 -0.0023  0.0087
 7740SOL    HW126174   3.671   0.606   7.186  1.3414  0.8744 -0.8923
 7740SOL    HW226175   3.734   0.524   7.297  1.3022 -0.1441 -1.6058
 7741SOL     OW26176   1.725   7.391   0.462  0.4527 -0.1161  0.4174
 7741SOL    HW126177   1.632   7.393   0.441  0.7012 -0.9105 -0.9117
 7741SOL    HW226178   1.747   7.298   0.462  0.9984 -0.0052  1.9618
 7742SOL     OW26179   8.132   7.048   2.328  0.3124  0.0483 -0.7522
 7742SOL    HW126180   8.199   7.116   2.335  0.0354  0.2391  0.1102
 7742SOL    HW226181   8.072   7.079   2.261 -0.0569  0.8732 -0.0552
 7743SOL     OW26182   4.888   0.511   4.438 -1.1262  0.0023  0.4440
 7743SOL    HW126183   4.845   0.434   4.401 -1.7545  0.5554  0.0120
 7743SOL    HW226184   4.949   0.475   4.502  0.1920 -1.0225 -1.2683
 7744SOL     OW26185   0.352   4.963   0.522  0.1156 -0.5823 -0.6346
 7744SOL    HW126186   0.259   4.984   0.532  0.4956  2.4840 -2.4407
 7744SOL    HW226187   0.376   5.001   0.438  3.4061  0.3385  0.5925
 7745SOL     OW26188   2.870   0.744   3.208 -0.4554  0.0071  0.0307
 7745SOL    HW126189   2.952   0.701   3.187 -0.5801 -0.2310  0.0337
 7745SOL    HW226190   2.822   0.682   3.263 -1.6287 -0.8506 -1.8564
 7746SOL     OW26191   1.894   2.073   4.682 -0.3522 -0.5907 -0.2539
 7746SOL    HW126192   1.886   2.158   4.637  0.2438 -0.6961 -0.5737
 7746SOL    HW226193   1.810   2.030   4.668 -0.8084  0.1105  0.2545
 7747SOL     OW26194   1.711   0.824   2.722 -0.1342 -0.1964 -0.0481
 7747SOL    HW126195   1.679   0.845   2.634 -2.3348  2.4244  1.2215
 7747SOL    HW226196   1.640   0.773   2.762 -0.5997  1.3020  1.1535
 7748SOL     OW26197   7.373   3.211   0.088  0.0033  0.0193  0.0220
 7748SOL    HW126198   7.321   3.258   0.153  0.2146 -1.8198  1.5984
 7748SOL    HW226199   7.333   3.124   0.084  1.5262 -0.6811 -0.4960
 7749SOL     OW26200   5.077   4.065   7.737  0.1440 -0.2787 -0.0448
 7749SOL    HW126201   5.035   4.043   7.821 -0.0998 -0.7702 -0.2921
 7749SOL    HW226202   5.024   4.136   7.702  2.5270  2.7853  2.0567
 7750SOL     OW26203   3.699   6.194   4.120 -0.0023  0.2292 -0.3317
 7750SOL    HW126204   3.673   6.230   4.035 -1.5380  1.3285  0.5389
 7750SOL    HW226205   3.630   6.131   4.141  0.7352 -0.5441 -0.2013
 7751SOL     OW26206   0.313   3.717   7.096 -0.2812  0.4788 -0.0103
 7751SOL    HW126207   0.261   3.794   7.073  1.2497  1.2624 -1.0038
 7751SOL    HW226208   0.376   3.709   7.025  0.5441 -0.8247  0.8333
 7752SOL     OW26209   1.680   4.284   7.421  0.5160  0.3155  0.2855
 7752SOL    HW126210   1.696   4.205   7.472  2.2430  0.8639  0.6772
 7752SOL    HW226211   1.753   4.287   7.359 -0.5705  0.6117 -1.0261
 7753SOL     OW26212   4.889   3.268   6.428 -0.0326 -0.5313  0.1398
 7753SOL    HW126213   4.885   3.351   6.476 -1.2823 -0.6247  0.2386
 7753SOL    HW226214   4.959   3.219   6.470  0.3328  0.2479  0.4568
 7754SOL     OW26215   7.237   0.357   3.089  0.3648 -1.1536  0.0569
 7754SOL    HW126216   7.225   0.379   2.996  3.0559  0.3090 -0.0444
 7754SOL    HW226217   7.292   0.279   3.088 -0.4491 -1.7445  0.4552
 7755SOL     OW26218   7.262   3.699   6.346 -0.5649 -0.2542 -0.4426
 7755SOL    HW126219   7.269   3.652   6.429  0.3329 -0.5288 -0.6535
 7755SOL    HW226220   7.350   3.734   6.331 -1.0395  0.8975 -0.6517
 7756SOL     OW26221   4.252   7.413   2.228 -0.5388  0.0048  0.2156
 7756SOL    HW126222   4.176   7.356   2.239 -0.2149 -0.6376 -0.7326
 7756SOL    HW226223   4.216   7.494   2.193 -0.6142 -0.9814 -2.1358
 7757SOL     OW26224   0.433   1.752   3.595 -0.4590  0.2130 -0.0664
 7757SOL    HW126225   0.459   1.771   3.685  2.1306  0.3858 -0.7516
 7757SOL    HW226226   0.473   1.822   3.544 -0.0955 -1.0087 -1.5323
 7758SOL     OW26227   3.422   5.975   0.983 -0.7661 -0.3712 -0.3106
 7758SOL    HW126228   3.503   5.949   0.939 -0.9497 -0.1983 -0.7573
 7758SOL    HW226229   3.384   5.893   1.014 -0.7367 -0.5167 -0.6554
 7759SOL     OW26230   4.187   0.462   1.470 -0.4714 -0.0787 -0.5768
 7759SOL    HW126231   4.179   0.366   1.466 -0.9310 -0.1300  0.9405
 7759SOL    HW226232   4.140   0.492   1.393 -1.7720 -1.0433 -0.2078
 7760SOL     OW26233   6.574   0.328   5.133 -0.4981 -0.3062  0.0092
 7760SOL    HW126234   6.536   0.240   5.124  0.9759 -1.0611  0.6807
 7760SOL    HW226235   6.512   0.386   5.089 -1.9827 -1.5565  0.3619
 7761SOL     OW26236   3.484   3.970   6.374  0.3517  0.1418  0.4034
 7761SOL    HW126237   3.486   3.979   6.469 -1.0310 -1.0513  0.5773
 7761SOL    HW226238   3.451   3.882   6.359  1.4494 -0.0359 -1.1940
 7762SOL     OW26239   6.633   0.261   1.744  0.1558 -0.7257 -0.5288
 7762SOL    HW126240   6.686   0.313   1.804 -2.0775  1.9057 -0.5923
 7762SOL    HW226241   6.688   0.187   1.719  4.1288  2.1925 -1.3317
 7763SOL     OW26242   4.918   1.299   6.336  0.3467 -0.5405 -0.1232
 7763SOL    HW126243   4.980   1.347   6.391  0.4088  0.1858 -0.7925
 7763SOL    HW226244   4.843   1.282   6.393 -0.4285  1.9131 -0.2904
 7764SOL     OW26245   4.613   4.883   7.789  0.1627  0.4236  0.3645
 7764SOL    HW126246   4.616   4.897   7.883 -2.5650 -0.7582  0.7114
 7764SOL    HW226247   4.535   4.930   7.760 -2.4139 -3.7208 -0.2483
 7765SOL     OW26248   6.239   7.373   6.260  1.4670  0.1839 -0.2715
 7765SOL    HW126249   6.211   7.414   6.342  1.0970  2.1216 -1.2908
 7765SOL    HW226250   6.328   7.344   6.276  1.4200  0.5948  0.7907
 7766SOL     OW26251   2.400   6.735   1.443  0.3599 -0.2576  0.2086
 7766SOL    HW126252   2.393   6.701   1.353 -0.8569 -1.7067  0.8048
 7766SOL    HW226253   2.492   6.722   1.466  0.9366  1.1033 -1.1629
 7767SOL     OW26254   3.286   2.676   5.653 -0.6361 -0.1637  0.7205
 7767SOL    HW126255   3.194   2.650   5.658 -1.4846  2.4357  0.4521
 7767SOL    HW226256   3.290   2.757   5.705  1.1625  0.5480 -0.4480
 7768SOL     OW26257   5.561   2.967   1.767  0.4428 -0.0340 -0.5147
 7768SOL    HW126258   5.516   2.987   1.850  1.2276 -2.3569  0.5568
 7768SOL    HW226259   5.513   2.892   1.732  1.2251 -0.1993 -1.2447
 7769SOL     OW26260   4.660   5.738   3.200  0.1651  0.3681 -0.6523
 7769SOL    HW126261   4.622   5.675   3.139  2.0019 -1.1330 -0.3438
 7769SOL    HW226262   4.753   5.715   3.203  0.0997 -0.0001  3.0661
 7770SOL     OW26263   1.454   1.759   5.148  0.1919  0.7190  0.2821
 7770SOL    HW126264   1.394   1.778   5.219  0.2987  0.0994  0.5469
 7770SOL    HW226265   1.449   1.664   5.137 -0.8690  0.9296 -1.4756
 7771SOL     OW26266   1.970   8.099   3.689  0.2554  0.1254 -0.6005
 7771SOL    HW126267   2.026   8.112   3.765 -0.7311 -0.1698  0.2020
 7771SOL    HW226268   1.883   8.127   3.718  0.1342  1.5032 -2.1108
 7772SOL     OW26269   5.162   4.694   1.823 -0.3134 -0.0983  0.3902
 7772SOL    HW126270   5.103   4.750   1.773 -1.2028 -0.7836  0.6317
 7772SOL    HW226271   5.148   4.718   1.914 -1.2296 -1.1537  0.5572
 7773SOL     OW26272   7.263   6.810   1.423 -0.6635  0.3340  0.0590
 7773SOL    HW126273   7.200   6.834   1.355 -1.3698  0.0230  0.5981
 7773SOL    HW226274   7.211   6.768   1.491  0.2572 -0.8695  0.0587
 7774SOL     OW26275   1.834   0.475   6.834  0.0909 -0.2457 -0.4699
 7774SOL    HW126276   1.823   0.381   6.848  0.7632 -0.4265 -1.0873
 7774SOL    HW226277   1.926   0.491   6.854 -0.1553  0.3991  0.2090
 7775SOL     OW26278   4.609   4.923   0.454 -0.3270  0.1525  0.2880
 7775SOL    HW126279   4.523   4.910   0.493 -0.1467 -1.3579  0.2485
 7775SOL    HW226280   4.614   5.017   0.438 -1.5667  0.4047  1.1952
 7776SOL     OW26281   1.533   6.085   2.291 -0.5122  0.0615  0.2776
 7776SOL    HW126282   1.555   6.152   2.227 -2.0014 -0.7378 -1.1505
 7776SOL    HW226283   1.618   6.055   2.325  0.2872  0.9327 -0.8860
 7777SOL     OW26284   0.888   4.433   3.456 -0.7375 -0.4589  0.5948
 7777SOL    HW126285   0.973   4.445   3.497 -0.1421 -1.2009 -0.3824
 7777SOL    HW226286   0.908   4.400   3.368 -2.0513 -1.2383  0.5613
 7778SOL     OW26287   7.366   3.803   7.690 -0.4348 -0.2062  0.2550
 7778SOL    HW126288   7.328   3.783   7.605  1.6068 -0.0736 -0.7414
 7778SOL    HW226289   7.345   3.727   7.745  1.2547 -1.9888 -1.4300
 7779SOL     OW26290   3.112   3.863   1.590  0.5954 -0.1699 -0.0096
 7779SOL    HW126291   3.166   3.798   1.635 -0.1781 -1.8827 -1.4180
 7779SOL    HW226292   3.123   3.842   1.497  0.3541  1.7835 -0.5100
 7780SOL     OW26293   7.078   0.225   7.306  0.0487 -0.0433 -0.0178
 7780SOL    HW126294   7.110   0.291   7.368  1.6673 -1.4929  0.7945
 7780SOL    HW226295   7.008   0.269   7.258 -1.2093  1.1992  2.7336
 7781SOL     OW26296   7.852   1.874   4.479  0.2650  0.1399  0.7268
 7781SOL    HW126297   7.788   1.916   4.536 -0.9833  0.3636 -0.7719
 7781SOL    HW226298   7.899   1.947   4.438  0.1561  0.0177  0.3807
 7782SOL     OW26299   4.572   2.182   3.699  0.1392  0.4548 -0.2031
 7782SOL    HW126300   4.494   2.201   3.752  0.2082  1.7180 -0.5025
 7782SOL    HW226301   4.538   2.138   3.621  0.1564 -2.5187  1.3444
 7783SOL     OW26302   3.601   2.966   5.293  0.3338 -0.8980 -0.1447
 7783SOL    HW126303   3.570   2.891   5.343 -0.3444 -0.2552  0.4277
 7783SOL    HW226304   3.627   3.030   5.359  1.5995 -0.8941 -0.6192
 7784SOL     OW26305   3.171   5.950   0.247 -0.5513 -0.5760  0.5090
 7784SOL    HW126306   3.244   5.906   0.290 -0.6085 -0.0802  1.1281
 7784SOL    HW226307   3.138   5.886   0.185  1.7046 -0.1085 -1.3134
 7785SOL     OW26308   1.535   7.492   4.754  0.3458 -0.1439 -0.1065
 7785SOL    HW126309   1.450   7.487   4.797 -0.3990  1.1579 -1.3762
 7785SOL    HW226310   1.538   7.415   4.697  0.2694 -0.4939  0.3549
 7786SOL     OW26311   0.194   6.947   1.357  0.0073  0.3630 -0.4584
 7786SOL    HW126312   0.117   6.893   1.344  1.1930 -1.7430  0.6869
 7786SOL    HW226313   0.164   7.018   1.415 -1.0438 -0.4726  0.0476
 7787SOL     OW26314   1.225   1.817   0.163 -0.0864  0.4073  0.6600
 7787SOL    HW126315   1.302   1.831   0.218  1.3087 -0.1205 -1.0595
 7787SOL    HW226316   1.169   1.759   0.215  0.3302  1.3464  2.2248
 7788SOL     OW26317   4.022   7.836   6.863 -0.3060 -0.2396 -0.2664
 7788SOL    HW126318   4.025   7.928   6.887 -0.8349 -0.0541 -0.9075
 7788SOL    HW226319   3.932   7.809   6.881 -0.5623 -0.2452 -1.4561
 7789SOL     OW26320   8.104   1.422   2.747 -0.0537  0.4405  0.1842
 7789SOL    HW126321   8.143   1.343   2.783 -1.5932 -0.5598 -0.2629
 7789SOL    HW226322   8.074   1.471   2.824 -0.0624  0.0644  0.4236
 7790SOL     OW26323   3.789   2.178   8.108 -1.1206 -0.8729  0.3319
 7790SOL    HW126324   3.703   2.136   8.112 -1.3600 -0.3727  0.5052
 7790SOL    HW226325   3.789   2.240   8.181 -0.5617 -0.9651  0.4142
 7791SOL     OW26326   2.501   0.536   6.120 -1.0563 -0.3737 -0.1339
 7791SOL    HW126327   2.532   0.602   6.058  1.5613  0.6313  2.0366
 7791SOL    HW226328   2.565   0.465   6.114 -0.3592  0.0348  1.7963
 7792SOL     OW26329   2.933   1.521   6.465 -0.3079  0.4172 -0.3926
 7792SOL    HW126330   3.027   1.525   6.452 -0.3440  0.2451 -0.7092
 7792SOL    HW226331   2.898   1.587   6.404 -0.3581  0.8712  0.1133
 7793SOL     OW26332   0.326   7.949   5.448 -0.3541  1.2287  0.5173
 7793SOL    HW126333   0.285   7.990   5.525 -1.1203  1.7820 -0.1690
 7793SOL    HW226334   0.263   7.964   5.377 -0.1403 -0.2018  0.0076
 7794SOL     OW26335   2.424   3.568   4.722  0.3269 -0.0269  0.2535
 7794SOL    HW126336   2.435   3.473   4.712  2.1345  0.2165 -0.6255
 7794SOL    HW226337   2.431   3.602   4.632 -2.7734  0.7937  0.2312
 7795SOL     OW26338   1.796   6.449   7.008 -0.2691 -0.3190  0.3373
 7795SOL    HW126339   1.886   6.450   6.976 -0.4527 -1.2990 -0.2532
 7795SOL    HW226340   1.776   6.356   7.018 -0.9968 -0.0871  1.1004
 7796SOL     OW26341   7.184   7.463   0.623 -0.1119  0.5300  0.8480
 7796SOL    HW126342   7.142   7.397   0.678 -0.6358  0.5467  0.4716
 7796SOL    HW226343   7.196   7.419   0.538  1.0780  0.3567  1.0891
 7797SOL     OW26344   2.685   5.116   0.629  1.1911  0.3662 -0.3797
 7797SOL    HW126345   2.643   5.162   0.556  1.0404  1.0152  0.1068
 7797SOL    HW226346   2.774   5.099   0.599  0.9829  0.1912 -0.9027
 7798SOL     OW26347   2.184   7.565   2.754 -0.2845 -0.5297 -0.5236
 7798SOL    HW126348   2.204   7.484   2.801  2.2978 -1.1624 -2.4576
 7798SOL    HW226349   2.193   7.541   2.661  0.4888  1.9197 -1.1536
 7799SOL     OW26350   6.136   3.822   3.300  0.7329  0.0048 -0.2878
 7799SOL    HW126351   6.231   3.824   3.306  0.9311  0.2794 -2.5615
 7799SOL    HW226352   6.109   3.912   3.321  0.7815 -0.4418  1.9425
 7800SOL     OW26353   4.267   6.161   1.560 -0.0784 -0.1177  0.2335
 7800SOL    HW126354   4.330   6.213   1.511  1.6517 -2.7298 -0.5086
 7800SOL    HW226355   4.192   6.152   1.501 -0.5375  1.6867  0.4953
 7801SOL     OW26356   1.304   6.955   5.110  0.5498 -0.5507  0.4552
 7801SOL    HW126357   1.397   6.951   5.131  0.9602 -2.8345 -1.3737
 7801SOL    HW226358   1.299   6.929   5.018 -1.7182  2.0271 -0.2703
 7802SOL     OW26359   2.612   1.632   1.185 -0.2518  0.0329 -0.5347
 7802SOL    HW126360   2.590   1.608   1.095 -1.9862  0.6141 -0.3076
 7802SOL    HW226361   2.537   1.604   1.237  0.1184  0.9289  0.5391
 7803SOL     OW26362   7.170   4.613   8.018 -0.3583 -0.5979  0.9364
 7803SOL    HW126363   7.261   4.638   8.036 -0.5973  1.6653 -0.5947
 7803SOL    HW226364   7.129   4.610   8.104  0.8863 -0.4747  1.5613
 7804SOL     OW26365   5.317   3.798   6.821  0.0353  0.5574 -0.0115
 7804SOL    HW126366   5.279   3.867   6.876 -1.3678  0.9175 -1.3550
 7804SOL    HW226367   5.404   3.832   6.797  0.4607  0.6208  1.4991
 7805SOL     OW26368   6.311   1.243   5.842  0.4349 -0.3276 -0.0524
 7805SOL    HW126369   6.349   1.314   5.790 -1.3621 -0.0126 -1.0366
 7805SOL    HW226370   6.356   1.164   5.813  0.1934 -0.0058 -1.3373
 7806SOL     OW26371   1.822   6.334   5.664 -0.0483 -0.5291  0.1789
 7806SOL    HW126372   1.735   6.367   5.643  0.5255  0.7488 -0.2752
 7806SOL    HW226373   1.840   6.367   5.752 -0.0795 -0.9385  0.3427
 7807SOL     OW26374   7.092   6.751   5.351  0.6308  0.2350 -0.4073
 7807SOL    HW126375   7.049   6.807   5.286 -0.0157  1.4873  1.0376
 7807SOL    HW226376   7.022   6.696   5.386  0.3812  1.4784  1.1364
 7808SOL     OW26377   2.898   6.507   2.000  0.0546 -0.1984  0.1085
 7808SOL    HW126378   2.866   6.572   2.063  2.7306  0.6678  0.6886
 7808SOL    HW226379   2.884   6.548   1.915 -3.1673 -1.1901  0.0087
 7809SOL     OW26380   2.893   0.069   3.563 -0.0067 -0.2088  0.0812
 7809SOL    HW126381   2.942   0.003   3.515  1.0712  1.2928 -0.9802
 7809SOL    HW226382   2.802   0.051   3.543  0.2897 -1.1426 -0.4734
 7810SOL     OW26383   4.091   7.133   4.529 -0.0549 -0.4180 -0.2257
 7810SOL    HW126384   4.129   7.211   4.570  1.3024 -0.8868 -0.5536
 7810SOL    HW226385   4.146   7.061   4.559 -1.2307 -1.2580 -0.0056
 7811SOL     OW26386   6.161   0.793   7.839  0.3188  0.5095  0.0534
 7811SOL    HW126387   6.238   0.850   7.843  0.3592  0.4907 -0.4159
 7811SOL    HW226388   6.166   0.740   7.919 -0.4088  2.0265  1.1693
 7812SOL     OW26389   3.640   1.757   3.864 -0.1384 -0.2018  0.2251
 7812SOL    HW126390   3.631   1.663   3.879  0.7695 -0.1860  0.8861
 7812SOL    HW226391   3.622   1.797   3.949 -0.5810  0.2373 -0.0685
 7813SOL     OW26392   6.226   4.447   7.559 -0.1604  0.4763 -0.0788
 7813SOL    HW126393   6.306   4.412   7.519  0.1179 -0.0036  0.8558
 7813SOL    HW226394   6.258   4.505   7.628 -0.5915 -0.2438  0.7549
 7814SOL     OW26395   6.493   1.878   4.606  0.3043  0.6207  0.3345
 7814SOL    HW126396   6.481   1.870   4.701 -2.3308 -1.2214 -0.0370
 7814SOL    HW226397   6.412   1.841   4.569  1.1647  1.4921 -2.6336
 7815SOL     OW26398   5.397   0.852   1.472  0.1263 -0.4715 -0.8140
 7815SOL    HW126399   5.411   0.939   1.433  0.7920  0.5512  1.5323
 7815SOL    HW226400   5.340   0.868   1.547  0.2279 -2.0892 -0.3624
 7816SOL     OW26401   2.271   2.426   1.599 -0.2562 -0.0034  0.3283
 7816SOL    HW126402   2.272   2.493   1.531 -0.6665  0.5701  0.8865
 7816SOL    HW226403   2.260   2.474   1.681  0.1835 -0.6947  0.8018
 7817SOL     OW26404   4.439   5.915   0.927  0.1926 -0.2371  0.5398
 7817SOL    HW126405   4.423   5.979   0.857 -0.8647 -0.6378  0.4113
 7817SOL    HW226406   4.434   5.967   1.007  0.8782  0.1234  0.3608
 7818SOL     OW26407   3.400   5.262   7.399 -0.4174  0.2569 -0.0585
 7818SOL    HW126408   3.325   5.241   7.454  0.3397 -0.5728  0.6806
 7818SOL    HW226409   3.381   5.219   7.316  0.0595 -1.5200  0.7116
 7819SOL     OW26410   6.874   3.450   7.143  0.4612  0.6507 -0.1271
 7819SOL    HW126411   6.963   3.435   7.110  0.4108  1.4562 -0.6503
 7819SOL    HW226412   6.828   3.368   7.126  1.2133  0.0649  0.5505
 7820SOL     OW26413   2.967   2.514   1.297 -0.1777 -0.0070  0.0195
 7820SOL    HW126414   2.953   2.442   1.359  2.7762  0.6430  1.6418
 7820SOL    HW226415   2.915   2.586   1.331 -1.1029 -0.5735 -0.1430
 7821SOL     OW26416   0.192   5.419   2.841 -0.7027 -0.4347 -0.5050
 7821SOL    HW126417   0.131   5.357   2.800  1.7297 -2.4721 -1.3601
 7821SOL    HW226418   0.235   5.368   2.910  1.3404  0.2870 -1.1777
 7822SOL     OW26419   3.271   4.830   2.301 -0.0446  0.1201 -0.0661
 7822SOL    HW126420   3.331   4.898   2.333 -0.3612 -0.5306  2.0440
 7822SOL    HW226421   3.188   4.850   2.343 -0.5892 -0.6299 -0.7540
 7823SOL     OW26422   3.515   0.442   0.792 -0.1465 -0.1003 -0.2169
 7823SOL    HW126423   3.585   0.505   0.809  0.1500 -0.3871 -0.3545
 7823SOL    HW226424   3.515   0.386   0.870 -1.3785  0.9334  0.5800
 7824SOL     OW26425   5.546   1.112   0.154 -0.0207  0.1243  0.8243
 7824SOL    HW126426   5.505   1.199   0.154  2.0492  1.1795  1.4892
 7824SOL    HW226427   5.581   1.103   0.065  1.3225  0.8132  1.2522
 7825SOL     OW26428   4.054   0.075   4.289  0.3980  0.3452  1.1207
 7825SOL    HW126429   4.101  -0.004   4.260  0.0375 -0.5597  2.8532
 7825SOL    HW226430   3.962   0.055   4.274  0.4143  1.6682 -1.1994
 7826SOL     OW26431   5.942   5.246   6.684 -0.2066 -0.3398  0.4330
 7826SOL    HW126432   6.019   5.302   6.678 -0.4381  0.1384  1.6801
 7826SOL    HW226433   5.935   5.205   6.597  2.2304 -1.4855  0.6974
 7827SOL     OW26434   5.397   6.476   5.281 -0.4367 -0.6327 -0.1418
 7827SOL    HW126435   5.337   6.402   5.292 -1.8569  0.3870 -0.6477
 7827SOL    HW226436   5.345   6.552   5.305  1.5452  0.1196  2.2491
 7828SOL     OW26437   1.284   2.320   6.203 -0.4955 -0.2140  0.3724
 7828SOL    HW126438   1.329   2.237   6.186 -0.4956 -0.2288  0.4413
 7828SOL    HW226439   1.342   2.365   6.266 -1.1386 -0.7249  1.3607
 7829SOL     OW26440   4.443   7.512   5.619 -0.0055  0.5040  0.7232
 7829SOL    HW126441   4.450   7.427   5.663 -0.5667 -0.4608 -0.9530
 7829SOL    HW226442   4.513   7.512   5.554  0.1072  1.4070  0.8357
 7830SOL     OW26443   3.216   4.244   0.077  0.3080 -0.2754  0.0811
 7830SOL    HW126444   3.125   4.265   0.099  0.0058  0.2394 -1.5348
 7830SOL    HW226445   3.268   4.297   0.137 -0.3984 -1.8464  2.2022
 7831SOL     OW26446   7.359   7.260   0.019 -0.0169 -0.0877 -0.0982
 7831SOL    HW126447   7.270   7.238  -0.009 -0.2309  1.2608 -0.5672
 7831SOL    HW226448   7.350   7.344   0.063  1.2274  0.8650 -1.5550
 7832SOL     OW26449   4.187   0.687   2.742  0.0792  0.1367  0.2320
 7832SOL    HW126450   4.091   0.693   2.735  0.0403 -0.7818 -0.1810
 7832SOL    HW226451   4.209   0.607   2.694  1.0363  0.2234  0.5162
 7833SOL     OW26452   6.617   7.116   5.167  0.5249  0.1100  0.1542
 7833SOL    HW126453   6.658   7.058   5.232 -0.4766 -0.6187  0.1688
 7833SOL    HW226454   6.549   7.163   5.217 -0.8038 -1.0499 -0.4907
 7834SOL     OW26455   5.671   1.610   6.786  0.3076  1.0414 -0.7091
 7834SOL    HW126456   5.762   1.594   6.764  0.0042  1.2695 -2.2270
 7834SOL    HW226457   5.645   1.683   6.729 -0.7675  1.0986 -0.1711
 7835SOL     OW26458   5.226   5.127   7.337 -0.3187  0.0197  0.1392
 7835SOL    HW126459   5.137   5.091   7.341  0.3544 -1.8283 -0.5549
 7835SOL    HW226460   5.235   5.177   7.419 -2.4370  1.4506 -0.3974
 7836SOL     OW26461   0.428   8.074   6.235  0.3475  0.0899  0.1711
 7836SOL    HW126462   0.378   7.994   6.220  1.3713 -0.4495 -0.4493
 7836SOL    HW226463   0.363   8.144   6.232 -0.6827 -0.7644  1.4880
 7837SOL     OW26464   4.068   5.506   3.426  0.8901  0.2791 -0.1415
 7837SOL    HW126465   4.095   5.441   3.490 -0.3418 -1.2571 -1.0984
 7837SOL    HW226466   4.142   5.566   3.420  1.8989 -0.7699  1.1033
 7838SOL     OW26467   3.034   2.810   1.614 -0.7242  0.5024 -0.0318
 7838SOL    HW126468   3.089   2.871   1.662  0.6855 -0.7153 -0.0363
 7838SOL    HW226469   3.083   2.728   1.613 -1.8000 -0.1778 -1.4845
 7839SOL     OW26470   1.092   2.111   0.292 -0.1363  0.2471  0.5837
 7839SOL    HW126471   1.036   2.112   0.370 -1.0326  1.7192 -0.0549
 7839SOL    HW226472   1.036   2.079   0.222  0.1309  0.6776  0.1656
 7840SOL     OW26473   7.563   4.427   4.888  0.0223 -0.3029 -0.0411
 7840SOL    HW126474   7.490   4.473   4.929  0.8086 -0.1893  1.2816
 7840SOL    HW226475   7.612   4.390   4.961  2.0310  0.7296 -0.7796
 7841SOL     OW26476   7.716   1.024   3.794 -0.3247  0.1807 -0.2954
 7841SOL    HW126477   7.652   1.089   3.764 -0.6190  0.7140  1.3933
 7841SOL    HW226478   7.666   0.943   3.801 -0.3550  0.1536 -0.7838
 7842SOL     OW26479   3.930   3.351   4.675  0.0617 -0.5141  0.2102
 7842SOL    HW126480   3.972   3.431   4.643 -0.6425 -0.1952  0.0539
 7842SOL    HW226481   3.928   3.361   4.770 -1.6027  0.4963  0.1087
 7843SOL     OW26482   4.507   2.394   4.540  0.0506  0.4379 -0.2833
 7843SOL    HW126483   4.432   2.343   4.510 -0.6213  0.5537  1.1086
 7843SOL    HW226484   4.472   2.482   4.554  0.5883  0.6418 -0.1972
 7844SOL     OW26485   3.797   3.668   2.709  0.3116  0.2081 -0.0487
 7844SOL    HW126486   3.716   3.619   2.701  0.5388 -0.0164 -1.0586
 7844SOL    HW226487   3.866   3.605   2.689  0.5579  1.1062 -2.2561
 7845SOL     OW26488   4.690   0.528   0.358  0.2231  0.0442  0.3419
 7845SOL    HW126489   4.761   0.547   0.297  1.2301 -0.6936  1.2461
 7845SOL    HW226490   4.614   0.513   0.303  1.6056 -2.9957 -0.9619
 7846SOL     OW26491   1.044   6.544   6.441 -0.1567 -0.3963  0.9351
 7846SOL    HW126492   1.071   6.510   6.356 -0.2123 -0.7927  1.0709
 7846SOL    HW226493   1.010   6.467   6.488  0.8995 -0.4008  1.7215
 7847SOL     OW26494   4.813   4.214   0.362 -0.2366  0.1226  0.5504
 7847SOL    HW126495   4.883   4.212   0.297 -0.8727 -0.3004 -0.1352
 7847SOL    HW226496   4.799   4.307   0.380  1.5021  0.1892  1.8127
 7848SOL     OW26497   4.217   2.761   7.589  0.3686 -0.2573  0.0499
 7848SOL    HW126498   4.238   2.764   7.496  0.6556  0.7005  0.1388
 7848SOL    HW226499   4.250   2.675   7.617 -0.2306 -0.7931 -0.8385
 7849SOL     OW26500   3.909   2.641   4.709 -0.3359 -0.1581  0.2224
 7849SOL    HW126501   3.871   2.671   4.626 -0.2962  0.0258  0.2696
 7849SOL    HW226502   3.843   2.663   4.775  0.3471  1.2662  0.4690
 7850SOL     OW26503   1.186   6.675   6.687 -0.7358  0.0915  0.1507
 7850SOL    HW126504   1.209   6.757   6.642 -0.1097 -0.0562  0.1956
 7850SOL    HW226505   1.149   6.620   6.618  0.4796 -0.2407 -0.2612
 7851SOL     OW26506   1.345   4.869   8.031 -0.2972  0.6345  0.2013
 7851SOL    HW126507   1.316   4.813   7.959  0.6314 -0.1788  0.4431
 7851SOL    HW226508   1.321   4.958   8.003 -1.6825  0.1544 -0.2408
 7852SOL     OW26509   0.886   0.088   6.437 -0.5066 -0.4847  0.5256
 7852SOL    HW126510   0.935   0.039   6.502 -1.0503  0.4476  1.6719
 7852SOL    HW226511   0.840   0.021   6.386  0.9925 -1.2986  0.1886
 7853SOL     OW26512   3.638   0.500   4.145 -0.4267 -0.0588 -0.1345
 7853SOL    HW126513   3.707   0.440   4.174  1.8936  2.1758 -0.6146
 7853SOL    HW226514   3.594   0.453   4.074  1.2031 -1.2952 -0.4045
 7854SOL     OW26515   6.415   5.790   5.323 -0.2430  0.2521  0.1193
 7854SOL    HW126516   6.368   5.770   5.404 -0.3226 -2.0643 -0.4356
 7854SOL    HW226517   6.502   5.820   5.352 -0.2567 -0.5870  1.0704
 7855SOL     OW26518   3.814   4.969   0.364 -0.3205 -0.3621  0.1982
 7855SOL    HW126519   3.777   4.884   0.387  1.4406 -0.9012  1.2403
 7855SOL    HW226520   3.886   4.981   0.426  1.9116  0.1441 -2.3277
 7856SOL     OW26521   3.588   6.858   7.247  0.0804  0.0449 -0.2271
 7856SOL    HW126522   3.527   6.785   7.249  0.7076 -0.5425 -1.4603
 7856SOL    HW226523   3.540   6.929   7.204  0.0579 -0.2224 -0.6474
 7857SOL     OW26524   1.822   1.959   2.718 -0.4584  0.0964  0.2629
 7857SOL    HW126525   1.797   1.874   2.752 -0.5976 -0.0885 -0.2842
 7857SOL    HW226526   1.907   1.977   2.756 -0.0493 -0.6639 -0.2716
 7858SOL     OW26527   5.347   1.086   3.308  0.4133  0.3422 -0.0851
 7858SOL    HW126528   5.308   1.173   3.313  0.6929  0.4423  0.4187
 7858SOL    HW226529   5.431   1.099   3.264 -0.3113  0.0511 -1.6392
 7859SOL     OW26530   0.536   3.090   2.965 -0.0929  0.6358 -0.4894
 7859SOL    HW126531   0.498   3.167   2.922  0.2035  0.7870 -0.4853
 7859SOL    HW226532   0.503   3.093   3.054 -4.0828 -1.8967 -1.6216
 7860SOL     OW26533   5.249   1.397   4.916  0.5868 -0.0153 -0.1239
 7860SOL    HW126534   5.270   1.312   4.954  1.1121  0.1528 -0.0307
 7860SOL    HW226535   5.333   1.442   4.909  0.3714  0.3358 -0.5651
 7861SOL     OW26536   1.136   4.656   2.098  0.6117  0.3580 -0.2073
 7861SOL    HW126537   1.153   4.608   2.017 -1.9376  0.6825 -1.0235
 7861SOL    HW226538   1.043   4.640   2.116  1.1744  0.0486  2.8458
 7862SOL     OW26539   3.479   5.912   0.610 -0.0236  0.0592 -0.0101
 7862SOL    HW126540   3.415   5.984   0.607  0.8466  0.8277 -0.5622
 7862SOL    HW226541   3.541   5.937   0.678  0.8966  0.3816 -0.9349
 7863SOL     OW26542   4.077   4.617   6.481 -0.1408  0.0814 -0.3265
 7863SOL    HW126543   4.034   4.547   6.431 -1.4484  0.7569 -0.1861
 7863SOL    HW226544   4.137   4.658   6.419  0.4841 -1.0088 -0.4694
 7864SOL     OW26545   4.039   4.034   3.047 -0.2987  0.3302 -0.6427
 7864SOL    HW126546   3.957   3.992   3.022 -0.3653  0.2761 -0.3353
 7864SOL    HW226547   4.016   4.091   3.119 -0.2054  0.9086 -1.0659
 7865SOL     OW26548   5.440   5.013   6.003  0.0623 -0.3304  0.7036
 7865SOL    HW126549   5.521   5.032   5.955 -1.6358  1.4324 -1.7283
 7865SOL    HW226550   5.395   4.949   5.948 -0.4677 -0.8886  1.7632
 7866SOL     OW26551   2.648   6.691   7.001 -0.5231  0.0761  0.2801
 7866SOL    HW126552   2.637   6.786   7.013 -0.3073  0.0617  0.5783
 7866SOL    HW226553   2.663   6.657   7.089 -1.2330 -0.3234  0.2506
 7867SOL     OW26554   3.359   0.169   0.720  0.2566  0.4792  0.2766
 7867SOL    HW126555   3.448   0.155   0.686  0.8807  0.9262  1.6475
 7867SOL    HW226556   3.314   0.216   0.650  0.6191 -1.0683 -1.0568
 7868SOL     OW26557   1.738   4.462   4.607 -0.0792  0.7798  0.3413
 7868SOL    HW126558   1.651   4.498   4.625 -0.4221  0.2579 -0.2404
 7868SOL    HW226559   1.787   4.536   4.569 -0.1043  1.2061  1.1076
 7869SOL     OW26560   1.109   1.207   1.751 -0.3002  0.3286 -0.2932
 7869SOL    HW126561   1.026   1.189   1.707 -0.0354  0.8670 -1.0258
 7869SOL    HW226562   1.083   1.257   1.829 -0.6388  0.9427 -0.7842
 7870SOL     OW26563   1.391   1.438   5.419  0.4747 -0.3354 -0.2240
 7870SOL    HW126564   1.398   1.491   5.340  1.7801 -0.7748 -0.4430
 7870SOL    HW226565   1.313   1.384   5.405 -0.4617  1.0035 -0.2967
 7871SOL     OW26566   3.493   0.019   0.323 -0.1795 -0.2053 -0.4284
 7871SOL    HW126567   3.425   0.075   0.287  0.3274 -0.6244 -2.1653
 7871SOL    HW226568   3.522   0.063   0.402  0.3565  2.1270 -1.8357
 7872SOL     OW26569   0.778   1.282   6.014  0.2379  0.0630 -0.0980
 7872SOL    HW126570   0.841   1.309   6.081 -0.0385  0.4553  0.0108
 7872SOL    HW226571   0.831   1.262   5.937  0.4948  0.4102 -0.0150
 7873SOL     OW26572   7.334   5.231   7.921 -0.1031 -0.2118  0.5352
 7873SOL    HW126573   7.255   5.189   7.956  0.6041 -1.4105  0.7387
 7873SOL    HW226574   7.302   5.285   7.849 -1.0915 -0.8251  0.4850
 7874SOL     OW26575   1.312   4.087   4.259 -0.1503 -0.1372  0.0439
 7874SOL    HW126576   1.339   4.073   4.350  0.1512 -0.3719 -0.0834
 7874SOL    HW226577   1.380   4.045   4.207 -2.1098 -3.2170 -0.2722
 7875SOL     OW26578   3.500   0.402   3.324 -0.0725  0.1655  0.7580
 7875SOL    HW126579   3.500   0.353   3.406 -0.7354  1.0212  1.2911
 7875SOL    HW226580   3.408   0.413   3.302  0.0935  0.2478  0.0855
 7876SOL     OW26581   6.167   1.542   4.046 -0.8286 -0.2129  0.3324
 7876SOL    HW126582   6.129   1.564   4.132 -0.7667  1.7022 -0.0882
 7876SOL    HW226583   6.236   1.607   4.033 -1.1408 -0.1721 -1.3595
 7877SOL     OW26584   7.198   3.820   6.751 -0.4366  0.1215 -0.6756
 7877SOL    HW126585   7.129   3.807   6.816  2.5860  0.4101  2.9257
 7877SOL    HW226586   7.188   3.911   6.724 -2.5945 -0.3912 -1.8004
 7878SOL     OW26587   0.819   1.805   1.738 -0.0306 -0.2323 -0.2289
 7878SOL    HW126588   0.834   1.779   1.829 -0.9136  0.3833  0.1111
 7878SOL    HW226589   0.768   1.887   1.744  1.7590  1.0269 -1.2655
 7879SOL     OW26590   3.749   7.602   3.177  0.2566 -0.2788  0.1673
 7879SOL    HW126591   3.760   7.511   3.204 -0.2497 -0.1838  0.7230
 7879SOL    HW226592   3.655   7.619   3.188  0.0431 -0.2050 -1.5773
 7880SOL     OW26593   6.082   4.391   0.886  0.1877 -0.1954 -0.2992
 7880SOL    HW126594   6.174   4.417   0.894 -0.3360  1.7820 -0.1852
 7880SOL    HW226595   6.052   4.381   0.977 -0.0077  0.2883 -0.3111
 7881SOL     OW26596   0.886   2.896   0.023 -0.5338 -0.1612 -0.1564
 7881SOL    HW126597   0.974   2.871   0.051 -0.3259 -0.3320 -0.9343
 7881SOL    HW226598   0.828   2.845   0.080 -0.1899  1.5553  1.8306
 7882SOL     OW26599   0.069   1.649   0.380 -0.4603 -0.0786 -0.3284
 7882SOL    HW126600   0.130   1.585   0.417 -1.0647 -1.9988 -2.4175
 7882SOL    HW226601  -0.017   1.623   0.414 -0.4595  1.0294  0.5637
 7883SOL     OW26602   0.342   3.868   7.652  0.2432 -0.6281  0.3124
 7883SOL    HW126603   0.430   3.903   7.667 -0.6972  1.1535  2.0877
 7883SOL    HW226604   0.344   3.838   7.561  2.7863 -1.0186  0.4154
 7884SOL     OW26605   4.844   7.023   3.678  0.2261 -0.4290  1.1197
 7884SOL    HW126606   4.855   7.084   3.606  0.8651  1.6335  2.8449
 7884SOL    HW226607   4.825   6.939   3.637 -0.0543  0.7905 -1.3841
 7885SOL     OW26608   2.149   4.316   6.755  0.1786 -0.2651 -0.1491
 7885SOL    HW126609   2.053   4.322   6.754  0.1718 -0.1762 -1.8095
 7885SOL    HW226610   2.167   4.233   6.799 -0.7014 -0.6008 -0.3898
 7886SOL     OW26611   0.781   7.947   5.351  0.2391  0.1125  0.4472
 7886SOL    HW126612   0.870   7.956   5.318  0.4441  0.4846  1.0782
 7886SOL    HW226613   0.791   7.930   5.445 -0.3642  1.2714  0.7487
 7887SOL     OW26614   2.916   5.928   2.007 -0.4235 -0.1681 -0.7037
 7887SOL    HW126615   2.898   5.853   2.063  0.6050  0.4792  0.5591
 7887SOL    HW226616   2.891   5.899   1.920 -3.1365 -0.8454  0.2000
 7888SOL     OW26617   3.476   5.094   7.785  0.4700 -0.0437  0.1600
 7888SOL    HW126618   3.519   5.082   7.701 -0.6677 -0.7626 -0.3431
 7888SOL    HW226619   3.383   5.091   7.765  0.1634  0.9465  1.2893
 7889SOL     OW26620   0.346   2.751   5.831  0.4649 -0.1363  0.3773
 7889SOL    HW126621   0.390   2.798   5.760  1.5134 -0.3999  0.8401
 7889SOL    HW226622   0.396   2.670   5.841 -1.4462 -1.4928 -0.5510
 7890SOL     OW26623   7.387   6.203   0.582 -0.4960 -0.1086  0.2235
 7890SOL    HW126624   7.414   6.232   0.669  0.2554  0.7536 -0.2806
 7890SOL    HW226625   7.468   6.198   0.532 -1.0985  1.3609 -0.9855
 7891SOL     OW26626   7.918   6.854   0.012 -0.2943 -0.4684  0.4613
 7891SOL    HW126627   7.849   6.903   0.056  0.7345  0.1970  1.3731
 7891SOL    HW226628   7.969   6.814   0.083 -0.0244 -1.3663 -0.2070
 7892SOL     OW26629   0.361   1.088   7.529 -0.7872 -0.0687 -0.2624
 7892SOL    HW126630   0.325   1.085   7.441 -0.2145 -2.8189 -0.4906
 7892SOL    HW226631   0.287   1.112   7.585 -1.7130 -0.5702 -1.2528
 7893SOL     OW26632   4.323   7.925   0.038 -0.0388 -0.7754 -0.0890
 7893SOL    HW126633   4.278   7.868  -0.024 -2.1691 -0.0524  0.7206
 7893SOL    HW226634   4.323   7.875   0.120 -0.7581 -0.1605  0.2938
 7894SOL     OW26635   2.603   5.220   6.587  0.2876  0.0089 -0.3033
 7894SOL    HW126636   2.522   5.172   6.568  0.6333 -0.8685  0.3748
 7894SOL    HW226637   2.579   5.282   6.656  0.1328 -0.0660 -0.2897
 7895SOL     OW26638   5.295   7.258   0.687  0.3709  0.5729 -0.1356
 7895SOL    HW126639   5.295   7.334   0.629  1.4652  1.4189  0.9320
 7895SOL    HW226640   5.388   7.236   0.698  0.1471  0.0136  0.7433
 7896SOL     OW26641   0.071   0.100   1.630  0.2016  0.4942 -0.5166
 7896SOL    HW126642   0.001   0.164   1.620 -0.6306 -0.1722  0.7261
 7896SOL    HW226643   0.126   0.135   1.700 -0.4881 -0.2945  0.4591
 7897SOL     OW26644   3.157   2.975   5.666  0.0484  0.5632 -0.3846
 7897SOL    HW126645   3.176   3.001   5.575 -0.1569 -0.0005 -0.5899
 7897SOL    HW226646   3.239   2.990   5.713  1.2038 -2.2552 -1.3417
 7898SOL     OW26647   3.478   6.946   6.219  0.2381  0.0994 -0.2974
 7898SOL    HW126648   3.536   6.991   6.157 -0.6697 -0.0977 -1.3081
 7898SOL    HW226649   3.535   6.883   6.264  0.9112  0.2677 -0.9080
 7899SOL     OW26650   4.013   3.563   5.100 -1.2243 -0.1544 -0.0795
 7899SOL    HW126651   4.024   3.650   5.138  2.1220 -0.5739  0.1933
 7899SOL    HW226652   4.050   3.570   5.013 -0.9227 -1.2899 -0.0591
 7900SOL     OW26653   3.262   6.290   3.659 -0.8766  0.4676  0.2921
 7900SOL    HW126654   3.246   6.197   3.673  0.1337  0.3521  0.7798
 7900SOL    HW226655   3.260   6.328   3.747  0.6972  0.5595  0.3179
 7901SOL     OW26656   0.912   2.365   4.395 -0.0521 -0.6121 -0.4187
 7901SOL    HW126657   1.004   2.356   4.420 -0.6225 -1.1705  1.6898
 7901SOL    HW226658   0.897   2.460   4.391  0.6616 -0.5203 -1.0253
 7902SOL     OW26659   6.614   5.036   2.219  0.5475 -0.0043 -0.5355
 7902SOL    HW126660   6.527   5.063   2.190  0.9202  0.7629 -0.9589
 7902SOL    HW226661   6.630   4.954   2.173  0.3436  0.2208 -1.0119
 7903SOL     OW26662   5.198   3.126   2.277 -0.1024  0.0230  0.0994
 7903SOL    HW126663   5.197   3.051   2.219 -0.2562  0.3753 -0.3551
 7903SOL    HW226664   5.288   3.130   2.310 -0.9450 -2.8264  3.3868
 7904SOL     OW26665   3.282   6.164   0.001 -0.1210  0.2349  0.3778
 7904SOL    HW126666   3.209   6.142   0.057 -0.7783  1.7609  0.1658
 7904SOL    HW226667   3.336   6.085  -0.000 -1.3367 -0.6416  1.1753
 7905SOL     OW26668   6.802   3.116   0.334 -0.5375 -0.3588 -0.3002
 7905SOL    HW126669   6.879   3.060   0.337  1.1079  1.6381 -1.8978
 7905SOL    HW226670   6.739   3.068   0.280  0.0198 -1.5151  0.0518
 7906SOL     OW26671   2.148   5.717   6.990 -0.4111 -0.2137 -0.4970
 7906SOL    HW126672   2.181   5.642   6.941  1.0196 -0.6972  1.1284
 7906SOL    HW226673   2.122   5.779   6.922  0.5470 -1.2484 -1.8827
 7907SOL     OW26674   3.119   3.772   5.983  0.0806  0.0031  0.0811
 7907SOL    HW126675   3.136   3.796   5.892  0.4198 -1.8928 -0.4070
 7907SOL    HW226676   3.193   3.808   6.032  0.5518 -0.0169 -0.6024
 7908SOL     OW26677   4.771   8.076   2.861 -0.3139 -0.3127 -0.2295
 7908SOL    HW126678   4.793   8.133   2.788 -0.5440 -0.4385 -0.3990
 7908SOL    HW226679   4.836   8.005   2.857  2.1272  1.5849  1.9514
 7909SOL     OW26680   3.067   0.778   0.485  0.8494 -0.2672  0.1843
 7909SOL    HW126681   2.984   0.803   0.527  1.4539  0.7933  0.7980
 7909SOL    HW226682   3.057   0.804   0.394  0.0423 -1.3156 -0.0449
 7910SOL     OW26683   3.173   6.784   0.028 -0.4157 -0.3952  0.2393
 7910SOL    HW126684   3.123   6.726  -0.030 -0.3349 -1.6751  1.3947
 7910SOL    HW226685   3.155   6.751   0.116  0.7132  0.5067  0.8353
 7911SOL     OW26686   3.339   6.824   1.111 -0.2334  0.4167  0.3691
 7911SOL    HW126687   3.266   6.776   1.072 -0.7226  0.1581  1.5395
 7911SOL    HW226688   3.404   6.757   1.131  0.6092  0.7229 -1.2235
 7912SOL     OW26689   2.207   3.401   0.369  0.1724  0.6172  0.2455
 7912SOL    HW126690   2.259   3.356   0.303 -2.8782 -1.7936 -0.7536
 7912SOL    HW226691   2.215   3.346   0.447 -0.4769  0.4771  0.2174
 7913SOL     OW26692   2.928   4.932   5.426 -0.2076  0.4895  0.9068
 7913SOL    HW126693   3.022   4.947   5.439 -0.5863  1.2100  3.1449
 7913SOL    HW226694   2.886   4.971   5.502 -2.4523  1.1218 -0.5492
 7914SOL     OW26695   6.674   4.723   4.767  0.1838 -0.1570  0.5396
 7914SOL    HW126696   6.716   4.758   4.689 -1.1922 -0.2829 -0.2875
 7914SOL    HW226697   6.629   4.797   4.806 -0.0712 -0.3337  0.5843
 7915SOL     OW26698   1.535   2.691   0.245 -0.1388 -0.0948 -0.9703
 7915SOL    HW126699   1.609   2.734   0.203 -1.7147  1.4520 -2.3366
 7915SOL    HW226700   1.566   2.670   0.333  1.8784  0.5481 -1.4766
 7916SOL     OW26701   5.918   4.841   2.042  0.4005  0.4901  0.6624
 7916SOL    HW126702   5.914   4.750   2.013  0.3839  0.3706  1.0259
 7916SOL    HW226703   5.884   4.892   1.969  2.0914  0.3619 -0.2565
 7917SOL     OW26704   3.733   1.584   4.335 -0.0978 -0.9915  0.6637
 7917SOL    HW126705   3.787   1.506   4.331  1.1771 -0.1904  1.4722
 7917SOL    HW226706   3.790   1.654   4.303 -2.0624 -0.7260 -2.8164
 7918SOL     OW26707   7.262   3.295   2.655  0.0702  0.5686 -0.5469
 7918SOL    HW126708   7.188   3.235   2.666 -1.4312  2.4365 -0.0041
 7918SOL    HW226709   7.337   3.237   2.641 -1.6116 -1.4081 -2.2193
 7919SOL     OW26710   6.672   5.473   1.004  0.0655  0.2453 -0.1727
 7919SOL    HW126711   6.578   5.464   0.992  0.0481  0.7885 -0.4722
 7919SOL    HW226712   6.683   5.555   1.051  0.3301 -0.3523  0.8536
 7920SOL     OW26713   6.325   7.451   7.817 -0.3211  0.2772  0.0081
 7920SOL    HW126714   6.417   7.439   7.841  0.4825  1.1520 -2.3924
 7920SOL    HW226715   6.303   7.538   7.849 -0.3437  0.0654  0.5875
 7921SOL     OW26716   7.383   2.409   0.968  0.1210  0.4211 -1.2341
 7921SOL    HW126717   7.451   2.351   0.934 -0.4543 -0.8142 -0.3399
 7921SOL    HW226718   7.302   2.375   0.930 -0.6456 -1.4384  1.7448
 7922SOL     OW26719   1.132   7.375   2.414  0.5376  0.9198  0.0800
 7922SOL    HW126720   1.191   7.397   2.486 -0.2283 -1.1338  1.4363
 7922SOL    HW226721   1.044   7.385   2.450  0.1443 -1.7475  0.0597
 7923SOL     OW26722   0.549   3.291   6.025 -0.4585  0.4930 -0.1282
 7923SOL    HW126723   0.616   3.346   5.984  1.2951 -1.0098  0.5917
 7923SOL    HW226724   0.573   3.202   6.000 -3.2194 -0.0428 -1.2512
 7924SOL     OW26725   0.659   3.347   0.122 -0.0611  0.0796  0.0279
 7924SOL    HW126726   0.736   3.400   0.143 -0.6969  1.3396 -0.6877
 7924SOL    HW226727   0.676   3.315   0.033 -0.9516  1.5585 -0.7192
 7925SOL     OW26728   3.534   1.223   1.823  0.3159  0.3804 -0.0656
 7925SOL    HW126729   3.516   1.249   1.914  0.6000 -0.7842  0.3378
 7925SOL    HW226730   3.495   1.293   1.770  1.8306  2.1175  0.9667
 7926SOL     OW26731   4.360   7.176   5.476 -0.1783 -0.2979 -0.0267
 7926SOL    HW126732   4.343   7.206   5.387  0.3508 -0.5261 -0.2119
 7926SOL    HW226733   4.317   7.090   5.481  1.8512 -1.4400 -0.8910
 7927SOL     OW26734   6.230   0.835   5.503 -0.5734  0.4021 -0.5452
 7927SOL    HW126735   6.160   0.780   5.468 -0.3233  0.3001 -0.8917
 7927SOL    HW226736   6.187   0.891   5.567 -0.9227  0.1539 -0.5596
 7928SOL     OW26737   7.307   6.403   5.283  0.0846 -0.3809  0.5443
 7928SOL    HW126738   7.373   6.338   5.306  0.7234  0.7662  2.1946
 7928SOL    HW226739   7.304   6.461   5.359 -3.1450 -0.6346  0.7505
 7929SOL     OW26740   2.733   0.490   5.337 -0.3058  0.0550  0.3888
 7929SOL    HW126741   2.759   0.416   5.282 -0.5449  0.8325 -0.8197
 7929SOL    HW226742   2.708   0.450   5.420 -0.9099 -1.2836 -0.3896
 7930SOL     OW26743   3.712   4.452   3.095 -0.1019 -0.0692  0.1396
 7930SOL    HW126744   3.666   4.424   3.016  2.2224  0.7384 -1.6025
 7930SOL    HW226745   3.777   4.515   3.065  1.2930 -0.1574  2.6177
 7931SOL     OW26746   2.067   1.063   8.112 -0.3527  0.3487 -0.3478
 7931SOL    HW126747   1.973   1.074   8.124 -0.1639  0.8393  0.8061
 7931SOL    HW226748   2.092   0.997   8.178  0.1695  0.5206 -0.3695
 7932SOL     OW26749   4.978   6.293   0.638 -0.2502  0.1289 -0.0354
 7932SOL    HW126750   5.027   6.282   0.719  0.1193  1.0329 -0.1279
 7932SOL    HW226751   4.918   6.366   0.655  0.5072  0.9755 -0.8735
 7933SOL     OW26752   3.981   2.287   0.612  0.1290  0.3138 -0.0240
 7933SOL    HW126753   4.001   2.194   0.622  2.0424  0.7860  0.9135
 7933SOL    HW226754   3.887   2.293   0.629 -0.1766 -1.5176 -0.8103
 7934SOL     OW26755   5.254   1.456   4.140  0.4153  0.3889  0.4799
 7934SOL    HW126756   5.176   1.402   4.153  0.7708 -0.4261 -0.6195
 7934SOL    HW226757   5.238   1.503   4.059  1.2310 -0.1239  0.0014
 7935SOL     OW26758   2.910   4.726   7.268  0.4703 -0.0087  0.1104
 7935SOL    HW126759   2.983   4.787   7.261  1.2207 -0.7152  1.3478
 7935SOL    HW226760   2.892   4.698   7.178  0.1560  1.9269 -0.4852
 7936SOL     OW26761   6.827   8.111   8.060  0.0459  0.1082 -0.1386
 7936SOL    HW126762   6.909   8.152   8.035 -0.2347 -0.4389 -2.0856
 7936SOL    HW226763   6.760   8.177   8.043 -0.0654  0.0284 -0.0168
 7937SOL     OW26764   6.839   8.018   2.523  0.3418  0.0747  0.0582
 7937SOL    HW126765   6.812   8.092   2.579 -1.3106  0.3446 -1.0343
 7937SOL    HW226766   6.932   8.007   2.542  0.0898  0.8641  2.0441
 7938SOL     OW26767   2.155   5.447   8.007  0.2884  0.2918 -0.0958
 7938SOL    HW126768   2.104   5.441   8.088 -0.4707  0.2738 -0.5617
 7938SOL    HW226769   2.167   5.355   7.981  0.0883  0.3160 -0.2730
 7939SOL     OW26770   2.856   2.241   0.214  0.0544  0.2171 -0.4349
 7939SOL    HW126771   2.904   2.213   0.291 -0.0301 -0.1577 -0.5189
 7939SOL    HW226772   2.876   2.335   0.206 -1.8289  0.8503  1.4283
 7940SOL     OW26773   7.539   8.043   6.281 -0.3703 -0.0719  0.1950
 7940SOL    HW126774   7.633   8.061   6.289 -0.1674 -1.1189  0.2758
 7940SOL    HW226775   7.498   8.111   6.335  0.2053  1.5487 -1.2930
 7941SOL     OW26776   0.222   2.015   3.800 -0.2706  0.2291 -0.3937
 7941SOL    HW126777   0.175   1.932   3.810 -0.2080  0.1277 -0.9136
 7941SOL    HW226778   0.186   2.071   3.868 -0.6878 -0.0585 -0.3728
 7942SOL     OW26779   1.969   4.558   6.580  0.6679 -0.5646 -0.5552
 7942SOL    HW126780   1.945   4.625   6.643  0.7172 -0.9463 -0.1180
 7942SOL    HW226781   2.026   4.602   6.517  1.0691 -0.3028 -0.0124
 7943SOL     OW26782   4.413   0.506   3.548 -0.2451 -0.2545  0.0994
 7943SOL    HW126783   4.482   0.572   3.546  0.2050 -0.6303  1.7427
 7943SOL    HW226784   4.371   0.518   3.634  1.3415 -3.5251  1.5058
 7944SOL     OW26785   3.569   1.294   2.089  0.1246  0.2540 -0.2325
 7944SOL    HW126786   3.649   1.334   2.124  0.4766 -0.4618 -0.2164
 7944SOL    HW226787   3.536   1.239   2.159  0.7679 -1.0897 -0.9536
 7945SOL     OW26788   4.395   0.196   6.687  0.4838  0.2895 -0.2243
 7945SOL    HW126789   4.331   0.130   6.660 -1.8111  1.4512  1.9285
 7945SOL    HW226790   4.381   0.205   6.781  0.0822  4.3370 -0.5080
 7946SOL     OW26791   1.451   5.594   2.040  0.5094  0.0212  0.5190
 7946SOL    HW126792   1.368   5.554   2.065  1.2207 -1.4650  0.6625
 7946SOL    HW226793   1.430   5.685   2.020 -1.2935 -0.5397 -0.2795
 7947SOL     OW26794   6.094   0.209   7.763 -0.3015 -0.3084 -0.5259
 7947SOL    HW126795   6.015   0.172   7.721  1.2613 -1.5450 -2.5960
 7947SOL    HW226796   6.166   0.161   7.723  1.5825  1.4450  0.6061
 7948SOL     OW26797   7.519   7.896   1.285  0.1155  0.2552  0.0221
 7948SOL    HW126798   7.528   7.989   1.308  0.7003  0.9458 -2.6469
 7948SOL    HW226799   7.444   7.894   1.225  0.0488 -1.0234  0.1279
 7949SOL     OW26800   0.944   7.239   6.968 -0.3303 -0.7745 -0.5445
 7949SOL    HW126801   0.969   7.236   7.061 -1.4123 -0.5595 -0.2360
 7949SOL    HW226802   0.889   7.317   6.961 -0.2703 -0.8044 -1.3685
 7950SOL     OW26803   3.098   0.675   4.511 -0.1787 -0.0356 -0.3342
 7950SOL    HW126804   3.109   0.603   4.449 -0.0028 -0.2446 -0.0618
 7950SOL    HW226805   3.076   0.632   4.594  0.7644  0.1646  0.0355
 7951SOL     OW26806   1.735   5.493   1.623 -0.5273 -0.4908  0.1166
 7951SOL    HW126807   1.712   5.462   1.710 -1.0644  0.7899  0.4599
 7951SOL    HW226808   1.717   5.419   1.565 -0.5107 -1.2363  1.0398
 7952SOL     OW26809   7.091   1.147   6.391 -0.2959  0.0737 -0.2996
 7952SOL    HW126810   7.169   1.175   6.440 -1.2405  1.6320  0.4086
 7952SOL    HW226811   7.116   1.157   6.299  0.2593  0.8800 -0.0790
 7953SOL     OW26812   6.139   3.844   6.020  0.2760  0.9064 -0.2014
 7953SOL    HW126813   6.168   3.932   5.996  1.1989  0.3431 -1.2542
 7953SOL    HW226814   6.171   3.788   5.949 -0.3572 -0.2682  0.4113
 7954SOL     OW26815   7.839   4.048   5.118 -0.1006  0.3124  0.0489
 7954SOL    HW126816   7.753   4.079   5.092 -1.0463 -1.2977  1.0776
 7954SOL    HW226817   7.849   3.964   5.072 -0.0444 -0.5638  1.6058
 7955SOL     OW26818   2.591   5.841   6.012 -0.3699 -0.0363 -0.2375
 7955SOL    HW126819   2.614   5.930   5.983  0.0722 -0.0991 -0.0946
 7955SOL    HW226820   2.547   5.802   5.936  0.5564 -0.1175 -0.7495
 7956SOL     OW26821   6.963   6.368   7.864 -0.0535  0.2767  0.2379
 7956SOL    HW126822   6.963   6.320   7.947 -0.5495 -1.2604 -0.5931
 7956SOL    HW226823   6.947   6.300   7.798 -0.4718  1.5730 -1.0405
 7957SOL     OW26824   7.805   3.874   0.130  0.3791  0.0931 -0.4022
 7957SOL    HW126825   7.878   3.933   0.143  1.3734 -0.9020 -1.2418
 7957SOL    HW226826   7.842   3.786   0.143 -0.9352 -0.3839  0.3266
 7958SOL     OW26827   7.105   6.535   2.396 -0.4184  0.1656 -0.1511
 7958SOL    HW126828   7.148   6.510   2.479  2.4509 -0.0530 -1.5751
 7958SOL    HW226829   7.177   6.553   2.336 -2.3200 -1.2172 -3.1067
 7959SOL     OW26830   1.229   0.160   8.007 -0.1424 -0.5151  0.0668
 7959SOL    HW126831   1.205   0.248   8.037  0.6624 -0.0637 -0.5979
 7959SOL    HW226832   1.236   0.168   7.912 -0.7031 -1.4600 -0.0608
 7960SOL     OW26833   7.503   7.083   1.133 -0.7101  0.9160  0.0291
 7960SOL    HW126834   7.450   7.044   1.064 -0.8008 -1.0164  1.1118
 7960SOL    HW226835   7.499   7.177   1.117 -2.4993  0.6597 -1.3005
 7961SOL     OW26836   3.537   2.808   5.828 -0.1744 -0.1045 -0.4865
 7961SOL    HW126837   3.507   2.764   5.908  1.1359  0.4964  0.3793
 7961SOL    HW226838   3.589   2.882   5.860  0.7123 -0.0813 -1.8943
 7962SOL     OW26839   6.793   5.934   6.451  0.5704  0.5935 -0.2504
 7962SOL    HW126840   6.720   5.990   6.479  2.2867  1.6210  2.6154
 7962SOL    HW226841   6.759   5.845   6.456 -0.7540  1.1033  0.1128
 7963SOL     OW26842   6.877   8.098   7.115 -0.3118  0.2252  0.5165
 7963SOL    HW126843   6.789   8.071   7.089 -0.2702  0.7085 -0.1555
 7963SOL    HW226844   6.883   8.074   7.208  0.1383 -3.1287 -0.2458
 7964SOL     OW26845   4.859   5.019   6.998  0.2840 -0.0623 -0.0008
 7964SOL    HW126846   4.767   5.033   7.021  0.1561 -1.2833  0.2552
 7964SOL    HW226847   4.859   4.943   6.940  1.1649 -0.2376  0.2124
 7965SOL     OW26848   3.448   3.632   5.988 -0.0665  0.1004 -0.3494
 7965SOL    HW126849   3.380   3.577   6.027  0.4635 -0.3472 -0.0216
 7965SOL    HW226850   3.429   3.632   5.894 -1.3592  1.1886 -0.1085
 7966SOL     OW26851   6.932   4.754   5.958  0.0602  0.4279  0.8444
 7966SOL    HW126852   6.860   4.773   5.898  0.5800 -0.7096 -0.1692
 7966SOL    HW226853   6.897   4.686   6.016  0.5071 -0.6509 -0.1037
 7967SOL     OW26854   0.286   5.956   6.837  0.4637  0.1084  0.5866
 7967SOL    HW126855   0.205   5.950   6.887 -0.1288 -4.0100 -0.4955
 7967SOL    HW226856   0.354   5.932   6.899 -0.1241 -3.5932  0.0833
 7968SOL     OW26857   8.096   6.714   5.707  0.3451  0.3337  0.3060
 7968SOL    HW126858   8.041   6.784   5.742 -0.6121 -0.5295  0.5392
 7968SOL    HW226859   8.050   6.684   5.629  0.5097 -0.3723  0.4794
 7969SOL     OW26860   8.050   4.352   6.080  0.0717  0.5637 -0.2170
 7969SOL    HW126861   8.108   4.283   6.047 -0.1469 -0.0363  0.6161
 7969SOL    HW226862   7.975   4.350   6.021  1.2163  1.9178 -1.8330
 7970SOL     OW26863   0.588   5.442   7.670 -0.4551 -1.1345  0.5127
 7970SOL    HW126864   0.549   5.437   7.583 -0.3186 -2.2233  0.5028
 7970SOL    HW226865   0.603   5.536   7.684 -0.4753 -0.9440 -0.6312
 7971SOL     OW26866   6.656   2.470   0.753 -0.5218 -1.1313  0.5475
 7971SOL    HW126867   6.751   2.476   0.761 -0.4300 -0.5586 -0.7509
 7971SOL    HW226868   6.633   2.535   0.686 -1.9733 -0.3352  1.7636
 7972SOL     OW26869   3.236   1.663   3.343  0.8014  0.2076  0.0957
 7972SOL    HW126870   3.173   1.735   3.348  1.9575  1.2148  1.0716
 7972SOL    HW226871   3.186   1.585   3.366 -0.4673  0.6971 -0.8900
 7973SOL     OW26872   4.769   1.242   5.400  0.0693  0.4476 -0.3796
 7973SOL    HW126873   4.809   1.329   5.395 -0.6182  0.7062 -1.6912
 7973SOL    HW226874   4.679   1.255   5.372 -0.5542 -0.3961  1.1179
 7974SOL     OW26875   1.347   3.873   6.894  0.0247  0.1432 -0.4276
 7974SOL    HW126876   1.325   3.781   6.879  1.4660 -0.1894 -0.6686
 7974SOL    HW226877   1.379   3.904   6.809  2.7757 -0.1343  0.3939
 7975SOL     OW26878   4.618   1.754   3.575 -0.0689  0.1439 -0.2031
 7975SOL    HW126879   4.526   1.760   3.603 -0.4542  0.3789 -1.4646
 7975SOL    HW226880   4.613   1.718   3.487  1.2091 -2.3593  0.6476
 7976SOL     OW26881   6.890   3.697   6.688  0.3179  0.0378 -0.1576
 7976SOL    HW126882   6.888   3.792   6.673 -0.8042  0.2277  1.0047
 7976SOL    HW226883   6.932   3.687   6.773 -0.8950 -0.3859  0.4069
 7977SOL     OW26884   3.474   5.327   1.561  0.0769  0.3777 -0.0693
 7977SOL    HW126885   3.392   5.317   1.608 -0.0603 -2.5253 -0.7432
 7977SOL    HW226886   3.452   5.311   1.469  1.3673 -0.5215 -0.2564
 7978SOL     OW26887   4.784   0.438   2.053 -0.2184  0.2868 -0.5037
 7978SOL    HW126888   4.698   0.398   2.071  0.7659 -1.4798  0.5472
 7978SOL    HW226889   4.806   0.409   1.965 -0.5167  0.3716 -0.6067
 7979SOL     OW26890   2.042   6.958   5.176  0.5805 -0.0299 -0.0222
 7979SOL    HW126891   2.013   6.896   5.243 -0.3590  0.6026  0.1903
 7979SOL    HW226892   2.041   6.908   5.095 -2.2339  0.1708 -0.2196
 7980SOL     OW26893   0.429   1.731   0.235  0.0431 -0.4191  0.1038
 7980SOL    HW126894   0.420   1.819   0.270 -1.8586 -0.4952 -0.0814
 7980SOL    HW226895   0.425   1.742   0.140  1.3970 -0.5772  0.0101
 7981SOL     OW26896   2.593   1.272   1.611 -0.2993 -0.3479 -0.9337
 7981SOL    HW126897   2.499   1.290   1.598 -0.7592 -0.2294  1.9286
 7981SOL    HW226898   2.630   1.357   1.635 -0.3921 -1.0610  2.1565
 7982SOL     OW26899   5.646   5.489   3.975 -0.1056  0.5872 -1.1534
 7982SOL    HW126900   5.569   5.540   3.951  0.7097  1.6198 -1.6729
 7982SOL    HW226901   5.662   5.511   4.067 -0.7160 -0.0267 -0.8935
 7983SOL     OW26902   3.947   6.575   5.842 -0.6592  0.3470 -0.2111
 7983SOL    HW126903   3.894   6.582   5.921 -0.0722 -0.6696  0.3102
 7983SOL    HW226904   3.925   6.489   5.807  1.2122 -0.4877  0.4974
 7984SOL     OW26905   7.603   2.051   1.808 -0.4981  0.0852 -0.1088
 7984SOL    HW126906   7.527   2.020   1.857 -0.6169 -0.2872 -0.5231
 7984SOL    HW226907   7.633   1.974   1.759 -1.3243  0.8030 -1.8439
 7985SOL     OW26908   6.271   0.621   3.894 -0.6064  0.1924  0.4027
 7985SOL    HW126909   6.254   0.715   3.890 -1.0942  0.1324  0.8564
 7985SOL    HW226910   6.345   0.607   3.835  0.4538  1.0884  1.4717
 7986SOL     OW26911   1.844   2.318   4.338  0.4462 -0.4410 -0.3063
 7986SOL    HW126912   1.922   2.374   4.347 -1.1422  1.7794  0.6535
 7986SOL    HW226913   1.773   2.379   4.322 -1.1356 -2.4184 -1.2233
 7987SOL     OW26914   1.332   2.100   3.827  0.1759 -0.7370 -0.3751
 7987SOL    HW126915   1.380   2.182   3.840 -1.2598  0.1463 -0.3025
 7987SOL    HW226916   1.399   2.035   3.807  1.5678 -0.0158  1.6110
 7988SOL     OW26917   4.453   0.836   1.766 -0.2312 -0.7622  0.4493
 7988SOL    HW126918   4.414   0.798   1.687  1.3765 -0.5337 -0.4936
 7988SOL    HW226919   4.531   0.783   1.781  1.4884  1.4521 -0.2843
 7989SOL     OW26920   7.344   6.877   3.135  0.0376  0.0677 -0.5086
 7989SOL    HW126921   7.333   6.910   3.224  2.0613  0.3061 -0.3151
 7989SOL    HW226922   7.352   6.955   3.081  0.8990 -0.0630 -0.5897
 7990SOL     OW26923   7.981   3.061   7.388  0.2402  0.2299 -0.5423
 7990SOL    HW126924   8.060   3.016   7.417 -0.8708 -0.0331  2.4026
 7990SOL    HW226925   7.915   2.992   7.379 -0.3480  0.7508 -0.3376
 7991SOL     OW26926   3.496   3.426   7.654  0.0046  0.0566 -0.0364
 7991SOL    HW126927   3.493   3.520   7.638 -1.6311  0.3867  1.8236
 7991SOL    HW226928   3.411   3.394   7.624  0.5232 -0.8577 -0.5972
 7992SOL     OW26929   7.113   7.903   7.062  0.0095 -0.3516 -0.7263
 7992SOL    HW126930   7.065   7.921   7.143  1.0443  0.0259 -0.1773
 7992SOL    HW226931   7.051   7.924   6.992 -1.4959 -2.3161 -0.0611
 7993SOL     OW26932   5.160   3.806   8.004  0.4996 -0.2352 -0.0113
 7993SOL    HW126933   5.131   3.879   8.060  0.4418 -0.5606  0.3834
 7993SOL    HW226934   5.141   3.836   7.915  0.2516  0.1363  0.1629
 7994SOL     OW26935   1.231   4.674   5.374  0.1492  0.7685  0.5936
 7994SOL    HW126936   1.324   4.654   5.384 -0.1935 -0.0138  3.0467
 7994SOL    HW226937   1.213   4.739   5.443 -0.6910  2.6884 -1.3312
 7995SOL     OW26938   1.318   2.526   1.458 -0.2778  0.4265 -0.0022
 7995SOL    HW126939   1.352   2.528   1.369 -1.3823  2.1100 -0.4406
 7995SOL    HW226940   1.362   2.598   1.503 -1.8087  1.4300 -0.0434
 7996SOL     OW26941   7.576   7.864   2.749 -0.0485 -0.1574  0.5213
 7996SOL    HW126942   7.537   7.790   2.702  0.0922  2.1981 -3.8478
 7996SOL    HW226943   7.670   7.854   2.736  0.3686 -1.2899  3.6192
 7997SOL     OW26944   3.878   7.217   1.907  0.5447 -0.3856 -0.1878
 7997SOL    HW126945   3.788   7.206   1.878  0.7360 -0.3650 -0.8084
 7997SOL    HW226946   3.894   7.311   1.901  1.1441 -0.5507 -1.7854
 7998SOL     OW26947   0.166   8.024   5.261 -0.1204  0.3921 -0.2455
 7998SOL    HW126948   0.104   8.096   5.271 -1.4678 -0.5891 -1.1691
 7998SOL    HW226949   0.130   7.971   5.190  0.4961 -1.5286  0.8048
 7999SOL     OW26950   8.092   6.019   6.287  0.3852 -0.2086 -0.3326
 7999SOL    HW126951   7.999   6.009   6.266  0.2813  2.4167 -1.4419
 7999SOL    HW226952   8.107   6.113   6.288  2.1491 -0.2545  4.1178
 8000SOL     OW26953   4.078   3.290   4.376  0.2422  0.5912  0.2877
 8000SOL    HW126954   4.036   3.205   4.360  3.1648 -0.4344 -3.6453
 8000SOL    HW226955   4.040   3.348   4.310  0.4691  1.5054  0.9411
 8001SOL     OW26956   5.898   4.035   1.578 -0.5546 -0.0945  0.2306
 8001SOL    HW126957   5.955   4.038   1.502  0.1645 -0.1240  0.7615
 8001SOL    HW226958   5.813   4.067   1.546  0.0626  1.0636 -0.2851
 8002SOL     OW26959   0.337   1.805   3.281  0.1216 -0.2748 -0.1573
 8002SOL    HW126960   0.383   1.847   3.354  0.7468 -2.1541  0.5942
 8002SOL    HW226961   0.406   1.761   3.231 -0.6852 -2.1307  0.2886
 8003SOL     OW26962   7.423   4.508   3.970 -0.7619  0.1285  0.5680
 8003SOL    HW126963   7.458   4.440   4.028 -0.9003 -0.4986 -0.0615
 8003SOL    HW226964   7.342   4.470   3.936 -0.3149  0.1742 -0.5867
 8004SOL     OW26965   1.960   3.923   0.411  0.0034 -0.1064  0.1537
 8004SOL    HW126966   1.871   3.896   0.436 -0.0911  0.0907  0.0311
 8004SOL    HW226967   1.958   3.928   0.316  0.5149 -1.3811  0.0535
 8005SOL     OW26968   6.876   8.064   3.724 -0.0599  0.2633 -0.1512
 8005SOL    HW126969   6.923   8.147   3.726  0.2029  0.1133 -0.0016
 8005SOL    HW226970   6.942   8.000   3.699 -0.1689  0.0383  0.1301
 8006SOL     OW26971   2.282   0.955   0.980 -0.1907  0.6783  0.1283
 8006SOL    HW126972   2.301   1.048   0.991 -1.1578  0.8492  0.4335
 8006SOL    HW226973   2.326   0.931   0.898  1.4259  1.0003  0.8579
 8007SOL     OW26974   4.821   6.911   4.123 -0.3025 -0.4111 -0.1529
 8007SOL    HW126975   4.882   6.904   4.196 -0.8892 -2.2367  0.2114
 8007SOL    HW226976   4.745   6.957   4.158  0.3498  0.8108 -0.2881
 8008SOL     OW26977   1.491   6.393   8.045  0.3353  0.9418 -0.7778
 8008SOL    HW126978   1.533   6.339   8.112  0.7164  1.9141 -0.2119
 8008SOL    HW226979   1.562   6.418   7.986  0.0209  0.1792 -1.5035
 8009SOL     OW26980   3.532   3.935   6.722 -0.0278 -0.0287  0.6835
 8009SOL    HW126981   3.621   3.917   6.692 -0.2374  2.1203 -1.6757
 8009SOL    HW226982   3.534   4.027   6.749 -1.8416  0.7037 -1.2916
 8010SOL     OW26983   7.267   4.146   4.840  0.4413  0.3497 -0.0187
 8010SOL    HW126984   7.202   4.094   4.794  0.2655 -0.4757  1.1174
 8010SOL    HW226985   7.286   4.219   4.781 -0.8643  0.1330 -0.7356
 8011SOL     OW26986   1.439   2.302   6.905  0.1237  0.4582  0.0610
 8011SOL    HW126987   1.488   2.237   6.854  0.9392  2.1477 -1.4549
 8011SOL    HW226988   1.495   2.320   6.981  0.5933  0.4576 -0.2806
 8012SOL     OW26989   0.450   0.716   7.465  0.1030 -0.2793  0.0493
 8012SOL    HW126990   0.448   0.666   7.384 -0.1914  0.4413 -0.4057
 8012SOL    HW226991   0.358   0.739   7.481  0.0303 -1.1883  1.0935
 8013SOL     OW26992   3.201   1.138   8.112  0.2112 -0.0718 -0.3792
 8013SOL    HW126993   3.266   1.160   8.046 -1.0314  0.9440 -1.3263
 8013SOL    HW226994   3.252   1.123   8.192  1.6882 -0.6305 -1.3767
 8014SOL     OW26995   7.578   8.008   1.714  0.4130  0.2372  0.0871
 8014SOL    HW126996   7.483   8.001   1.719  0.0186  3.7799  0.3737
 8014SOL    HW226997   7.598   8.092   1.755  3.4916  0.5021 -1.6312
 8015SOL     OW26998   0.034   5.877   3.945  0.1306  0.3238 -0.0450
 8015SOL    HW126999  -0.006   5.812   4.002  0.2547  0.3247  0.0435
 8015SOL    HW227000  -0.032   5.894   3.878 -0.4327  1.0964  0.6845
 8016SOL     OW27001   5.681   1.859   2.065 -0.0781 -0.0486  0.6271
 8016SOL    HW127002   5.723   1.904   2.138 -1.1326 -0.2632  1.3808
 8016SOL    HW227003   5.603   1.819   2.103  0.0182 -1.2127 -0.3575
 8017SOL     OW27004   1.220   8.080   4.573  0.2871 -0.5097  0.0402
 8017SOL    HW127005   1.309   8.112   4.585  0.7012 -1.8133  0.7144
 8017SOL    HW227006   1.202   8.031   4.653 -1.5610  0.8822  0.5158
 8018SOL     OW27007   3.230   1.079   3.498  0.0100  0.2347 -0.4870
 8018SOL    HW127008   3.200   0.993   3.469  0.5303  0.2776 -1.1743
 8018SOL    HW227009   3.153   1.119   3.540  0.3328 -1.3966  1.8236
 8019SOL     OW27010   3.976   3.473   2.733  0.3453  0.2996 -0.6220
 8019SOL    HW127011   3.984   3.442   2.823 -2.1367  1.0250 -0.0827
 8019SOL    HW227012   4.042   3.424   2.685  0.6784 -1.2565  1.3036
 8020SOL     OW27013   2.900   1.886   2.886 -0.3311 -0.0562  0.7699
 8020SOL    HW127014   2.860   1.817   2.833  0.8239 -1.5042  1.6746
 8020SOL    HW227015   2.862   1.967   2.854 -2.4036 -1.1761  0.2224
 8021SOL     OW27016   0.985   2.235   5.218 -0.4471 -0.2558  0.3197
 8021SOL    HW127017   1.051   2.175   5.185 -1.0348 -1.5518  1.4251
 8021SOL    HW227018   1.010   2.250   5.310  0.1789  1.8999 -0.1274
 8022SOL     OW27019   7.352   5.201   4.670  0.1575  0.0569  0.3366
 8022SOL    HW127020   7.313   5.176   4.754  0.7103 -0.4187  0.4548
 8022SOL    HW227021   7.333   5.128   4.612 -2.0668  1.2786 -0.5779
 8023SOL     OW27022   2.285   5.596   2.546  0.1045  0.0759 -0.5038
 8023SOL    HW127023   2.258   5.670   2.600  1.0001 -0.3477  0.5726
 8023SOL    HW227024   2.370   5.622   2.510 -0.4050  0.2871 -1.6253
 8024SOL     OW27025   0.514   0.494   0.303 -0.4127  0.1306  0.3257
 8024SOL    HW127026   0.584   0.482   0.368 -1.5338  0.5643  1.6794
 8024SOL    HW227027   0.462   0.566   0.338 -2.7404 -1.5296  0.4992
 8025SOL     OW27028   7.076   7.760   1.310  0.0664  0.4350  0.1693
 8025SOL    HW127029   7.057   7.678   1.355 -0.1097  0.4110  0.0506
 8025SOL    HW227030   7.152   7.740   1.255  1.0973  0.7983  1.4135
 8026SOL     OW27031   4.314   2.080   2.200 -0.0634 -0.4028  0.2278
 8026SOL    HW127032   4.399   2.039   2.185 -0.6005 -1.0213 -1.2945
 8026SOL    HW227033   4.325   2.170   2.167 -0.6587 -1.1861 -2.3277
 8027SOL     OW27034   0.283   2.414   1.754 -0.4062  0.0571  0.1048
 8027SOL    HW127035   0.244   2.474   1.691  0.0719 -0.6663 -0.9118
 8027SOL    HW227036   0.316   2.470   1.823  0.2020  0.9865 -0.9111
 8028SOL     OW27037   8.054   1.170   3.087 -0.3398  0.5916  0.2983
 8028SOL    HW127038   8.073   1.147   2.996 -0.4294  1.0342  0.1683
 8028SOL    HW227039   8.008   1.094   3.121 -2.7899  1.4844 -0.8156
 8029SOL     OW27040   1.490   0.069   2.729 -0.4926  0.9128  0.5036
 8029SOL    HW127041   1.438   0.143   2.700 -1.1145  1.0539  1.9207
 8029SOL    HW227042   1.513   0.089   2.820 -1.1661 -0.8846  1.1112
 8030SOL     OW27043   6.411   4.441   8.012  0.2511  0.2422  0.1278
 8030SOL    HW127044   6.469   4.475   7.944  1.2639 -1.6273  0.0046
 8030SOL    HW227045   6.432   4.348   8.019 -2.0299 -0.3045  0.8220
 8031SOL     OW27046   4.205   4.224   5.589 -0.4763 -0.2875 -0.0203
 8031SOL    HW127047   4.262   4.151   5.567  0.1089  0.1122  0.1639
 8031SOL    HW227048   4.138   4.186   5.646  0.2536 -0.5355  0.6915
 8032SOL     OW27049   7.330   1.714   0.989  0.0840 -0.0620 -0.2985
 8032SOL    HW127050   7.396   1.729   0.921  0.1498 -0.5803 -0.3546
 8032SOL    HW227051   7.369   1.648   1.046 -0.9701 -1.5111 -1.1791
 8033SOL     OW27052   4.634   6.662   5.777 -0.3423 -0.1262  0.2782
 8033SOL    HW127053   4.716   6.614   5.765  0.1021  0.7526 -0.3113
 8033SOL    HW227054   4.592   6.620   5.851  0.5912 -0.6689  0.5128
 8034SOL     OW27055   7.562   5.116   4.940  0.1655 -0.2192  0.5061
 8034SOL    HW127056   7.488   5.057   4.930  0.6247 -0.7511  0.1554
 8034SOL    HW227057   7.625   5.068   4.994 -0.2657  0.7368  1.9200
 8035SOL     OW27058   6.858   5.004   6.180 -0.2587  0.1108 -0.4993
 8035SOL    HW127059   6.869   4.922   6.132  1.4093  0.1741 -0.3066
 8035SOL    HW227060   6.776   4.994   6.229 -1.2139 -0.5363 -2.1830
 8036SOL     OW27061   6.355   3.653   1.276 -0.0546  0.0124 -0.1292
 8036SOL    HW127062   6.283   3.697   1.322  0.2691  0.3598  0.0513
 8036SOL    HW227063   6.363   3.701   1.194 -0.3371 -0.3279 -0.3630
 8037SOL     OW27064   4.275   5.550   6.178 -0.1997  0.2784 -0.2856
 8037SOL    HW127065   4.192   5.597   6.185 -1.0767 -1.3135  0.6362
 8037SOL    HW227066   4.267   5.478   6.240  0.6691 -1.7138 -2.3554
 8038SOL     OW27067   0.197   5.363   4.652 -0.3039  0.0725  0.5259
 8038SOL    HW127068   0.222   5.380   4.562  0.5827 -0.7506  0.6064
 8038SOL    HW227069   0.187   5.450   4.691  1.5168  0.4417  0.2330
 8039SOL     OW27070   3.819   0.706   6.080  0.2328 -0.4938 -0.1300
 8039SOL    HW127071   3.749   0.702   6.015  1.4881  0.5281 -1.6214
 8039SOL    HW227072   3.885   0.644   6.049  0.4461 -0.6836  0.6815
 8040SOL     OW27073   6.484   2.236   7.359  0.1845 -0.1837  0.2960
 8040SOL    HW127074   6.473   2.305   7.424  0.1931 -0.3127  0.4378
 8040SOL    HW227075   6.407   2.242   7.303 -0.5277 -0.9514  1.1593
 8041SOL     OW27076   2.423   0.289   2.492 -0.0948 -0.0250  0.3719
 8041SOL    HW127077   2.415   0.225   2.562  0.1760 -0.9095 -0.3788
 8041SOL    HW227078   2.338   0.289   2.449 -0.2568  0.5046  0.6872
 8042SOL     OW27079   4.470   0.999   4.113 -0.0908  0.3940  0.1812
 8042SOL    HW127080   4.543   0.994   4.175 -0.6039  1.0969  0.8544
 8042SOL    HW227081   4.499   0.946   4.038  1.7663  1.8570 -0.2168
 8043SOL     OW27082   5.009   4.213   0.138 -0.2704  0.0969 -0.1562
 8043SOL    HW127083   4.989   4.161   0.061  1.4614 -1.6067  0.4843
 8043SOL    HW227084   5.093   4.254   0.118  0.0309 -0.0954  0.7056
 8044SOL     OW27085   0.997   1.246   0.760  0.0979 -0.7697 -0.7111
 8044SOL    HW127086   1.000   1.154   0.734  0.7783 -0.8864 -0.2574
 8044SOL    HW227087   1.084   1.280   0.736  0.2152 -0.5123  0.0447
 8045SOL     OW27088   6.464   5.191   5.040  0.1679 -0.2791  0.4025
 8045SOL    HW127089   6.428   5.108   5.009  0.1248 -0.6457  1.3913
 8045SOL    HW227090   6.472   5.180   5.135  2.1726  0.0668  0.3175
 8046SOL     OW27091   4.496   3.868   3.683  0.1210 -0.1619  0.3087
 8046SOL    HW127092   4.437   3.923   3.632  0.9630 -1.5044 -2.3157
 8046SOL    HW227093   4.543   3.929   3.740 -1.6984  1.2699  0.3547
 8047SOL     OW27094   5.922   4.903   5.065 -0.0389  0.3345 -0.2553
 8047SOL    HW127095   5.963   4.878   4.982 -1.0420 -1.1901 -0.3251
 8047SOL    HW227096   5.844   4.952   5.039  0.4857  1.2261 -0.1698
 8048SOL     OW27097   3.358   1.028   1.889 -0.3600 -0.0685  0.2697
 8048SOL    HW127098   3.270   1.029   1.850 -0.7359  0.7172  1.0965
 8048SOL    HW227099   3.405   1.098   1.843 -0.4113  0.0250  0.3590
 8049SOL     OW27100   6.191   7.177   0.464 -0.3232  0.0580 -0.0648
 8049SOL    HW127101   6.271   7.231   0.471  0.2525 -0.9655  2.0618
 8049SOL    HW227102   6.178   7.143   0.552 -1.4687 -2.1627 -1.0354
 8050SOL     OW27103   3.952   2.119   6.821  0.1855 -0.6400 -0.4112
 8050SOL    HW127104   3.872   2.088   6.864 -0.6297  0.6632 -0.9268
 8050SOL    HW227105   4.020   2.060   6.853 -0.7079 -0.8563  1.2206
 8051SOL     OW27106   4.910   4.567   4.623  0.1666  0.0294  0.3029
 8051SOL    HW127107   4.920   4.566   4.528 -0.1459 -0.2648  0.2705
 8051SOL    HW227108   4.928   4.657   4.649  2.7805 -0.4004  0.2345
 8052SOL     OW27109   2.852   0.650   0.045  0.3989  0.5067  0.4843
 8052SOL    HW127110   2.899   0.624  -0.034 -0.2470  1.9577 -0.4398
 8052SOL    HW227111   2.900   0.610   0.117  0.7380 -1.2417 -0.6656
 8053SOL     OW27112   3.542   2.894   4.427 -0.6858 -0.4290  0.2547
 8053SOL    HW127113   3.591   2.959   4.378  1.8924 -2.5413 -0.1603
 8053SOL    HW227114   3.581   2.895   4.515  1.6406 -3.4119 -0.5766
 8054SOL     OW27115   1.936   6.031   0.936  0.1211 -0.1709 -0.3601
 8054SOL    HW127116   1.907   5.963   0.997 -0.6909  0.6938  0.2518
 8054SOL    HW227117   1.898   6.112   0.970  1.3878  0.6697 -0.8447
 8055SOL     OW27118   1.615   6.588   3.874  0.5557 -0.4928 -0.4929
 8055SOL    HW127119   1.552   6.653   3.906 -0.1050 -0.8418 -1.0686
 8055SOL    HW227120   1.571   6.546   3.801  1.0278 -1.5080 -0.2058
 8056SOL     OW27121   3.291   6.318   6.512 -0.2262 -0.6824  0.0880
 8056SOL    HW127122   3.275   6.406   6.545 -1.6205 -0.7484 -0.3614
 8056SOL    HW227123   3.303   6.265   6.591  0.8269 -0.0675  0.3527
 8057SOL     OW27124   4.314   7.807   4.945 -0.8427  0.2023  0.2062
 8057SOL    HW127125   4.341   7.731   4.996 -2.5021 -1.2777 -1.0063
 8057SOL    HW227126   4.389   7.825   4.888 -0.4807 -0.5967  0.4160
 8058SOL     OW27127   3.231   7.530   2.593 -0.1831 -0.1602 -0.1166
 8058SOL    HW127128   3.302   7.568   2.645 -1.5484  0.4779  1.3721
 8058SOL    HW227129   3.261   7.442   2.572  1.4199  0.3951 -0.3157
 8059SOL     OW27130   4.917   7.763   4.044  0.0338 -0.0593 -0.4481
 8059SOL    HW127131   4.959   7.679   4.027 -0.4183 -0.2609 -0.5812
 8059SOL    HW227132   4.894   7.760   4.137  0.3318  0.0632 -0.3679
 8060SOL     OW27133   7.328   2.455   1.485 -0.2378  0.2447  0.1880
 8060SOL    HW127134   7.294   2.443   1.396  0.6836  2.1138 -0.4667
 8060SOL    HW227135   7.294   2.380   1.534  0.0719 -1.4014 -1.9736
 8061SOL     OW27136   4.226   4.268   3.820 -0.0476 -0.1280 -0.5410
 8061SOL    HW127137   4.148   4.252   3.873  1.1260 -0.8205  1.0756
 8061SOL    HW227138   4.294   4.217   3.863  1.2504  0.2662 -2.0524
 8062SOL     OW27139   6.964   4.598   5.069  0.1950  0.0696  0.4034
 8062SOL    HW127140   7.028   4.532   5.041 -0.8487 -0.6510 -0.3597
 8062SOL    HW227141   6.915   4.556   5.139  0.4700  0.5820  0.9136
 8063SOL     OW27142   6.678   1.842   4.420  0.6730  0.4537 -0.1716
 8063SOL    HW127143   6.605   1.859   4.480  0.3944 -0.5602 -0.2125
 8063SOL    HW227144   6.751   1.817   4.478  0.0302 -1.8670 -0.2819
 8064SOL     OW27145   2.238   4.110   6.907  0.3983 -0.3459 -0.0875
 8064SOL    HW127146   2.194   4.122   6.992 -0.0097  0.9232 -0.4440
 8064SOL    HW227147   2.331   4.103   6.929  0.3211  0.1859  0.4686
 8065SOL     OW27148   1.534   2.540   1.246 -0.3865  0.6525 -0.3480
 8065SOL    HW127149   1.559   2.448   1.234 -0.1385  0.7827 -0.8229
 8065SOL    HW227150   1.617   2.586   1.258 -0.4189  1.0100 -1.4404
 8066SOL     OW27151   7.946   1.031   4.248 -0.3866 -0.0514  0.6827
 8066SOL    HW127152   8.041   1.035   4.239 -0.5352  2.0218 -0.5454
 8066SOL    HW227153   7.915   1.010   4.160 -1.0769 -1.8670  1.3019
 8067SOL     OW27154   5.767   5.182   4.368 -0.2758  0.2458  0.0532
 8067SOL    HW127155   5.707   5.136   4.310 -0.0951 -0.7843  0.6444
 8067SOL    HW227156   5.853   5.146   4.347 -0.2359 -0.3132  1.0893
 8068SOL     OW27157   7.926   2.353   3.756  0.0527 -0.3547  0.1243
 8068SOL    HW127158   7.909   2.378   3.847 -1.2598  0.1336 -0.2221
 8068SOL    HW227159   7.902   2.261   3.751 -0.7953 -0.1415  0.0737
 8069SOL     OW27160   2.822   1.207   2.489  0.1755 -0.2734 -0.2078
 8069SOL    HW127161   2.903   1.158   2.477 -0.7236 -2.0752  0.7267
 8069SOL    HW227162   2.815   1.261   2.410  1.2842 -1.5884 -1.2599
 8070SOL     OW27163   1.763   4.801   0.937  0.7583  1.1680  0.2114
 8070SOL    HW127164   1.673   4.828   0.957 -1.1939 -3.3424 -1.1948
 8070SOL    HW227165   1.799   4.773   1.020 -0.9466 -1.2421  0.2368
 8071SOL     OW27166   4.474   5.386   6.552 -0.0014  0.1679 -0.0324
 8071SOL    HW127167   4.548   5.332   6.578  0.4999  0.5826 -0.5560
 8071SOL    HW227168   4.437   5.341   6.476 -0.1240  0.0988  0.0685
 8072SOL     OW27169   5.787   1.305   5.028 -0.0284  0.0898  0.3259
 8072SOL    HW127170   5.732   1.323   5.104  1.0131  0.8365  0.9273
 8072SOL    HW227171   5.782   1.384   4.975  0.5028  0.1903  0.4176
 8073SOL     OW27172   7.579   5.779   5.444 -0.0034 -0.3373 -0.5414
 8073SOL    HW127173   7.528   5.856   5.418 -1.6915 -0.6595  1.5463
 8073SOL    HW227174   7.518   5.706   5.436  0.0895 -0.7503  1.9464
 8074SOL     OW27175   5.650   1.910   1.172 -0.3963 -0.0733  0.2412
 8074SOL    HW127176   5.688   1.969   1.106 -1.8150  0.4249 -0.1706
 8074SOL    HW227177   5.678   1.946   1.256  0.0043  0.2914 -0.0447
 8075SOL     OW27178   1.503   3.571   4.020 -0.1940 -0.1615  0.8479
 8075SOL    HW127179   1.436   3.503   4.021  0.4943 -0.8523  0.4107
 8075SOL    HW227180   1.531   3.578   4.112 -0.5356 -0.1901  0.9572
 8076SOL     OW27181   4.497   2.912   4.257 -0.4378  0.0781 -0.2526
 8076SOL    HW127182   4.490   2.889   4.165 -0.3669 -1.6957  0.1493
 8076SOL    HW227183   4.421   2.870   4.298 -1.7855  2.7632  0.1965
 8077SOL     OW27184   0.438   4.570   6.712 -0.4317  0.0164 -0.5474
 8077SOL    HW127185   0.423   4.598   6.802  0.6478 -1.1748  0.0434
 8077SOL    HW227186   0.373   4.501   6.696 -0.1119 -0.3253 -0.3925
 8078SOL     OW27187   3.128   1.185   5.057 -0.2775 -0.3593  0.1602
 8078SOL    HW127188   3.158   1.131   4.984 -1.0524  2.3196 -2.3020
 8078SOL    HW227189   3.066   1.129   5.104  0.5003 -2.2776 -0.9746
 8079SOL     OW27190   1.016   2.302   5.520  0.0624 -0.0411  0.2775
 8079SOL    HW127191   0.934   2.344   5.548 -0.2765 -0.2274 -0.4210
 8079SOL    HW227192   1.031   2.234   5.586 -0.4440 -0.1300  0.3077
 8080SOL     OW27193   5.517   5.163   6.270 -0.6312 -0.0257 -0.1893
 8080SOL    HW127194   5.546   5.139   6.358 -0.1532  3.9213  0.9295
 8080SOL    HW227195   5.428   5.195   6.283 -0.0229  2.0656 -0.7344
 8081SOL     OW27196   0.726   0.525   7.564  0.4446  0.5542 -0.2026
 8081SOL    HW127197   0.703   0.476   7.484 -0.2878 -0.7065  0.7302
 8081SOL    HW227198   0.701   0.466   7.635 -1.8094  2.8172  1.0572
 8082SOL     OW27199   1.212   0.326   7.296  0.3091  0.0511 -0.4242
 8082SOL    HW127200   1.120   0.301   7.290  0.6975 -1.4159 -0.5689
 8082SOL    HW227201   1.217   0.380   7.375 -0.4081 -1.0574  0.4013
 8083SOL     OW27202   2.492   1.671   6.678  0.2772 -0.4555  0.1440
 8083SOL    HW127203   2.561   1.620   6.719 -0.8138 -2.5971 -0.5539
 8083SOL    HW227204   2.448   1.714   6.752  0.4714 -1.4985  0.8927
 8084SOL     OW27205   6.274   2.256   5.721 -0.4378  0.6549 -0.6643
 8084SOL    HW127206   6.232   2.179   5.758  0.0768  0.7722  0.1918
 8084SOL    HW227207   6.232   2.330   5.767  1.1825  0.7470  0.7584
 8085SOL     OW27208   6.177   3.812   5.591 -0.3292 -0.7803  0.0313
 8085SOL    HW127209   6.243   3.780   5.530  1.5502  2.3061  0.2617
 8085SOL    HW227210   6.208   3.784   5.677 -0.9254 -1.8023 -0.0662
 8086SOL     OW27211   7.054   2.472   4.527 -0.1205  0.3115 -0.2393
 8086SOL    HW127212   7.056   2.568   4.525  0.8702  0.3171 -2.2564
 8086SOL    HW227213   7.032   2.447   4.437  0.1862 -1.3513  0.1208
 8087SOL     OW27214   5.180   6.615   3.536 -0.1246 -0.4518 -0.5249
 8087SOL    HW127215   5.191   6.560   3.614 -1.1412  1.4476  1.0743
 8087SOL    HW227216   5.096   6.589   3.499 -0.1537 -0.6332 -0.3304
 8088SOL     OW27217   1.357   2.971   5.834  0.0727 -0.4211 -0.1287
 8088SOL    HW127218   1.324   2.901   5.889  0.3545  0.2957  0.9804
 8088SOL    HW227219   1.330   2.947   5.745 -2.1534 -0.5733  0.5444
 8089SOL     OW27220   0.497   3.001   3.238  0.3726  0.1661 -0.7006
 8089SOL    HW127221   0.515   2.907   3.232  1.4477  0.3173 -0.1388
 8089SOL    HW227222   0.577   3.038   3.277 -0.7537  1.0595  0.8535
 8090SOL     OW27223   7.767   5.583   5.211  0.1220 -0.2122  0.5725
 8090SOL    HW127224   7.731   5.495   5.205  2.1443 -1.0776  0.4676
 8090SOL    HW227225   7.809   5.587   5.297 -0.9249  1.0843  1.0713
 8091SOL     OW27226   4.317   0.467   6.871  0.0237  0.3083 -0.1970
 8091SOL    HW127227   4.233   0.485   6.912 -0.4546  1.3154 -1.5429
 8091SOL    HW227228   4.371   0.543   6.891  0.4067 -0.0371  0.1055
 8092SOL     OW27229   1.715   4.538   0.814  0.3018 -0.8870  0.0235
 8092SOL    HW127230   1.694   4.606   0.878  0.1016 -1.6437  0.7814
 8092SOL    HW227231   1.679   4.570   0.732  2.7665  1.3344 -0.3287
 8093SOL     OW27232   7.568   6.556   4.611 -0.0648 -0.3209  0.7402
 8093SOL    HW127233   7.546   6.644   4.641 -1.9167 -0.2788 -0.5655
 8093SOL    HW227234   7.663   6.557   4.602 -0.1158  1.8480 -0.1072
 8094SOL     OW27235   2.918   4.683   6.529 -0.3927  0.5723 -0.1514
 8094SOL    HW127236   2.857   4.627   6.578 -0.5421  0.0122 -0.9662
 8094SOL    HW227237   2.983   4.710   6.595 -0.4985 -0.2919  0.3306
 8095SOL     OW27238   5.515   1.307   8.059 -0.7859  0.2055  0.6158
 8095SOL    HW127239   5.431   1.345   8.034 -1.1212  0.0311  1.4130
 8095SOL    HW227240   5.549   1.267   7.979 -1.1307  0.8847  0.1228
 8096SOL     OW27241   2.820   7.606   6.798 -0.2019 -0.3049 -0.2262
 8096SOL    HW127242   2.790   7.600   6.707  0.5979 -1.6024 -0.4247
 8096SOL    HW227243   2.902   7.557   6.800 -0.0989 -0.1199  1.1580
 8097SOL     OW27244   4.835   5.823   4.613  0.1242  0.6543  0.3708
 8097SOL    HW127245   4.901   5.882   4.649 -0.2138  1.6813 -0.6308
 8097SOL    HW227246   4.757   5.838   4.666  0.8581 -1.1808  2.1184
 8098SOL     OW27247   7.739   1.172   4.356 -0.1825  0.0677 -0.5195
 8098SOL    HW127248   7.682   1.111   4.403  1.9014 -1.9772 -0.4807
 8098SOL    HW227249   7.798   1.116   4.306  1.8735  2.0410 -0.4629
 8099SOL     OW27250   0.357   2.214   4.123 -0.2529  0.2476 -0.0163
 8099SOL    HW127251   0.340   2.177   4.209  2.7474 -0.4760  0.3806
 8099SOL    HW227252   0.289   2.177   4.067 -1.5775 -0.1711  1.7752
 8100SOL     OW27253   4.136   1.127   3.955 -0.0375 -0.0478  0.5130
 8100SOL    HW127254   4.061   1.186   3.950  0.1890  0.2393  0.4802
 8100SOL    HW227255   4.134   1.094   4.045  0.0273  0.2618  0.6270
 8101SOL     OW27256   3.507   6.036   2.368  0.7279 -0.5153  0.4479
 8101SOL    HW127257   3.573   6.072   2.308  0.9969  1.7933  2.0217
 8101SOL    HW227258   3.508   6.094   2.443 -2.2892 -1.1017  1.0726
 8102SOL     OW27259   1.033   5.540   4.938  0.1648 -0.2881  0.2805
 8102SOL    HW127260   1.065   5.568   4.852 -0.5593 -1.4151 -0.3720
 8102SOL    HW227261   1.113   5.530   4.991  0.6599 -0.1731 -0.4308
 8103SOL     OW27262   1.048   4.866   1.212  0.0562  0.3385  0.0046
 8103SOL    HW127263   1.098   4.800   1.259 -0.5499  1.3134  2.1251
 8103SOL    HW227264   1.108   4.940   1.200  1.0407 -0.7920 -3.2028
 8104SOL     OW27265   6.378   1.983   6.816  0.6761 -0.2406  0.1009
 8104SOL    HW127266   6.323   2.015   6.887  1.0672 -1.8889  1.2086
 8104SOL    HW227267   6.317   1.942   6.754  0.5413 -1.2098  0.8504
 8105SOL     OW27268   2.815   2.498   3.613  0.1856 -0.1566  0.7476
 8105SOL    HW127269   2.744   2.527   3.669 -1.1928 -1.4754 -0.2512
 8105SOL    HW227270   2.802   2.545   3.531 -0.0633 -1.0471  0.2677
 8106SOL     OW27271   4.548   2.134   7.748  0.0709 -0.2258 -0.6676
 8106SOL    HW127272   4.624   2.080   7.773  0.3635  0.4967  0.0726
 8106SOL    HW227273   4.586   2.211   7.705 -0.3643 -0.7891 -2.1118
 8107SOL     OW27274   6.757   0.198   7.492 -0.3240 -0.1027 -0.1493
 8107SOL    HW127275   6.725   0.208   7.403 -1.0508  3.0682  0.3767
 8107SOL    HW227276   6.815   0.122   7.488 -1.1020 -0.6399 -3.0695
 8108SOL     OW27277   3.457   2.001   0.957 -0.1603  0.4977 -0.1391
 8108SOL    HW127278   3.502   2.066   1.011  2.0633 -0.9993 -0.0583
 8108SOL    HW227279   3.429   1.933   1.019  0.1491 -0.0135 -0.5513
 8109SOL     OW27280   4.861   0.727   5.201 -0.0172  0.0566 -0.9571
 8109SOL    HW127281   4.780   0.707   5.153 -0.3239 -1.9268  0.2695
 8109SOL    HW227282   4.831   0.760   5.286  0.4361 -1.2213 -0.2865
 8110SOL     OW27283   6.266   1.966   6.185  0.4587  0.0514 -0.2441
 8110SOL    HW127284   6.220   1.892   6.146  0.9430 -0.6829  0.5383
 8110SOL    HW227285   6.346   1.928   6.222  0.4834  0.8834  0.5941
 8111SOL     OW27286   0.367   2.223   5.986  0.0541 -0.3465  0.1463
 8111SOL    HW127287   0.288   2.190   5.943 -0.5673 -0.0042  1.0084
 8111SOL    HW227288   0.381   2.164   6.060 -1.0981  1.2725  1.7326
 8112SOL     OW27289   7.806   8.060   0.852 -0.0598 -0.1876 -0.0421
 8112SOL    HW127290   7.864   8.130   0.822 -0.3962  0.7881  1.4558
 8112SOL    HW227291   7.729   8.066   0.796  0.0768  0.4013 -0.1681
 8113SOL     OW27292   7.877   1.898   2.073 -0.4569  0.4264 -0.1424
 8113SOL    HW127293   7.885   1.878   2.166  0.9622  0.3559 -0.2537
 8113SOL    HW227294   7.861   1.992   2.070 -0.6652  0.4026  0.1773
 8114SOL     OW27295   7.717   7.959   4.072  0.5708 -0.6557 -0.3746
 8114SOL    HW127296   7.625   7.986   4.075  0.6186 -0.5445  2.3528
 8114SOL    HW227297   7.715   7.873   4.031 -0.8504 -0.9505  0.2556
 8115SOL     OW27298   0.863   5.640   5.688 -0.5264 -0.4002 -0.1173
 8115SOL    HW127299   0.933   5.660   5.751 -0.8599  1.5893 -0.3326
 8115SOL    HW227300   0.784   5.635   5.741 -0.9672  2.2348 -0.4075
 8116SOL     OW27301   3.902   1.940   7.608 -0.4361  0.4989  0.2324
 8116SOL    HW127302   3.920   1.988   7.689 -1.4038 -0.3538  0.9870
 8116SOL    HW227303   3.877   1.852   7.638  0.1614 -0.1227 -1.0496
 8117SOL     OW27304   4.469   3.020   7.161  0.3040  0.3584  0.1101
 8117SOL    HW127305   4.441   3.005   7.071 -1.5072  1.3165  0.4596
 8117SOL    HW227306   4.513   3.105   7.159 -1.4406  1.3106  0.4127
 8118SOL     OW27307   6.868   7.553   1.663 -0.0843 -0.7590  0.5992
 8118SOL    HW127308   6.805   7.625   1.662  0.2399 -0.4808 -0.4533
 8118SOL    HW227309   6.917   7.566   1.744  0.2730  0.4777  0.2122
 8119SOL     OW27310   7.493   3.595   3.523 -0.1181  0.0879 -0.9364
 8119SOL    HW127311   7.510   3.665   3.461  0.4703  0.3161 -0.5233
 8119SOL    HW227312   7.418   3.625   3.574  1.5142  1.4753  0.7743
 8120SOL     OW27313   8.130   8.076   1.425 -0.3604 -0.3863 -0.0652
 8120SOL    HW127314   8.183   7.997   1.418  2.1664  1.3471 -1.8764
 8120SOL    HW227315   8.162   8.120   1.504 -2.6284 -1.6270  1.6805
 8121SOL     OW27316   4.956   6.031   7.464 -0.5748 -0.3385 -0.0003
 8121SOL    HW127317   5.051   6.017   7.474 -0.7832 -0.4898  2.0884
 8121SOL    HW227318   4.949   6.091   7.390  1.1778 -0.0432  0.0279
 8122SOL     OW27319   6.343   1.791   8.105  0.0333 -0.6008 -0.0261
 8122SOL    HW127320   6.267   1.750   8.146 -0.1153  0.0822  0.4074
 8122SOL    HW227321   6.359   1.870   8.158  0.0606  0.1092 -1.0642
 8123SOL     OW27322   7.181   0.840   0.761 -0.1184  0.2509 -0.0940
 8123SOL    HW127323   7.120   0.813   0.693 -0.4840 -0.8746  0.6465
 8123SOL    HW227324   7.240   0.765   0.771  1.9923  1.6613 -1.4270
 8124SOL     OW27325   4.964   5.188   2.798 -0.1355  0.1349  0.4095
 8124SOL    HW127326   4.890   5.142   2.837  0.6934 -0.6131  1.1245
 8124SOL    HW227327   5.038   5.171   2.857  0.8403  0.0693 -0.7790
 8125SOL     OW27328   2.214   0.900   6.066 -0.2733  0.2812  0.5349
 8125SOL    HW127329   2.301   0.924   6.034 -0.2493 -0.4680  0.0271
 8125SOL    HW227330   2.229   0.824   6.122 -0.7838 -0.9703 -0.9635
 8126SOL     OW27331   5.413   2.521   6.616  0.4175 -0.3196  0.6950
 8126SOL    HW127332   5.442   2.611   6.625 -0.0359  0.0951 -1.4354
 8126SOL    HW227333   5.489   2.469   6.643  0.9688  0.7037  1.1643
 8127SOL     OW27334   7.850   3.336   7.967  0.0630 -0.1592 -0.2760
 8127SOL    HW127335   7.886   3.255   7.931  1.4653 -0.1807  1.0904
 8127SOL    HW227336   7.893   3.346   8.051 -1.4520  1.0699  0.4020
 8128SOL     OW27337   5.390   5.885   4.076 -0.1726 -0.4685  0.1590
 8128SOL    HW127338   5.422   5.824   4.142  0.8220 -0.8310 -0.6405
 8128SOL    HW227339   5.356   5.959   4.126  0.0873 -0.9692  1.0842
 8129SOL     OW27340   7.126   0.219   4.829  0.2531 -0.0919 -0.2233
 8129SOL    HW127341   7.159   0.231   4.740 -0.3531  1.2190 -0.2872
 8129SOL    HW227342   7.162   0.292   4.879 -0.5799  0.0028  0.2665
 8130SOL     OW27343   6.260   6.232   4.508  0.0233 -0.3168  0.0745
 8130SOL    HW127344   6.229   6.142   4.502  0.5382 -0.4145 -1.7664
 8130SOL    HW227345   6.352   6.225   4.535  0.1510 -0.3715 -0.3662
 8131SOL     OW27346   7.646   1.091   3.028 -0.4360 -0.0635  0.0801
 8131SOL    HW127347   7.626   1.029   2.958  0.2119  0.3861 -0.5236
 8131SOL    HW227348   7.711   1.047   3.082 -1.9675 -0.9939  1.2778
 8132SOL     OW27349   0.504   0.243   1.902 -0.6647  0.1522 -0.7698
 8132SOL    HW127350   0.572   0.292   1.855 -0.8264  0.0306 -1.1379
 8132SOL    HW227351   0.544   0.221   1.986 -0.4234  0.5082 -0.7878
 8133SOL     OW27352   0.077   3.898   7.405 -0.0653 -0.0531  0.1095
 8133SOL    HW127353   0.053   3.924   7.494 -2.0806 -0.3351 -0.3013
 8133SOL    HW227354   0.132   3.821   7.416 -1.3225 -0.8404  1.1015
 8134SOL     OW27355   2.529   4.474   0.457 -0.3406 -0.1327  0.3402
 8134SOL    HW127356   2.491   4.405   0.512 -1.8723 -0.3214 -0.8757
 8134SOL    HW227357   2.565   4.427   0.381  2.5069  0.0334  1.4547
 8135SOL     OW27358   4.432   4.471   0.918  0.2391  0.3340  0.4530
 8135SOL    HW127359   4.500   4.503   0.979  0.2406 -2.1665  1.9140
 8135SOL    HW227360   4.481   4.423   0.851  0.0128 -1.0347  1.2254
 8136SOL     OW27361   5.654   0.117   6.137  0.4079 -0.3012  0.3110
 8136SOL    HW127362   5.636   0.089   6.227  0.9051  2.7783  1.4647
 8136SOL    HW227363   5.749   0.127   6.134  0.2763  0.8603 -0.1480
 8137SOL     OW27364   5.075   5.428   4.447  0.2486 -0.0712 -0.1940
 8137SOL    HW127365   5.076   5.332   4.449  3.2233 -0.2209 -1.6805
 8137SOL    HW227366   5.078   5.450   4.353 -0.5846  1.4866  0.1105
 8138SOL     OW27367   7.303   3.234   3.525 -1.1417  0.1252 -0.2637
 8138SOL    HW127368   7.262   3.172   3.464 -2.5671 -0.2167  0.9690
 8138SOL    HW227369   7.241   3.239   3.598  0.6698  0.2284  1.3424
 8139SOL     OW27370   1.591   4.248   4.228 -0.2795 -0.2958 -0.4555
 8139SOL    HW127371   1.550   4.227   4.144 -0.4338  0.4229 -0.5672
 8139SOL    HW227372   1.634   4.332   4.213  0.1342 -0.4192  0.0348
 8140SOL     OW27373   6.592   8.063   0.440 -0.0770  0.4217  0.3182
 8140SOL    HW127374   6.673   8.101   0.407  1.1333 -0.9296  1.6039
 8140SOL    HW227375   6.525   8.092   0.378  1.6314  0.2125 -1.7299
 8141SOL     OW27376   4.878   0.654   7.064 -0.1650 -0.3163 -0.0083
 8141SOL    HW127377   4.951   0.714   7.055 -0.0354 -0.6458 -1.3489
 8141SOL    HW227378   4.801   0.710   7.073  0.2209  0.0274  1.3222
 8142SOL     OW27379   1.671   6.913   1.125 -0.1532 -0.0157  0.2520
 8142SOL    HW127380   1.765   6.900   1.114 -0.1704  0.8239 -1.1210
 8142SOL    HW227381   1.631   6.855   1.060 -0.5642  0.1220  0.3759
 8143SOL     OW27382   1.625   4.306   3.564 -0.1318  0.2233 -0.5329
 8143SOL    HW127383   1.651   4.334   3.652 -0.0794  2.8854 -1.3065
 8143SOL    HW227384   1.708   4.300   3.516 -0.3438  3.2702 -1.5158
 8144SOL     OW27385   5.690   2.152   2.610  0.2834  0.1015  0.5996
 8144SOL    HW127386   5.679   2.245   2.593 -0.1197  0.3960  2.2674
 8144SOL    HW227387   5.784   2.137   2.602  0.2270  0.3579 -0.8952
 8145SOL     OW27388   0.199   8.126   5.974  0.1845  0.1317  0.4280
 8145SOL    HW127389   0.232   8.037   5.970 -0.3964 -0.0817 -3.0213
 8145SOL    HW227390   0.108   8.117   6.005  0.1887 -0.4480  0.2821
 8146SOL     OW27391   3.774   2.350   7.898  0.0374  0.3866 -0.3088
 8146SOL    HW127392   3.800   2.313   7.983 -0.3294 -1.6875 -1.0353
 8146SOL    HW227393   3.683   2.377   7.911  0.3941  1.3442  0.3121
 8147SOL     OW27394   2.647   4.865   3.099 -0.1593 -0.4715  0.4104
 8147SOL    HW127395   2.735   4.859   3.136  0.4726 -1.3660 -1.1285
 8147SOL    HW227396   2.623   4.774   3.080 -0.6552 -0.1015 -0.8384
 8148SOL     OW27397   1.209   5.568   7.403  0.1537 -0.0812 -0.1504
 8148SOL    HW127398   1.232   5.475   7.399  1.3257  0.0717  1.9430
 8148SOL    HW227399   1.196   5.586   7.496 -0.3673  1.7943 -0.5438
 8149SOL     OW27400   5.098   5.704   6.975  0.1642 -0.6039 -0.4078
 8149SOL    HW127401   5.106   5.655   6.893  0.1616 -3.0794  0.9661
 8149SOL    HW227402   5.188   5.729   6.997  0.2035 -0.2158 -1.0092
 8150SOL     OW27403   7.518   3.161   6.658 -0.0643 -0.1805 -0.3666
 8150SOL    HW127404   7.590   3.103   6.686  1.2493  1.2419 -0.6772
 8150SOL    HW227405   7.477   3.114   6.586  0.2593 -1.2239  0.0971
 8151SOL     OW27406   6.940   5.436   7.016 -0.0465 -0.1950 -0.3442
 8151SOL    HW127407   6.999   5.509   7.037 -1.4545  0.7318  0.5408
 8151SOL    HW227408   6.883   5.470   6.947 -0.6913 -0.4799  0.0447
 8152SOL     OW27409   5.019   0.620   3.686 -0.6633 -0.0050  0.2119
 8152SOL    HW127410   4.935   0.576   3.671 -0.5041 -0.1781 -0.2071
 8152SOL    HW227411   5.060   0.623   3.599 -0.0035 -0.4109  0.4957
 8153SOL     OW27412   4.280   6.848   2.294  0.5168 -0.6346  0.0303
 8153SOL    HW127413   4.201   6.890   2.261  1.7139  1.0588 -0.8178
 8153SOL    HW227414   4.311   6.794   2.221  0.1972 -1.2434  0.3380
 8154SOL     OW27415   7.079   5.600   7.385  0.0648 -0.1784  0.4434
 8154SOL    HW127416   7.114   5.643   7.464  0.6710  0.8865 -0.3667
 8154SOL    HW227417   6.989   5.631   7.379  0.2502  0.3563  0.3162
 8155SOL     OW27418   3.551   1.598   2.105  0.1570 -0.6147 -0.1644
 8155SOL    HW127419   3.641   1.584   2.075 -0.1486 -0.3699 -1.2239
 8155SOL    HW227420   3.506   1.637   2.030 -0.4847  0.5989  0.8089
 8156SOL     OW27421   1.911   0.557   3.076  0.3261 -0.4773 -0.6552
 8156SOL    HW127422   1.867   0.478   3.043  0.5914 -0.8235 -0.2012
 8156SOL    HW227423   1.913   0.544   3.171 -2.1698  1.3842 -0.2467
 8157SOL     OW27424   5.485   0.868   4.442  0.4956 -0.6929  0.1836
 8157SOL    HW127425   5.405   0.861   4.391 -0.6153  2.1024  1.3258
 8157SOL    HW227426   5.460   0.840   4.530  0.8666 -0.2268  0.4446
 8158SOL     OW27427   4.986   7.591   3.280 -0.1570  0.4551  0.4689
 8158SOL    HW127428   5.066   7.639   3.258 -0.1455  1.2016  1.9792
 8158SOL    HW227429   4.918   7.658   3.282 -0.3974  0.1968  1.2914
 8159SOL     OW27430   0.010   2.062   3.559 -0.3538  0.4617  0.5897
 8159SOL    HW127431   0.071   2.007   3.607 -0.2110  1.3992  1.5123
 8159SOL    HW227432  -0.067   2.068   3.616 -0.3698  1.1931  0.5084
 8160SOL     OW27433   6.698   0.428   1.539 -0.4214 -0.2036  0.6145
 8160SOL    HW127434   6.661   0.348   1.576 -0.7699  0.4387  1.7185
 8160SOL    HW227435   6.790   0.408   1.523 -0.7919 -1.2232 -0.3691
 8161SOL     OW27436   4.927   7.020   7.335  0.0133 -0.0045 -0.2854
 8161SOL    HW127437   5.016   6.992   7.359 -0.1910 -0.0552  0.4174
 8161SOL    HW227438   4.940   7.105   7.292  0.2998  0.6305  0.9950
 8162SOL     OW27439   3.595   0.026   7.759 -0.1265 -0.3194 -0.6493
 8162SOL    HW127440   3.630  -0.025   7.686  0.6038  0.2842 -0.7392
 8162SOL    HW227441   3.584  -0.036   7.830  0.8604 -0.5822 -0.7193
 8163SOL     OW27442   0.115   2.281   2.495  0.4585  0.2350 -0.1727
 8163SOL    HW127443   0.060   2.263   2.419  0.4388 -0.3276 -0.0296
 8163SOL    HW227444   0.072   2.354   2.539  0.5198  0.6196 -0.7479
 8164SOL     OW27445   4.226   1.298   0.575 -0.0705  0.9378  0.3076
 8164SOL    HW127446   4.181   1.322   0.494  0.5531  3.6111  0.6553
 8164SOL    HW227447   4.173   1.336   0.645  0.3520  0.2288  1.0361
 8165SOL     OW27448   5.906   3.991   0.689  0.5622  0.6985 -0.1552
 8165SOL    HW127449   5.831   3.956   0.640 -0.6033  0.6608  1.5561
 8165SOL    HW227450   5.919   4.078   0.653 -0.4210  0.7688 -0.3858
 8166SOL     OW27451   5.821   1.627   0.776  0.5593 -0.3180  0.4619
 8166SOL    HW127452   5.881   1.589   0.712  0.3794 -0.8856  0.6233
 8166SOL    HW227453   5.745   1.654   0.725  1.3929  1.4361  0.0841
 8167SOL     OW27454   2.231   5.817   2.132 -0.1931 -0.2015  0.0399
 8167SOL    HW127455   2.176   5.845   2.059 -1.0211 -0.8192  0.4071
 8167SOL    HW227456   2.307   5.875   2.129 -0.3878  0.0138 -1.0858
 8168SOL     OW27457   0.699   0.003   3.113  0.1565  0.7244  0.5124
 8168SOL    HW127458   0.658   0.078   3.155 -0.7320  0.2364  0.5509
 8168SOL    HW227459   0.694   0.023   3.019  0.4165  0.9565  0.5472
 8169SOL     OW27460   7.100   2.365   6.634 -0.0723 -0.0879 -0.6486
 8169SOL    HW127461   7.195   2.378   6.640  0.2586 -2.6860  2.5914
 8169SOL    HW227462   7.087   2.317   6.553  1.6423 -1.0202 -0.4204
 8170SOL     OW27463   1.823   8.002   0.010 -0.2305 -0.8136 -0.7295
 8170SOL    HW127464   1.819   7.942  -0.064  3.4256 -0.4761 -1.4149
 8170SOL    HW227465   1.901   7.974   0.059 -0.1880  1.4661  0.6630
 8171SOL     OW27466   0.119   7.614   4.619 -0.4210 -0.3136  0.0939
 8171SOL    HW127467   0.179   7.654   4.556 -0.4353 -1.1966 -0.5077
 8171SOL    HW227468   0.147   7.522   4.624 -0.6250 -0.3294  1.1431
 8172SOL     OW27469   1.503   4.696   1.614  0.1590  0.5123 -0.4818
 8172SOL    HW127470   1.416   4.720   1.646 -0.1463  0.0623 -0.9659
 8172SOL    HW227471   1.487   4.622   1.555  0.8293  0.6801 -0.8734
 8173SOL     OW27472   3.642   3.072   1.652  0.3127 -0.0735 -0.3520
 8173SOL    HW127473   3.692   3.153   1.654 -0.1797  0.2238  0.2334
 8173SOL    HW227474   3.615   3.061   1.561  1.8496 -0.4986 -0.7816
 8174SOL     OW27475   6.170   6.809   2.526  0.3736 -0.4402  0.3889
 8174SOL    HW127476   6.212   6.729   2.557 -0.4108 -1.3487 -0.7854
 8174SOL    HW227477   6.077   6.796   2.544  0.2818  0.4008  0.5743
 8175SOL     OW27478   2.718   2.347   6.672  0.3627  0.0932 -0.4983
 8175SOL    HW127479   2.705   2.405   6.597  1.4266 -0.7870 -1.4180
 8175SOL    HW227480   2.813   2.343   6.682  0.2251  0.2223  0.9335
 8176SOL     OW27481   3.282   3.299   7.558 -0.2632  0.3740 -0.0957
 8176SOL    HW127482   3.245   3.265   7.639 -2.0331  0.9658 -0.6070
 8176SOL    HW227483   3.214   3.357   7.523  1.2137  1.5889 -1.0635
 8177SOL     OW27484   6.164   7.040   6.394  0.1296 -0.1329 -0.2396
 8177SOL    HW127485   6.223   7.106   6.431 -0.1988 -0.4664  0.9330
 8177SOL    HW227486   6.218   6.993   6.330  1.6519 -1.3856  1.8478
 8178SOL     OW27487   3.460   7.598   0.768 -0.0716 -0.0090 -0.1911
 8178SOL    HW127488   3.394   7.532   0.745 -2.0902  1.8341 -0.0385
 8178SOL    HW227489   3.421   7.681   0.741  2.7862  1.0986 -1.2514
 8179SOL     OW27490   2.786   0.372   0.317  0.5912 -0.4132  0.1274
 8179SOL    HW127491   2.739   0.292   0.294  0.0984 -0.1387  0.1689
 8179SOL    HW227492   2.756   0.437   0.254  0.1374  0.0301  0.7878
 8180SOL     OW27493   5.484   5.292   6.841 -0.6928 -0.1195 -0.2542
 8180SOL    HW127494   5.571   5.293   6.880 -1.0434 -1.4342  0.6594
 8180SOL    HW227495   5.437   5.224   6.889 -2.3942  0.8966 -0.3780
 8181SOL     OW27496   8.072   4.758   1.719 -0.3055 -0.1040  0.4694
 8181SOL    HW127497   7.980   4.742   1.699 -0.3236 -0.5841  0.9015
 8181SOL    HW227498   8.085   4.719   1.806  0.1778  0.4148  0.6375
 8182SOL     OW27499   1.728   4.668   5.684 -0.0968  0.4945 -0.4415
 8182SOL    HW127500   1.738   4.760   5.709 -0.1448  0.3088  0.2525
 8182SOL    HW227501   1.818   4.640   5.665  0.0405  0.4086  0.3142
 8183SOL     OW27502   0.322   1.569   0.641 -0.2412 -0.7411 -0.2625
 8183SOL    HW127503   0.316   1.578   0.736 -2.6231 -0.9977 -0.3283
 8183SOL    HW227504   0.278   1.486   0.622 -2.8483  0.8653 -1.8032
 8184SOL     OW27505   4.748   0.091   6.665 -0.4598  0.1084 -0.2481
 8184SOL    HW127506   4.726   0.085   6.758 -1.1354 -1.4869 -0.4725
 8184SOL    HW227507   4.693   0.024   6.624 -0.1490  0.7715 -1.7979
 8185SOL     OW27508   3.032   6.340   5.796  0.1493 -0.5937  0.0880
 8185SOL    HW127509   3.009   6.414   5.853 -1.4930 -1.0688  0.0774
 8185SOL    HW227510   3.127   6.347   5.785  0.3327  0.2007  1.9054
 8186SOL     OW27511   4.934   7.394   1.686  0.8547 -0.2383  0.1635
 8186SOL    HW127512   4.977   7.322   1.731 -2.1479 -1.7510  0.8667
 8186SOL    HW227513   4.841   7.375   1.694 -0.0315  3.0280 -0.8437
 8187SOL     OW27514   0.043   0.379   4.178 -0.3953  0.2955 -0.1286
 8187SOL    HW127515   0.109   0.337   4.233 -1.3714  0.5633  1.2964
 8187SOL    HW227516   0.036   0.468   4.212 -0.0097  0.9525 -1.6383
 8188SOL     OW27517   6.572   0.302   3.287  0.0426  0.1187  0.5101
 8188SOL    HW127518   6.548   0.391   3.312 -1.1557 -0.0333  0.0034
 8188SOL    HW227519   6.494   0.250   3.306 -0.7622 -0.1109 -2.8353
 8189SOL     OW27520   1.395   4.991   6.576  0.1104 -0.3398 -0.5721
 8189SOL    HW127521   1.406   4.924   6.508  1.5186 -0.8042  0.0609
 8189SOL    HW227522   1.390   5.073   6.528  0.8136 -0.6889 -1.2767
 8190SOL     OW27523   0.542   6.497   3.174  0.1612  0.4148  0.1676
 8190SOL    HW127524   0.562   6.456   3.090 -1.2298  0.3582 -0.1646
 8190SOL    HW227525   0.580   6.585   3.168  0.8934  0.0791 -0.1425
 8191SOL     OW27526   1.980   2.820   3.375 -0.5655  0.4102  0.9753
 8191SOL    HW127527   2.012   2.906   3.404 -1.2442  0.2212  2.3660
 8191SOL    HW227528   2.047   2.759   3.405 -0.1439  0.4251  0.0938
 8192SOL     OW27529   3.831   2.894   2.083 -0.2749 -0.4208 -0.5322
 8192SOL    HW127530   3.788   2.810   2.093 -2.1476  0.5659  0.0972
 8192SOL    HW227531   3.824   2.914   1.989  2.0515 -1.8426 -1.1090
 8193SOL     OW27532   2.323   6.049   1.179 -0.0088 -0.0663  0.0594
 8193SOL    HW127533   2.383   6.013   1.245 -2.0024 -2.3110  0.8054
 8193SOL    HW227534   2.257   6.095   1.230  0.7243  1.9560 -0.7257
 8194SOL     OW27535   7.178   2.090   4.543  0.0829  0.2162 -0.2034
 8194SOL    HW127536   7.220   2.025   4.600  1.8350  1.3020 -0.1875
 8194SOL    HW227537   7.102   2.121   4.593  0.9112  0.2912  1.0379
 8195SOL     OW27538   3.614   0.139   7.441  0.5312 -0.2263 -0.0649
 8195SOL    HW127539   3.627   0.190   7.521 -2.7893  0.3202  0.2778
 8195SOL    HW227540   3.600   0.049   7.472  0.1160 -0.1758 -0.1046
 8196SOL     OW27541   7.234   0.230   0.314  0.5400 -0.3768  0.5274
 8196SOL    HW127542   7.181   0.310   0.313  1.2140  0.0854  0.9518
 8196SOL    HW227543   7.317   0.257   0.353  0.8425 -1.2462  0.5004
 8197SOL     OW27544   6.816   4.012   3.592 -0.2706  0.1512  0.2544
 8197SOL    HW127545   6.860   4.090   3.625 -0.1312  0.1678  0.0337
 8197SOL    HW227546   6.736   4.006   3.644 -0.3382  0.5077  0.1946
 8198SOL     OW27547   6.059   4.388   0.355  0.3976  0.1926  0.2334
 8198SOL    HW127548   6.138   4.337   0.338  0.8282  0.6321  0.8747
 8198SOL    HW227549   6.069   4.466   0.301 -0.6277 -0.7204 -1.3562
 8199SOL     OW27550   3.383   0.810   7.200 -0.4974 -0.4074 -0.3200
 8199SOL    HW127551   3.409   0.902   7.203 -1.3260 -0.1632 -0.5814
 8199SOL    HW227552   3.426   0.776   7.121  3.3972 -1.3860  1.9335
 8200SOL     OW27553   2.289   4.310   5.236  0.2236  0.0554  0.3743
 8200SOL    HW127554   2.250   4.232   5.196  0.4737 -0.2243  0.6700
 8200SOL    HW227555   2.376   4.315   5.197  0.0316  0.4769 -0.0166
 8201SOL     OW27556   7.223   5.462   3.755 -0.2308 -0.0537 -0.6551
 8201SOL    HW127557   7.155   5.448   3.821 -0.1657 -2.4349 -1.0220
 8201SOL    HW227558   7.304   5.434   3.796  0.1977  0.7466 -0.9392
 8202SOL     OW27559   5.970   5.820   2.137 -0.2945 -0.4828 -0.7956
 8202SOL    HW127560   5.999   5.737   2.099  0.7300  0.2916 -1.8108
 8202SOL    HW227561   6.051   5.871   2.146 -0.8514  0.2557  0.2119
 8203SOL     OW27562   6.904   2.939   1.199 -0.6323 -0.3855  0.0812
 8203SOL    HW127563   6.944   2.985   1.125 -1.2329 -1.9866 -1.3000
 8203SOL    HW227564   6.836   2.999   1.230  0.8112  1.0887  0.5650
 8204SOL     OW27565   7.134   2.093   6.519  0.2545  0.0969 -0.8267
 8204SOL    HW127566   7.149   2.021   6.579  0.5005  0.4517 -0.4567
 8204SOL    HW227567   7.073   2.058   6.454 -0.2043 -0.2069 -0.2358
 8205SOL     OW27568   5.575   6.847   4.095  0.0374 -0.1492  0.1907
 8205SOL    HW127569   5.636   6.779   4.123 -0.2065 -1.0316 -1.3407
 8205SOL    HW227570   5.491   6.803   4.086 -0.6103  0.8138  1.1368
 8206SOL     OW27571   2.176   3.448   7.545  0.0006 -0.1216 -0.3422
 8206SOL    HW127572   2.095   3.443   7.494 -0.9212  0.5263  1.0220
 8206SOL    HW227573   2.204   3.539   7.535  0.2971 -0.2177 -0.3939
 8207SOL     OW27574   2.730   2.552   5.571  0.5073  0.4052 -0.1283
 8207SOL    HW127575   2.702   2.607   5.644  1.2348 -0.0772  0.5339
 8207SOL    HW227576   2.725   2.463   5.605 -1.5343 -0.0594 -1.4694
 8208SOL     OW27577   1.458   6.506   7.394  0.9723  0.1499  0.0122
 8208SOL    HW127578   1.451   6.599   7.416  1.3238  0.3059 -0.5176
 8208SOL    HW227579   1.550   6.493   7.371  1.5152 -0.8842  2.4562
 8209SOL     OW27580   0.400   2.007   0.347  0.4200 -0.0269  0.5206
 8209SOL    HW127581   0.381   2.036   0.437 -0.0797 -2.1135  1.1434
 8209SOL    HW227582   0.319   2.022   0.299  0.3754  0.1953  0.6618
 8210SOL     OW27583   6.671   4.440   6.931 -0.5825 -0.4533 -0.0987
 8210SOL    HW127584   6.722   4.371   6.974 -0.0979  0.5467  0.9867
 8210SOL    HW227585   6.733   4.479   6.869 -0.6849 -0.6406 -0.3172
 8211SOL     OW27586   1.976   0.861   2.536 -0.2591  0.3333  0.7949
 8211SOL    HW127587   2.031   0.881   2.460  0.8213 -0.7543  1.2569
 8211SOL    HW227588   1.894   0.828   2.497  0.6945 -1.3069  0.0455
 8212SOL     OW27589   0.618   5.596   5.354 -0.0336  0.2643  0.4274
 8212SOL    HW127590   0.634   5.503   5.338 -0.5088  0.1560  0.5672
 8212SOL    HW227591   0.701   5.639   5.331 -0.0363 -0.1109 -0.3064
 8213SOL     OW27592   4.717   5.480   6.347  0.2978 -0.1420  0.1425
 8213SOL    HW127593   4.696   5.430   6.268  0.6025  1.2030 -0.8234
 8213SOL    HW227594   4.650   5.549   6.349  1.1968  0.7381  0.2145
 8214SOL     OW27595   5.635   3.619   6.450 -0.5969  0.2788  0.5169
 8214SOL    HW127596   5.657   3.651   6.363  1.7104  1.1399  1.3452
 8214SOL    HW227597   5.546   3.651   6.466 -1.1180 -0.0324 -1.5335
 8215SOL     OW27598   3.686   2.719   1.193  0.0057 -0.4501 -0.3628
 8215SOL    HW127599   3.714   2.749   1.279  0.9000  0.5496 -0.9730
 8215SOL    HW227600   3.715   2.628   1.189  1.0244 -0.1641 -0.0221
 8216SOL     OW27601   1.835   4.414   6.350 -0.5574 -0.5300 -0.2548
 8216SOL    HW127602   1.898   4.344   6.365  0.6776  0.3242 -1.2428
 8216SOL    HW227603   1.845   4.472   6.425 -1.2778 -1.1667  0.3504
 8217SOL     OW27604   5.107   4.759   0.641  0.1603 -0.0368  0.0376
 8217SOL    HW127605   5.069   4.824   0.581  1.0799 -0.3021 -0.8605
 8217SOL    HW227606   5.140   4.810   0.714 -0.6390  0.3353  0.1503
 8218SOL     OW27607   7.076   7.930   3.579 -0.3069 -0.1167  0.2455
 8218SOL    HW127608   7.129   7.995   3.534  0.1417  0.1358  1.1042
 8218SOL    HW227609   7.108   7.845   3.548 -0.6501  0.0583 -0.6079
 8219SOL     OW27610   5.721   7.722   4.981  0.0743 -0.0541 -0.0417
 8219SOL    HW127611   5.766   7.641   4.958 -2.2283 -1.3742 -0.2068
 8219SOL    HW227612   5.724   7.724   5.076  1.7155  0.6698 -0.0750
 8220SOL     OW27613   7.669   0.357   7.671  0.1494  0.1115  0.2073
 8220SOL    HW127614   7.590   0.311   7.700  0.0869 -0.4711 -0.8337
 8220SOL    HW227615   7.670   0.345   7.576 -0.3794  3.0786 -0.2854
 8221SOL     OW27616   3.811   2.155   1.199 -0.0801 -0.3222  0.1577
 8221SOL    HW127617   3.868   2.166   1.123 -0.5332 -0.3655 -0.1899
 8221SOL    HW227618   3.857   2.092   1.254 -0.0433 -0.7569 -0.3685
 8222SOL     OW27619   1.980   6.106   0.073 -0.4622 -0.1921  0.5198
 8222SOL    HW127620   2.020   6.023   0.098 -0.2961 -0.2876 -0.0517
 8222SOL    HW227621   1.958   6.095  -0.019  1.6042  1.1662 -0.2239
 8223SOL     OW27622   5.167   5.762   5.023  0.2552  0.6201 -0.4903
 8223SOL    HW127623   5.122   5.736   4.943  0.6561  1.3360 -0.9662
 8223SOL    HW227624   5.259   5.773   4.996  0.1332  2.3841 -0.3259
 8224SOL     OW27625   4.231   5.431   0.852  0.0811 -0.1040 -0.0276
 8224SOL    HW127626   4.180   5.512   0.846  1.7898  1.0526  0.5012
 8224SOL    HW227627   4.194   5.375   0.783 -1.4646  0.9045 -0.0730
 8225SOL     OW27628   5.312   3.510   1.118 -0.7389  0.3865 -0.0043
 8225SOL    HW127629   5.387   3.562   1.147 -0.2962 -0.7386  0.9407
 8225SOL    HW227630   5.326   3.501   1.023 -1.5155  2.9978 -0.4452
 8226SOL     OW27631   2.250   7.318   2.867 -0.0802  0.1940  0.3449
 8226SOL    HW127632   2.326   7.344   2.919  0.3461  1.0804 -0.6609
 8226SOL    HW227633   2.222   7.234   2.903  0.4145  0.6063  1.7414
 8227SOL     OW27634   4.917   2.395   3.482  0.2233 -0.1841 -0.4374
 8227SOL    HW127635   4.875   2.369   3.564 -0.0903  0.2408 -0.4571
 8227SOL    HW227636   4.845   2.401   3.419  0.1012  1.7232 -0.1805
 8228SOL     OW27637   3.284   4.637   5.941  0.1441 -0.0203  0.1372
 8228SOL    HW127638   3.250   4.643   6.030 -0.5643 -0.1682 -0.1178
 8228SOL    HW227639   3.269   4.546   5.915  1.1713 -0.2194  0.1855
 8229SOL     OW27640   2.170   1.079   3.310  0.1349  0.0489  0.3901
 8229SOL    HW127641   2.176   0.987   3.284 -0.5347 -0.0338  0.5252
 8229SOL    HW227642   2.219   1.084   3.392 -0.0566 -0.2433  0.5239
 8230SOL     OW27643   6.321   4.855   1.232 -0.5943 -0.1585 -0.2982
 8230SOL    HW127644   6.281   4.817   1.311  2.0768 -0.1214  1.1770
 8230SOL    HW227645   6.333   4.947   1.253 -0.3426 -0.0368 -0.9557
 8231SOL     OW27646   3.704   5.022   1.474  0.1945 -0.1327  0.0066
 8231SOL    HW127647   3.742   4.991   1.556  0.2839 -2.5997 -0.8846
 8231SOL    HW227648   3.778   5.055   1.424  0.4347 -0.3926  0.1899
 8232SOL     OW27649   1.771   1.982   3.037  0.4678  0.0174 -0.3096
 8232SOL    HW127650   1.705   1.975   2.968  0.5699 -0.9762 -0.3264
 8232SOL    HW227651   1.739   1.925   3.107  1.7447 -1.2674 -0.7118
 8233SOL     OW27652   4.721   6.139   1.332 -0.4115  0.3139 -0.3732
 8233SOL    HW127653   4.749   6.209   1.273  0.2748  0.1447 -0.2586
 8233SOL    HW227654   4.736   6.058   1.283 -1.9608  0.2632 -0.8151
 8234SOL     OW27655   2.787   4.202   0.800 -0.6509 -0.2254 -0.0525
 8234SOL    HW127656   2.843   4.126   0.819  0.1909  0.3950  0.0291
 8234SOL    HW227657   2.842   4.258   0.745 -1.6509 -0.1732 -1.0350
 8235SOL     OW27658   2.893   2.906   5.559  0.0769  0.1733  0.2842
 8235SOL    HW127659   2.935   2.868   5.482  1.1945  0.8443  0.5368
 8235SOL    HW227660   2.965   2.942   5.611 -0.6656 -0.1289  1.5764
 8236SOL     OW27661   6.254   6.558   1.691 -0.1227  0.0960  0.4234
 8236SOL    HW127662   6.250   6.647   1.655 -0.8569  0.3583  1.1183
 8236SOL    HW227663   6.216   6.566   1.779 -0.1003 -0.8832  0.5331
 8237SOL     OW27664   7.142   1.437   1.543  0.2701  0.0025 -0.3271
 8237SOL    HW127665   7.190   1.369   1.496 -0.3364 -0.5264 -0.1914
 8237SOL    HW227666   7.157   1.517   1.492  1.0871 -0.1976 -0.4215
 8238SOL     OW27667   3.180   4.563   4.367 -0.0573 -0.0355 -0.0817
 8238SOL    HW127668   3.122   4.556   4.442 -1.6051 -1.3109 -1.3117
 8238SOL    HW227669   3.151   4.493   4.308  1.0325  0.9577 -1.8918
 8239SOL     OW27670   5.600   3.806   6.011  0.0748 -0.7931  0.0812
 8239SOL    HW127671   5.691   3.797   6.037 -0.2740 -2.4514  0.8315
 8239SOL    HW227672   5.596   3.891   5.966  1.6229  0.0519  1.4610
 8240SOL     OW27673   7.985   7.675   4.136  0.1254 -0.1037 -0.8092
 8240SOL    HW127674   7.964   7.761   4.101  0.6032  0.9868  1.4143
 8240SOL    HW227675   7.925   7.664   4.210  0.2627 -1.5631 -0.8859
 8241SOL     OW27676   4.727   3.778   3.585  0.0223  0.7865  0.0364
 8241SOL    HW127677   4.637   3.771   3.616 -0.2292  1.0313 -0.6412
 8241SOL    HW227678   4.727   3.853   3.526  0.0442 -0.8266 -2.1387
 8242SOL     OW27679   4.281   5.159   1.640  0.1763 -0.5014  0.0654
 8242SOL    HW127680   4.208   5.100   1.620 -0.8550  0.6612  0.2658
 8242SOL    HW227681   4.341   5.106   1.693 -1.9020 -0.7040  2.3971
 8243SOL     OW27682   4.489   2.555   7.216 -0.6484  0.0741  0.1058
 8243SOL    HW127683   4.501   2.600   7.300  0.3982  0.2214 -0.1063
 8243SOL    HW227684   4.560   2.492   7.212 -1.5365 -0.9518 -0.0393
 8244SOL     OW27685   4.177   4.192   2.843  0.6311 -0.6002 -0.4700
 8244SOL    HW127686   4.197   4.131   2.771 -1.2428 -0.9938 -0.7237
 8244SOL    HW227687   4.105   4.150   2.890  0.0876  0.8682  0.0702
 8245SOL     OW27688   2.467   3.914   7.908 -0.1322  0.2796 -0.2004
 8245SOL    HW127689   2.515   3.840   7.872 -0.9139 -0.5007  0.3155
 8245SOL    HW227690   2.535   3.977   7.932  0.8069 -1.4235  1.9480
 8246SOL     OW27691   5.315   3.092   1.117  0.1817 -0.0188 -0.5916
 8246SOL    HW127692   5.288   3.139   1.196 -0.8073  0.3742 -1.1455
 8246SOL    HW227693   5.233   3.063   1.077  0.6619 -0.1339 -1.5267
 8247SOL     OW27694   0.678   1.879   6.390  0.1184 -0.4707  0.0361
 8247SOL    HW127695   0.592   1.921   6.384  0.4519 -0.0232 -2.3122
 8247SOL    HW227696   0.741   1.950   6.381  0.7289 -0.9890  0.1378
 8248SOL     OW27697   2.395   4.417   6.666 -0.1651 -0.1274  0.0285
 8248SOL    HW127698   2.311   4.382   6.697  0.3538 -0.0390  1.6052
 8248SOL    HW227699   2.436   4.343   6.621 -1.0797 -0.1652 -0.7800
 8249SOL     OW27700   2.341   0.088   7.628  0.6828  0.6856  0.2841
 8249SOL    HW127701   2.379   0.047   7.550  1.2279  1.7707 -0.0500
 8249SOL    HW227702   2.378   0.177   7.628  1.2978  0.4714  2.2060
 8250SOL     OW27703   3.999   7.375   5.625  0.6165 -0.2536  0.1672
 8250SOL    HW127704   3.908   7.344   5.625  0.1656  0.9822  1.2010
 8250SOL    HW227705   3.993   7.469   5.641  2.1372 -0.5699  3.5336
 8251SOL     OW27706   5.103   0.371   1.165 -0.4068  0.5455  0.4695
 8251SOL    HW127707   5.166   0.304   1.139 -2.2171 -0.7829 -0.7934
 8251SOL    HW227708   5.125   0.391   1.256  0.6371 -1.2533  0.6659
 8252SOL     OW27709   1.687   5.168   1.474  0.2179 -0.0275  0.3515
 8252SOL    HW127710   1.673   5.157   1.380  0.6133 -1.1583  0.4126
 8252SOL    HW227711   1.653   5.087   1.513 -0.3727  0.6242  1.2326
 8253SOL     OW27712   7.769   6.120   5.197 -0.1565  0.0226 -0.8965
 8253SOL    HW127713   7.805   6.064   5.266 -0.5123  1.7269  0.7495
 8253SOL    HW227714   7.838   6.122   5.131  1.5374  0.7439  0.7907
 8254SOL     OW27715   4.555   6.332   2.036 -0.1196 -0.4516  0.0815
 8254SOL    HW127716   4.550   6.243   2.000 -0.3054  0.1903 -1.5815
 8254SOL    HW227717   4.513   6.326   2.122  0.1291 -2.0237  0.1177
 8255SOL     OW27718   0.493   3.488   1.995 -0.4137 -0.1674  1.1008
 8255SOL    HW127719   0.519   3.540   1.918  0.2346 -0.0587  1.3808
 8255SOL    HW227720   0.528   3.537   2.069 -0.7916 -0.4178  1.4453
 8256SOL     OW27721   1.351   6.628   7.104  0.7264  0.2486  0.0595
 8256SOL    HW127722   1.445   6.646   7.094  0.6464  1.5055  1.2615
 8256SOL    HW227723   1.326   6.588   7.021  2.2382  0.2884 -0.4588
 8257SOL     OW27724   6.606   7.119   4.269  0.2159 -0.0518  0.3993
 8257SOL    HW127725   6.595   7.208   4.304 -0.8948  0.2026 -0.5437
 8257SOL    HW227726   6.571   7.124   4.180  1.8946 -0.9780 -0.3557
 8258SOL     OW27727   1.184   1.305   5.306  0.0412 -0.4414 -0.3802
 8258SOL    HW127728   1.109   1.320   5.248  0.5964  0.0448 -0.9965
 8258SOL    HW227729   1.234   1.236   5.262 -0.5942 -1.5364  0.5792
 8259SOL     OW27730   6.668   6.324   2.323 -0.6123  0.0400  0.0127
 8259SOL    HW127731   6.593   6.382   2.335 -0.6060  0.2822 -0.9888
 8259SOL    HW227732   6.638   6.260   2.259 -0.5647 -0.9859  0.9972
 8260SOL     OW27733   4.367   0.575   8.055 -0.0959  0.5016  0.2316
 8260SOL    HW127734   4.409   0.562   8.140  1.3558 -0.4884 -0.5992
 8260SOL    HW227735   4.320   0.658   8.064  1.4678  1.3004  1.4447
 8261SOL     OW27736   0.380   6.589   8.014  0.4135  0.4601  0.3983
 8261SOL    HW127737   0.378   6.558   7.924  0.7018  0.5265  0.3661
 8261SOL    HW227738   0.429   6.522   8.062 -0.3665  0.0647  0.6507
 8262SOL     OW27739   7.058   2.445   0.914 -0.3222 -0.1948 -0.1929
 8262SOL    HW127740   7.023   2.456   1.002  1.6459  1.8606  0.4549
 8262SOL    HW227741   7.044   2.352   0.893 -2.0834 -0.4117  1.6867
 8263SOL     OW27742   3.886   4.980   7.546 -0.4360 -0.1049 -0.0747
 8263SOL    HW127743   3.965   4.981   7.600 -0.5471 -0.8939  0.1233
 8263SOL    HW227744   3.917   4.997   7.457  0.0977 -1.3821 -0.1498
 8264SOL     OW27745   6.911   4.271   0.644 -0.1739 -0.1831 -0.0241
 8264SOL    HW127746   6.838   4.272   0.706 -1.5627  1.0257 -1.5971
 8264SOL    HW227747   6.971   4.338   0.676 -0.6501  0.1124  0.2578
 8265SOL     OW27748   0.768   5.118   2.133  0.4518 -0.4528  0.0391
 8265SOL    HW127749   0.753   5.087   2.223 -1.9348 -1.0921 -0.5007
 8265SOL    HW227750   0.692   5.173   2.114 -0.2669 -2.0527 -2.2760
 8266SOL     OW27751   3.052   3.287   3.222 -0.2010  0.0715 -0.5002
 8266SOL    HW127752   3.102   3.361   3.188 -0.6775  1.3183  1.3693
 8266SOL    HW227753   2.962   3.305   3.196 -0.1520 -0.5018 -1.0860
 8267SOL     OW27754   6.554   0.663   1.594 -0.3064 -0.8356  0.4675
 8267SOL    HW127755   6.616   0.599   1.560 -0.4068 -0.5706 -0.2403
 8267SOL    HW227756   6.533   0.718   1.518 -0.4154 -0.1268  1.0003
 8268SOL     OW27757   1.337   4.921   4.224  0.0319 -0.4907  0.8087
 8268SOL    HW127758   1.415   4.964   4.260 -0.5162  0.6563  0.6344
 8268SOL    HW227759   1.326   4.844   4.280  0.9038 -0.3187  1.2492
 8269SOL     OW27760   4.076   5.272   1.063 -0.5113  0.2098 -0.3793
 8269SOL    HW127761   4.007   5.331   1.092 -1.7012 -0.9522 -0.7312
 8269SOL    HW227762   4.128   5.324   1.002 -0.3605  1.4528  0.7464
 8270SOL     OW27763   3.172   0.738   1.193 -0.2166  0.1747 -0.2726
 8270SOL    HW127764   3.229   0.794   1.140  0.0484  1.0504  0.8895
 8270SOL    HW227765   3.114   0.799   1.238 -0.9341 -0.5981 -0.1264
 8271SOL     OW27766   1.988   7.953   5.886 -0.0018 -0.1503  0.1131
 8271SOL    HW127767   1.898   7.948   5.853 -0.2624  0.9468  0.6120
 8271SOL    HW227768   2.042   7.949   5.807 -0.5322  0.0889 -0.2713
 8272SOL     OW27769   7.102   1.335   5.260 -0.2658 -0.1035  0.0108
 8272SOL    HW127770   7.062   1.392   5.194 -0.8509 -0.5895 -0.0668
 8272SOL    HW227771   7.192   1.366   5.267 -0.2702  0.1321 -0.8208
 8273SOL     OW27772   2.707   2.676   5.827 -0.3057  0.5658 -1.1988
 8273SOL    HW127773   2.699   2.770   5.810  0.2439  0.8872  0.2315
 8273SOL    HW227774   2.780   2.668   5.888 -1.2337 -0.6587 -0.1888
 8274SOL     OW27775   2.221   7.159   7.542  0.1556 -0.4234  0.0135
 8274SOL    HW127776   2.158   7.128   7.607  0.5492 -0.4983  0.3584
 8274SOL    HW227777   2.269   7.081   7.516  1.7359  0.0045  1.5127
 8275SOL     OW27778   3.733   1.930   6.499  0.0244 -0.3218 -0.0784
 8275SOL    HW127779   3.768   1.841   6.503 -0.4712 -0.4958  0.6595
 8275SOL    HW227780   3.808   1.986   6.519  0.2795 -0.5869 -0.2842
 8276SOL     OW27781   0.933   3.161   0.131  0.0172  0.2194 -0.1991
 8276SOL    HW127782   0.909   3.088   0.187 -0.1007  0.9225  0.6865
 8276SOL    HW227783   0.962   3.120   0.049 -2.8003 -0.7633 -0.8385
 8277SOL     OW27784   1.671   2.902   3.834 -0.1884 -0.5502  0.7456
 8277SOL    HW127785   1.735   2.918   3.904  0.8198 -0.2631 -0.2226
 8277SOL    HW227786   1.688   2.971   3.770 -0.7500 -1.1345 -0.0470
 8278SOL     OW27787   8.003   5.991   1.101  0.6627  0.3171 -0.0933
 8278SOL    HW127788   8.037   5.926   1.163 -1.6178 -1.3196 -0.4301
 8278SOL    HW227789   7.939   6.040   1.152  0.2323  0.3076 -0.6224
 8279SOL     OW27790   1.111   3.503   1.389  0.0069  0.4504 -0.4096
 8279SOL    HW127791   1.062   3.476   1.311 -0.4410 -1.1314  0.3762
 8279SOL    HW227792   1.200   3.470   1.374 -0.5031 -1.4374  0.4822
 8280SOL     OW27793   6.161   2.924   5.592 -0.0716 -0.0366 -0.0982
 8280SOL    HW127794   6.181   3.018   5.590 -1.4969  0.3034  0.0801
 8280SOL    HW227795   6.176   2.895   5.502  2.4133 -0.1342  0.2997
 8281SOL     OW27796   3.151   0.438   3.850 -0.4757 -0.2601  0.2301
 8281SOL    HW127797   3.070   0.390   3.831 -1.0049  1.2770 -1.6696
 8281SOL    HW227798   3.140   0.468   3.941 -1.5135 -1.0335  0.3787
 8282SOL     OW27799   7.166   5.914   5.318  0.0377  0.1852 -0.1940
 8282SOL    HW127800   7.171   5.914   5.414 -0.6995  1.5815 -0.1114
 8282SOL    HW227801   7.148   5.823   5.294 -0.4645 -0.0633  1.0517
 8283SOL     OW27802   3.284   1.961   2.549  0.0809  0.0482 -0.1818
 8283SOL    HW127803   3.192   1.985   2.553 -0.0862 -0.6604  2.7003
 8283SOL    HW227804   3.284   1.865   2.556  1.0349 -0.0095 -0.7967
 8284SOL     OW27805   7.552   6.496   1.288 -0.2255 -0.1704  0.3905
 8284SOL    HW127806   7.464   6.468   1.311 -1.7697  2.0169 -2.2929
 8284SOL    HW227807   7.548   6.513   1.194  2.9808  0.3888  0.2417
 8285SOL     OW27808   7.043   5.993   6.457 -0.4666  0.5846  0.5739
 8285SOL    HW127809   7.087   5.953   6.382  0.5254  1.8954  0.4083
 8285SOL    HW227810   6.950   5.995   6.433  0.0050  2.7131 -1.5431
 8286SOL     OW27811   3.583   1.362   4.441 -0.1224 -0.2095  0.0525
 8286SOL    HW127812   3.553   1.387   4.529  1.2923  0.7035  0.2972
 8286SOL    HW227813   3.631   1.437   4.409  2.9004 -1.9535  0.1457
 8287SOL     OW27814   3.041   4.030   7.244 -0.2824  0.5147  0.2806
 8287SOL    HW127815   2.972   3.967   7.221  0.1379  0.2788 -0.3589
 8287SOL    HW227816   3.112   4.012   7.182  1.1109 -0.4808  2.0476
 8288SOL     OW27817   6.072   5.797   3.596 -0.1893 -0.0506  0.1589
 8288SOL    HW127818   6.023   5.715   3.605 -0.2700  0.0564  0.7302
 8288SOL    HW227819   6.159   5.777   3.631 -0.0359 -0.0475 -0.2202
 8289SOL     OW27820   1.721   4.679   6.739 -0.7241  0.4226  0.1319
 8289SOL    HW127821   1.636   4.635   6.746 -1.2362  1.5545  1.4138
 8289SOL    HW227822   1.741   4.706   6.828  1.0980  0.0217 -0.1206
 8290SOL     OW27823   6.977   5.142   6.905 -0.1042 -0.5731 -0.4639
 8290SOL    HW127824   7.025   5.123   6.986 -0.2486  0.1588 -0.2013
 8290SOL    HW227825   6.941   5.229   6.918 -1.9574 -1.2929 -0.4355
 8291SOL     OW27826   4.837   2.217   4.065 -0.0471  0.3178  0.0614
 8291SOL    HW127827   4.798   2.301   4.088 -0.1015 -0.1948  2.0954
 8291SOL    HW227828   4.783   2.153   4.111  0.9894 -0.6895 -0.0869
 8292SOL     OW27829   0.480   5.146   5.332 -0.0373  0.7093  0.0277
 8292SOL    HW127830   0.526   5.105   5.258  0.5678  0.4726  0.5298
 8292SOL    HW227831   0.408   5.086   5.352 -1.2079  1.5515 -1.3904
 8293SOL     OW27832   4.025   6.483   5.022 -0.7913  0.2505  0.0026
 8293SOL    HW127833   3.949   6.535   5.051 -1.8861 -0.2859 -1.7317
 8293SOL    HW227834   4.010   6.471   4.928  0.8893 -0.8444 -0.1525
 8294SOL     OW27835   4.804   0.667   7.891  0.7347  0.7830  0.0250
 8294SOL    HW127836   4.794   0.668   7.987  0.6867 -0.0236  0.0334
 8294SOL    HW227837   4.895   0.640   7.878  0.7358  0.8790 -0.1571
 8295SOL     OW27838   1.355   4.209   7.067 -0.3076 -0.8133 -0.1272
 8295SOL    HW127839   1.275   4.166   7.035  0.7548 -2.4165 -0.7300
 8295SOL    HW227840   1.409   4.219   6.990 -0.7592  2.3383 -0.1464
 8296SOL     OW27841   1.676   2.073   4.271  0.1571 -0.2533 -0.0454
 8296SOL    HW127842   1.603   2.106   4.323  0.1202 -0.2263 -0.1137
 8296SOL    HW227843   1.748   2.133   4.292  0.2765 -0.5331  0.3403
 8297SOL     OW27844   0.936   7.925   3.164  0.3235 -0.2251 -0.5859
 8297SOL    HW127845   1.024   7.961   3.175  0.2079  0.0594 -0.6033
 8297SOL    HW227846   0.880   8.001   3.147 -0.0789 -0.3081  0.2976
 8298SOL     OW27847   6.758   1.386   4.423  0.0993  0.1095 -0.4410
 8298SOL    HW127848   6.850   1.412   4.428  1.0585 -2.9566 -0.1365
 8298SOL    HW227849   6.761   1.294   4.395 -2.9514  0.3105 -1.7110
 8299SOL     OW27850   1.606   6.562   3.254 -0.2507 -0.2346 -0.5656
 8299SOL    HW127851   1.526   6.517   3.225  1.2291 -2.6617 -1.1532
 8299SOL    HW227852   1.649   6.590   3.173  0.8419 -1.4724 -0.4449
 8300SOL     OW27853   5.100   6.496   2.300  0.3396 -0.0729 -0.0075
 8300SOL    HW127854   5.081   6.421   2.357 -0.6375  0.6889  0.7157
 8300SOL    HW227855   5.147   6.458   2.225  1.9652 -1.0750  1.4329
 8301SOL     OW27856   0.788   3.341   5.641  0.0054  0.0737  0.4246
 8301SOL    HW127857   0.805   3.426   5.600  0.2969  0.6903  1.7923
 8301SOL    HW227858   0.865   3.288   5.618 -1.2323 -0.6938 -2.4899
 8302SOL     OW27859   6.487   5.655   0.190  0.0744  0.2116 -0.6068
 8302SOL    HW127860   6.563   5.685   0.241  0.7298 -0.5547 -1.0971
 8302SOL    HW227861   6.519   5.652   0.100 -0.2798 -0.9402 -0.7079
 8303SOL     OW27862   5.331   6.625   0.715  0.3400  0.4409  0.3295
 8303SOL    HW127863   5.248   6.666   0.738  0.2024  0.5498 -0.3339
 8303SOL    HW227864   5.397   6.673   0.765  0.1592  1.3232 -0.2590
 8304SOL     OW27865   5.075   2.004   5.167  0.1073 -0.2579 -0.5853
 8304SOL    HW127866   5.071   1.982   5.260 -1.1617 -0.3455 -0.6519
 8304SOL    HW227867   4.992   2.047   5.148  0.4314 -0.0601 -1.6344
 8305SOL     OW27868   0.072   6.069   0.003 -0.4338 -0.2104 -0.5035
 8305SOL    HW127869   0.122   6.049   0.082  0.0851 -0.0321 -0.7879
 8305SOL    HW227870  -0.020   6.068   0.033 -0.5645 -3.6787 -0.6225
 8306SOL     OW27871   6.709   5.246   3.628  0.2907 -0.2390  0.4386
 8306SOL    HW127872   6.619   5.267   3.604  0.3167  0.2427  0.7506
 8306SOL    HW227873   6.762   5.312   3.583  0.2813  1.2415  2.4564
 8307SOL     OW27874   3.501   0.795   1.645  0.0876 -0.0455 -0.2039
 8307SOL    HW127875   3.418   0.749   1.630 -0.4530  1.2851 -1.5229
 8307SOL    HW227876   3.501   0.815   1.738 -0.2545 -1.5462  0.1446
 8308SOL     OW27877   0.544   1.048   5.230 -0.1614 -0.0714 -0.1294
 8308SOL    HW127878   0.457   1.073   5.263  0.3738 -1.2069  2.3277
 8308SOL    HW227879   0.597   1.037   5.308  1.9554 -0.4049 -1.5452
 8309SOL     OW27880   4.605   4.929   7.165  0.3054 -0.2085  0.4444
 8309SOL    HW127881   4.661   4.869   7.214  1.4877  0.2892 -0.2696
 8309SOL    HW227882   4.615   5.013   7.210  1.3161  0.2272 -0.5645
 8310SOL     OW27883   5.244   0.684   2.506  0.0398  0.2149 -0.1196
 8310SOL    HW127884   5.336   0.658   2.513 -0.0419 -0.3833 -1.0866
 8310SOL    HW227885   5.201   0.609   2.465 -0.8529  0.5542  0.1810
 8311SOL     OW27886   7.303   4.381   6.879 -0.1283 -0.2499  0.7307
 8311SOL    HW127887   7.328   4.295   6.912 -0.7674 -0.6745  0.1594
 8311SOL    HW227888   7.342   4.443   6.940  0.8628 -0.9197  0.8043
 8312SOL     OW27889   7.355   3.549   4.723 -0.0737 -0.0493  0.3055
 8312SOL    HW127890   7.443   3.551   4.759 -0.2263  0.5251  0.6482
 8312SOL    HW227891   7.341   3.457   4.699 -0.4630 -0.7771  2.9413
 8313SOL     OW27892   3.991   7.231   4.082 -0.6269 -0.1904  0.0388
 8313SOL    HW127893   4.035   7.236   4.167 -1.3584  0.7414  0.3913
 8313SOL    HW227894   3.913   7.287   4.093  0.5124  1.9679 -1.9894
 8314SOL     OW27895   6.711   2.075   7.877  0.1331 -0.0667 -0.1040
 8314SOL    HW127896   6.799   2.041   7.896 -0.1873 -1.0665 -0.3690
 8314SOL    HW227897   6.717   2.168   7.899  1.3148 -0.0750 -0.3014
 8315SOL     OW27898   0.709   3.064   5.445  0.3279  0.3554 -0.3396
 8315SOL    HW127899   0.756   2.981   5.446  0.2485  0.3093  0.7694
 8315SOL    HW227900   0.739   3.109   5.523 -0.8535  0.6758 -0.0518
 8316SOL     OW27901   4.930   2.322   6.603  0.1595  0.0147 -0.1607
 8316SOL    HW127902   4.925   2.251   6.539  0.4184  0.0875 -0.2621
 8316SOL    HW227903   4.922   2.402   6.551 -1.0431  0.0484  0.0424
 8317SOL     OW27904   2.663   7.593   5.670 -1.0446  0.4429  0.0456
 8317SOL    HW127905   2.584   7.567   5.622 -1.2861  1.0562  0.0928
 8317SOL    HW227906   2.682   7.682   5.638 -2.3422  1.6827  2.4382
 8318SOL     OW27907   7.418   2.552   5.961  0.2154  0.3131 -0.2034
 8318SOL    HW127908   7.437   2.546   5.867  1.7585  0.4960  0.0715
 8318SOL    HW227909   7.333   2.595   5.965  0.2748  0.6047 -1.5176
 8319SOL     OW27910   4.693   5.693   2.639 -0.2890 -0.0855 -0.6565
 8319SOL    HW127911   4.650   5.611   2.612  0.5248 -0.4939 -0.7446
 8319SOL    HW227912   4.776   5.692   2.592  1.3076 -0.9329  1.9950
 8320SOL     OW27913   0.227   0.208   1.833  0.1941 -0.4543 -0.6671
 8320SOL    HW127914   0.175   0.286   1.852 -1.1009 -1.2843 -0.7008
 8320SOL    HW227915   0.316   0.233   1.855 -0.3610  0.6697  0.4186
 8321SOL     OW27916   4.588   6.838   7.577 -0.7711  0.4033 -0.3609
 8321SOL    HW127917   4.593   6.828   7.482  1.0891  0.9573 -0.3641
 8321SOL    HW227918   4.628   6.758   7.611  2.5617  1.9462 -0.1952
 8322SOL     OW27919   7.365   6.567   3.049 -0.3108  0.1215 -0.1697
 8322SOL    HW127920   7.409   6.631   3.106 -0.3569  0.6802 -0.7526
 8322SOL    HW227921   7.324   6.620   2.981  1.4031 -0.6351 -1.8963
 8323SOL     OW27922   3.280   1.105   1.389  0.1630 -0.4422 -0.6409
 8323SOL    HW127923   3.245   1.194   1.389  0.9269 -0.0518 -3.0630
 8323SOL    HW227924   3.373   1.116   1.410 -0.0785 -0.8968  0.7502
 8324SOL     OW27925   6.371   5.104   0.900 -0.3330  0.0644  0.3227
 8324SOL    HW127926   6.294   5.111   0.957 -0.2067 -1.1888  0.6765
 8324SOL    HW227927   6.346   5.039   0.834 -0.8838  2.2435 -1.7867
 8325SOL     OW27928   5.467   0.562   0.885  0.7538 -0.2406  0.2801
 8325SOL    HW127929   5.378   0.537   0.859  0.6474  1.4578 -1.2285
 8325SOL    HW227930   5.523   0.494   0.848  0.2046 -0.4168 -0.2467
 8326SOL     OW27931   2.328   8.014   5.070 -0.3313 -0.2493  0.0631
 8326SOL    HW127932   2.236   8.036   5.052 -0.9644 -2.5212  0.1929
 8326SOL    HW227933   2.332   7.919   5.062  2.2661 -0.1317 -0.9010
 8327SOL     OW27934   4.149   3.205   1.644  0.3198 -0.3047  0.3195
 8327SOL    HW127935   4.231   3.255   1.638 -0.8868  1.8302  0.4386
 8327SOL    HW227936   4.116   3.225   1.732  0.3802 -2.3897  0.8605
 8328SOL     OW27937   5.439   0.243   0.527 -0.0676 -0.2663 -0.2773
 8328SOL    HW127938   5.477   0.156   0.536  1.7031  0.1253 -2.6983
 8328SOL    HW227939   5.450   0.264   0.434 -1.4090  2.1208  0.0147
 8329SOL     OW27940   2.084   7.966   3.033 -0.1847 -0.1151  0.1387
 8329SOL    HW127941   2.062   7.915   3.110  0.4084 -1.2459 -0.4145
 8329SOL    HW227942   2.000   7.982   2.990 -0.4555  0.0539  0.7280
 8330SOL     OW27943   0.799   2.837   7.897 -0.3908  0.5216 -0.0524
 8330SOL    HW127944   0.822   2.858   7.987  0.6749 -0.9338  0.0295
 8330SOL    HW227945   0.757   2.751   7.902 -0.2948  0.4144 -0.9492
 8331SOL     OW27946   6.493   7.247   3.470 -0.1287  0.0481  0.3500
 8331SOL    HW127947   6.457   7.305   3.403  1.7885  0.4633 -0.3824
 8331SOL    HW227948   6.537   7.178   3.422 -1.4087 -1.4476  1.2250
 8332SOL     OW27949   5.958   6.914   7.921  0.0663  0.1922 -0.1652
 8332SOL    HW127950   5.974   6.838   7.977 -1.8640  0.1543  0.4112
 8332SOL    HW227951   5.875   6.950   7.953  0.9722  2.6310 -0.3309
 8333SOL     OW27952   2.405   7.210   6.606 -0.3028  0.6130 -0.6782
 8333SOL    HW127953   2.319   7.231   6.642 -0.1899  1.9737 -1.1265
 8333SOL    HW227954   2.395   7.225   6.512  0.8628  2.5154 -0.5474
 8334SOL     OW27955   5.688   3.310   0.015 -0.6820 -0.4513 -0.3606
 8334SOL    HW127956   5.607   3.266   0.042 -2.2524  1.8792 -0.9861
 8334SOL    HW227957   5.675   3.401   0.040  1.3262  0.2005 -1.4841
 8335SOL     OW27958   3.238   1.754   7.424 -0.0360  0.1012 -0.7393
 8335SOL    HW127959   3.285   1.762   7.341  0.5600 -0.1977 -0.4455
 8335SOL    HW227960   3.243   1.661   7.445  0.8700  0.3424  0.2095
 8336SOL     OW27961   7.070   7.991   1.031 -0.0108  0.7324 -0.1079
 8336SOL    HW127962   7.105   8.061   1.086  0.0218  0.5424  0.1188
 8336SOL    HW227963   6.992   7.961   1.077 -0.0222  0.6185 -0.2004
 8337SOL     OW27964   0.116   7.634   4.184  0.3297  0.0662 -0.2397
 8337SOL    HW127965   0.022   7.645   4.170  0.5032  1.3645 -0.4981
 8337SOL    HW227966   0.157   7.673   4.106  1.1551  2.8710  1.4239
 8338SOL     OW27967   0.505   7.315   5.013  0.0197 -0.1505 -0.0071
 8338SOL    HW127968   0.504   7.337   5.106 -0.8310 -1.2634  0.2707
 8338SOL    HW227969   0.467   7.227   5.009 -2.3304  0.8488 -1.6524
 8339SOL     OW27970   6.090   3.111   4.136 -0.2239 -0.0544 -0.0957
 8339SOL    HW127971   6.070   3.196   4.176  0.6304  0.5705 -0.9699
 8339SOL    HW227972   6.012   3.090   4.085  0.6321  1.6506 -2.2625
 8340SOL     OW27973   6.556   2.185   5.042  0.0718  0.8502 -0.0553
 8340SOL    HW127974   6.563   2.187   5.137 -0.9956 -1.6989  0.1666
 8340SOL    HW227975   6.505   2.263   5.020  0.3057  1.4603  1.4553
 8341SOL     OW27976   1.442   4.552   4.971 -0.2268  0.2303 -0.2925
 8341SOL    HW127977   1.451   4.491   5.044  6.6076 -0.1527 -0.7284
 8341SOL    HW227978   1.376   4.513   4.913 -1.6432 -2.5369  2.8936
 8342SOL     OW27979   2.077   0.855   5.039  0.1797 -0.5153 -0.0250
 8342SOL    HW127980   2.016   0.862   5.113  1.0355 -0.5342  0.6950
 8342SOL    HW227981   2.110   0.766   5.044 -0.7341 -0.9568 -1.2385
 8343SOL     OW27982   7.151   7.987   5.330 -0.7724 -0.5043  0.3205
 8343SOL    HW127983   7.111   8.073   5.318  1.1825  0.2834 -1.0469
 8343SOL    HW227984   7.223   8.003   5.390 -1.1626 -1.4705  1.0691
 8344SOL     OW27985   2.632   0.397   2.655  0.0022 -0.4020  0.1858
 8344SOL    HW127986   2.563   0.358   2.601 -0.4876  1.5500 -0.6786
 8344SOL    HW227987   2.707   0.406   2.596 -0.3669  1.2673 -0.0790
 8345SOL     OW27988   2.737   7.987   2.374  0.5486  0.3467 -0.1388
 8345SOL    HW127989   2.688   8.066   2.394  1.4556  0.6458  1.0107
 8345SOL    HW227990   2.787   8.009   2.295  1.0731  1.0627  0.3779
 8346SOL     OW27991   3.188   6.197   1.959  0.2520  0.4402 -0.2352
 8346SOL    HW127992   3.206   6.285   1.991 -2.6239 -0.1964  3.9964
 8346SOL    HW227993   3.272   6.151   1.966  1.2106  2.1717  0.0807
 8347SOL     OW27994   3.609   7.231   2.707 -0.2656  0.4672  0.0775
 8347SOL    HW127995   3.573   7.231   2.795  1.7395 -1.7532  1.0131
 8347SOL    HW227996   3.624   7.138   2.687 -1.3202  0.8250 -2.9351
 8348SOL     OW27997   0.148   7.562   3.126 -0.4204 -0.0889 -0.2563
 8348SOL    HW127998   0.215   7.568   3.058  0.0142  0.8192  0.2263
 8348SOL    HW227999   0.195   7.579   3.207 -0.8715 -1.5203  0.3260
 8349SOL     OW28000   1.008   1.075   1.381 -0.2728 -0.0250 -0.1502
 8349SOL    HW128001   1.077   1.127   1.340 -0.5800  0.9125  0.4996
 8349SOL    HW228002   0.952   1.139   1.424 -0.0845 -0.9460  1.5645
 8350SOL     OW28003   4.023   0.177   0.713  0.2253  0.4653 -0.5006
 8350SOL    HW128004   4.059   0.265   0.701 -0.6840  1.3067  2.2523
 8350SOL    HW228005   4.090   0.131   0.763 -1.2474  1.1937  2.2929
 8351SOL     OW28006   0.891   1.059   1.991 -0.8232  0.9746 -0.0846
 8351SOL    HW128007   0.973   1.101   2.016 -0.8427  0.7368  0.3844
 8351SOL    HW228008   0.902   1.038   1.898  0.2041 -0.3393  0.3141
 8352SOL     OW28009   4.702   7.908   0.258 -0.0434  0.2716 -0.0168
 8352SOL    HW128010   4.692   8.003   0.250  2.3834  0.6507  0.4464
 8352SOL    HW228011   4.683   7.890   0.350  1.4950  0.6899  0.4217
 8353SOL     OW28012   3.050   1.191   5.786  0.3882  0.5541  0.0706
 8353SOL    HW128013   2.970   1.239   5.766 -0.2448 -0.4293  0.1435
 8353SOL    HW228014   3.110   1.214   5.715 -0.6289 -0.1813 -1.0808
 8354SOL     OW28015   8.085   6.255   0.459  0.5095 -0.2848 -0.5020
 8354SOL    HW128016   8.175   6.285   0.473  0.3362 -0.0178  0.1033
 8354SOL    HW228017   8.093   6.173   0.412  1.1141 -0.7854  0.4539
 8355SOL     OW28018   1.246   7.242   4.290  0.0134 -0.5801  0.5142
 8355SOL    HW128019   1.231   7.185   4.215  0.5808  0.3000 -0.2836
 8355SOL    HW228020   1.340   7.258   4.291 -0.2793  1.5299 -0.2071
 8356SOL     OW28021   7.191   3.069   4.518 -0.0672  0.9319  0.8065
 8356SOL    HW128022   7.222   3.001   4.578  0.4107  0.1178 -0.3441
 8356SOL    HW228023   7.106   3.095   4.554  0.3947  0.7723  2.0757
 8357SOL     OW28024   4.060   7.941   7.867  0.2193  0.3638 -0.0281
 8357SOL    HW128025   4.152   7.920   7.881 -0.0507  0.0020  1.3461
 8357SOL    HW228026   4.016   7.856   7.858  0.1494  0.5450 -1.8313
 8358SOL     OW28027   8.077   3.792   0.528 -0.0448  0.6150  0.1340
 8358SOL    HW128028   8.096   3.706   0.566  0.7386  1.3073  1.3671
 8358SOL    HW228029   7.999   3.777   0.474 -1.7509 -0.3069  2.6460
 8359SOL     OW28030   0.519   1.450   1.049 -0.3709 -0.3401  0.2855
 8359SOL    HW128031   0.614   1.439   1.055 -0.4650 -1.4249  0.0027
 8359SOL    HW228032   0.487   1.364   1.023 -1.5025 -0.1654  1.0422
 8360SOL     OW28033   6.286   5.316   5.436 -0.3990  0.0837 -0.0434
 8360SOL    HW128034   6.212   5.345   5.489 -1.1955 -1.0744 -0.4867
 8360SOL    HW228035   6.258   5.328   5.346  0.3600  0.5972 -0.2209
 8361SOL     OW28036   4.913   4.806   3.723  0.3255  0.3818 -0.3630
 8361SOL    HW128037   4.969   4.740   3.681 -0.5755  0.1750 -1.2882
 8361SOL    HW228038   4.973   4.876   3.748  1.0944 -0.1218 -0.7467
 8362SOL     OW28039   2.383   1.327   7.993 -0.4833 -0.0639  0.4889
 8362SOL    HW128040   2.430   1.346   7.912  0.0278 -1.8198  0.3494
 8362SOL    HW228041   2.371   1.232   7.993 -2.0966  0.1028  1.5922
 8363SOL     OW28042   3.150   1.705   2.954  0.5431 -0.1084 -0.2450
 8363SOL    HW128043   3.074   1.760   2.932  1.1591  1.8875  2.2010
 8363SOL    HW228044   3.114   1.633   3.005  0.0519 -0.5274 -1.1550
 8364SOL     OW28045   7.254   5.006   6.342 -0.3013 -0.1877  0.1001
 8364SOL    HW128046   7.344   5.037   6.334  0.3864 -2.3132 -1.0348
 8364SOL    HW228047   7.204   5.084   6.368  1.8426  1.0218  0.8255
 8365SOL     OW28048   4.138   1.555   7.949 -0.2800 -0.3449 -0.6114
 8365SOL    HW128049   4.090   1.517   8.023 -0.0975 -0.2785 -0.4578
 8365SOL    HW228050   4.164   1.480   7.896  0.1613 -0.4440 -0.2592
 8366SOL     OW28051   0.428   3.246   2.398  0.6840 -0.0949  0.3654
 8366SOL    HW128052   0.405   3.289   2.316 -0.0943  0.2026  0.7335
 8366SOL    HW228053   0.524   3.246   2.399  0.7475 -1.3573 -1.1883
 8367SOL     OW28054   3.197   5.943   6.233 -0.1873 -0.1230 -0.5612
 8367SOL    HW128055   3.138   6.009   6.199 -0.3876  0.0834  0.1752
 8367SOL    HW228056   3.155   5.860   6.211 -0.4104  0.0077 -0.6298
 8368SOL     OW28057   8.128   4.599   7.379 -0.1213 -0.2097 -0.6222
 8368SOL    HW128058   8.037   4.595   7.408  0.3652 -1.0558  0.8838
 8368SOL    HW228059   8.167   4.518   7.412  1.2339  0.2349 -1.0724
 8369SOL     OW28060   6.990   4.359   8.091  0.1008 -0.5940  0.1560
 8369SOL    HW128061   7.079   4.328   8.077  0.9156  0.7094  1.9679
 8369SOL    HW228062   6.980   4.359   8.186 -0.9871  1.4939  0.0929
 8370SOL     OW28063   6.402   4.752   6.152 -0.2420  0.0596  0.3865
 8370SOL    HW128064   6.405   4.843   6.122 -2.3185  0.0686  0.0694
 8370SOL    HW228065   6.493   4.728   6.165  0.3592  2.2080  0.5228
 8371SOL     OW28066   0.462   0.360   0.899 -0.2347  0.2465  0.4601
 8371SOL    HW128067   0.429   0.431   0.845 -1.7147 -0.1163  0.8324
 8371SOL    HW228068   0.414   0.368   0.982  2.0458  0.8518  1.7911
 8372SOL     OW28069   7.857   4.043   5.612  0.0213 -0.4752 -0.5554
 8372SOL    HW128070   7.906   4.125   5.610 -1.0125  0.1757 -0.2157
 8372SOL    HW228071   7.841   4.022   5.519  0.1218 -0.1881 -0.6361
 8373SOL     OW28072   4.947   5.624   2.896  0.4768 -0.4024  0.0981
 8373SOL    HW128073   4.900   5.707   2.897  1.2095  0.0227 -0.1706
 8373SOL    HW228074   4.949   5.596   2.988 -1.4274 -1.0908 -0.0251
 8374SOL     OW28075   1.327   4.641   0.833 -0.3697  0.1664 -0.2050
 8374SOL    HW128076   1.298   4.554   0.859  1.0659 -1.0475 -2.3454
 8374SOL    HW228077   1.246   4.689   0.815 -1.2281 -0.2418  2.2410
 8375SOL     OW28078   6.871   7.949   1.804 -0.4925  0.4155  0.4569
 8375SOL    HW128079   6.939   7.935   1.870  0.4208  1.1201 -0.3024
 8375SOL    HW228080   6.792   7.910   1.842  0.6264 -1.6887  0.7610
 8376SOL     OW28081   3.647   4.805   4.842  0.0897 -0.3314 -0.4697
 8376SOL    HW128082   3.657   4.894   4.808  0.2786 -0.3183 -0.3846
 8376SOL    HW228083   3.700   4.804   4.923 -1.7025  0.1421  0.7707
 8377SOL     OW28084   1.856   7.904   4.170 -0.0312 -0.2430 -0.2499
 8377SOL    HW128085   1.903   7.861   4.098  0.7312 -0.8947  0.6019
 8377SOL    HW228086   1.835   7.991   4.137  0.5248 -0.4430 -1.1649
 8378SOL     OW28087   7.424   2.743   6.748 -0.2089 -0.2255 -0.0831
 8378SOL    HW128088   7.361   2.716   6.681 -0.9760  0.7259  0.2432
 8378SOL    HW228089   7.483   2.803   6.702  1.2753 -2.0675 -0.7141
 8379SOL     OW28090   3.693   2.621   6.833  0.0019 -0.1602 -0.1318
 8379SOL    HW128091   3.736   2.537   6.854 -3.0408 -1.1448  2.9660
 8379SOL    HW228092   3.622   2.597   6.774 -0.0070  0.5158 -0.4039
 8380SOL     OW28093   0.124   0.756   1.815  0.1351  0.4229  0.2597
 8380SOL    HW128094   0.155   0.734   1.727 -0.7027 -3.0843  0.6819
 8380SOL    HW228095   0.201   0.788   1.861  0.3292  3.5999 -2.0012
 8381SOL     OW28096   6.389   4.658   5.399  0.3555  0.6247  0.3082
 8381SOL    HW128097   6.434   4.734   5.436  1.5105  0.2537 -0.3086
 8381SOL    HW228098   6.448   4.624   5.333 -0.2409 -0.6830  0.4082
 8382SOL     OW28099   1.692   5.399   0.084 -0.2878  0.3173 -0.3025
 8382SOL    HW128100   1.734   5.425   0.002  0.8834  0.3273  0.2741
 8382SOL    HW228101   1.629   5.469   0.102 -1.9063 -0.5998 -2.1120
 8383SOL     OW28102   4.768   7.127   5.147  0.0519 -0.1327  0.2400
 8383SOL    HW128103   4.690   7.159   5.191  0.1262 -1.7031  1.6298
 8383SOL    HW228104   4.759   7.156   5.057 -1.9416  0.0546  0.4627
 8384SOL     OW28105   5.252   4.389   5.023 -0.2693 -0.9417 -0.0793
 8384SOL    HW128106   5.169   4.435   5.038  0.3786  1.3948 -2.7946
 8384SOL    HW228107   5.314   4.434   5.081 -0.0456  0.4493 -1.3239
 8385SOL     OW28108   5.165   6.347   7.581  0.4574  0.3862  0.2438
 8385SOL    HW128109   5.174   6.443   7.578  0.9997  0.3122 -1.6231
 8385SOL    HW228110   5.071   6.332   7.576  0.2881  0.8120  1.6060
 8386SOL     OW28111   2.738   2.283   3.330 -0.2552  0.4565  0.7363
 8386SOL    HW128112   2.687   2.211   3.293  2.0094 -0.7624 -0.1744
 8386SOL    HW228113   2.794   2.313   3.258  2.0450  0.0885  2.2671
 8387SOL     OW28114   7.061   5.684   0.723  0.0981  0.2749  0.7165
 8387SOL    HW128115   7.042   5.770   0.686 -1.4563 -0.6356 -0.7216
 8387SOL    HW228116   7.027   5.688   0.812 -1.7003  0.5712  0.0508
 8388SOL     OW28117   3.200   6.983   2.467  0.4408  0.3272  0.0696
 8388SOL    HW128118   3.129   6.933   2.428 -0.3647  2.1524 -0.9750
 8388SOL    HW228119   3.201   7.065   2.417  1.4090  1.5177  1.9302
 8389SOL     OW28120   1.283   5.241   0.835 -0.3371 -0.4584  0.5332
 8389SOL    HW128121   1.347   5.253   0.905  3.4667  0.4109 -2.7620
 8389SOL    HW228122   1.249   5.329   0.818  0.5866 -0.2442 -0.2592
 8390SOL     OW28123   4.863   0.777   4.492  0.0292 -0.1111  0.0526
 8390SOL    HW128124   4.863   0.682   4.483  0.5898 -0.1854  0.7613
 8390SOL    HW228125   4.955   0.801   4.500 -0.1881  0.2945  1.6909
 8391SOL     OW28126   1.919   6.664   7.509  0.2111 -0.1256 -0.1095
 8391SOL    HW128127   1.839   6.716   7.497  1.5655  1.7151 -1.8031
 8391SOL    HW228128   1.895   6.575   7.484 -2.3728 -0.6800  3.4993
 8392SOL     OW28129   1.447   2.344   3.889 -0.2802 -0.1473 -0.2035
 8392SOL    HW128130   1.526   2.386   3.922 -1.2648  0.4672  1.4987
 8392SOL    HW228131   1.416   2.404   3.820  0.0445  0.2695  0.0048
 8393SOL     OW28132   7.006   2.764   4.066  0.1906  0.4267 -0.0762
 8393SOL    HW128133   6.996   2.761   3.971  0.1390 -1.8987 -0.0488
 8393SOL    HW228134   6.917   2.759   4.100  0.0812  2.7029  0.1631
 8394SOL     OW28135   5.504   1.929   5.799 -0.0030  0.2741 -0.6623
 8394SOL    HW128136   5.409   1.917   5.801  0.1217 -0.8320 -0.7282
 8394SOL    HW228137   5.538   1.846   5.766  0.9952  0.6420 -0.5971
 8395SOL     OW28138   3.713   2.822   2.367 -0.0079 -0.3378  0.3618
 8395SOL    HW128139   3.757   2.805   2.284 -1.0414  0.1905 -0.3213
 8395SOL    HW228140   3.726   2.743   2.419  2.2151  0.0046  0.4246
 8396SOL     OW28141   7.974   3.077   0.185  0.3510 -0.0892  0.6885
 8396SOL    HW128142   8.052   3.081   0.239  1.4429  0.9430 -0.8855
 8396SOL    HW228143   7.957   3.168   0.159 -1.0185 -0.3677  0.5004
 8397SOL     OW28144   4.554   3.588   1.406 -0.5314  0.0065 -0.2638
 8397SOL    HW128145   4.591   3.533   1.475 -1.2016  0.5568  0.5561
 8397SOL    HW228146   4.479   3.539   1.374 -1.2181  0.4861  0.5705
 8398SOL     OW28147   3.195   1.492   3.811 -0.3147 -0.2751  0.2281
 8398SOL    HW128148   3.102   1.469   3.807 -0.0115 -1.4328 -0.3373
 8398SOL    HW228149   3.237   1.419   3.856  0.3733  0.1101  0.2314
 8399SOL     OW28150   1.948   6.973   4.317 -0.4567 -0.4009  0.3553
 8399SOL    HW128151   1.873   6.949   4.262  0.1033  1.0408 -1.1199
 8399SOL    HW228152   1.927   6.937   4.403 -3.3052  0.7061  0.2349
 8400SOL     OW28153   0.566   0.117   5.893  0.2240  0.4152  0.4900
 8400SOL    HW128154   0.621   0.073   5.957 -0.2019 -0.1666  0.4697
 8400SOL    HW228155   0.575   0.210   5.912  1.3564  0.3415  0.3597
 8401SOL     OW28156   0.553   6.878   7.103 -0.0518 -0.2790 -0.1609
 8401SOL    HW128157   0.627   6.839   7.149 -1.2641  0.8477  2.9737
 8401SOL    HW228158   0.490   6.806   7.096 -0.8545  0.0774  2.3775
 8402SOL     OW28159   1.124   5.285   2.879  0.4980 -0.4236  0.3168
 8402SOL    HW128160   1.132   5.363   2.934  1.8070 -0.8233  0.7128
 8402SOL    HW228161   1.036   5.252   2.897 -0.3183  1.2710 -0.3109
 8403SOL     OW28162   7.796   3.920   1.524 -0.7260 -0.2344 -0.1414
 8403SOL    HW128163   7.709   3.959   1.526 -1.5520 -1.9807 -0.1007
 8403SOL    HW228164   7.781   3.828   1.547  1.1104 -0.6013 -0.3090
 8404SOL     OW28165   0.410   4.779   7.395 -0.4861  0.2383 -0.0219
 8404SOL    HW128166   0.449   4.866   7.404 -1.8470  0.8193  0.5598
 8404SOL    HW228167   0.344   4.790   7.326  1.0131 -0.9805 -1.7398
 8405SOL     OW28168   4.045   2.592   3.648  0.3745  0.7502  0.7474
 8405SOL    HW128169   3.998   2.672   3.670 -0.2876  0.5285  0.1798
 8405SOL    HW228170   4.088   2.566   3.730  0.3131  1.4868  1.0222
 8406SOL     OW28171   6.035   0.502   3.975 -0.1429  0.4563  0.0410
 8406SOL    HW128172   6.093   0.484   4.049 -1.0773  2.1792  1.2476
 8406SOL    HW228173   6.090   0.550   3.913  1.0048 -2.0872 -1.0504
 8407SOL     OW28174   3.024   7.866   6.936  0.0353  0.3393  0.4373
 8407SOL    HW128175   2.954   7.803   6.951  1.4526 -1.2594  0.5512
 8407SOL    HW228176   2.982   7.936   6.886 -1.9355  0.0726  1.5904
 8408SOL     OW28177   6.833   6.671   7.524  0.2391 -0.1865  0.1866
 8408SOL    HW128178   6.893   6.642   7.455  0.7192  0.9158  0.1097
 8408SOL    HW228179   6.781   6.594   7.545  0.2984 -0.6319 -1.1905
 8409SOL     OW28180   2.586   6.597   7.818 -0.2974 -0.1320  0.7760
 8409SOL    HW128181   2.551   6.511   7.794 -0.9391  0.3402 -0.0524
 8409SOL    HW228182   2.671   6.602   7.774 -0.4410 -0.1957  0.4853
 8410SOL     OW28183   3.855   7.478   7.394  0.7092 -0.4539 -0.0171
 8410SOL    HW128184   3.785   7.473   7.330  0.6718  0.3498 -0.0514
 8410SOL    HW228185   3.883   7.387   7.406  1.2252 -0.5463 -1.7153
 8411SOL     OW28186   1.729   8.036   4.389 -0.7787 -0.0874 -0.2820
 8411SOL    HW128187   1.795   8.096   4.425 -0.4159 -0.0509 -0.9936
 8411SOL    HW228188   1.775   7.988   4.321 -1.0506 -1.2474  0.3390
 8412SOL     OW28189   2.572   1.433   0.032  0.5361  0.1995  0.1799
 8412SOL    HW128190   2.542   1.467   0.116 -0.5556  0.2409 -0.2156
 8412SOL    HW228191   2.492   1.408  -0.014  0.9838  1.5616 -1.4441
 8413SOL     OW28192   4.627   4.386   6.750 -0.1279 -0.2173 -0.0263
 8413SOL    HW128193   4.560   4.448   6.780 -0.6662 -0.9432  0.2884
 8413SOL    HW228194   4.710   4.431   6.767 -0.5322  0.8915 -0.8676
 8414SOL     OW28195   4.614   6.566   6.669 -0.2260  0.3905  0.0682
 8414SOL    HW128196   4.673   6.638   6.646  0.7425 -0.2614  0.4255
 8414SOL    HW228197   4.661   6.488   6.640 -1.5378 -0.0678 -0.8768
 8415SOL     OW28198   3.180   8.033   0.717  0.5936 -0.4675 -0.0342
 8415SOL    HW128199   3.134   7.965   0.669  0.3856 -0.3019 -0.0731
 8415SOL    HW228200   3.118   8.106   0.721  0.2267 -0.8339  1.3571
 8416SOL     OW28201   7.883   6.817   1.991 -0.5519  0.1856  0.1821
 8416SOL    HW128202   7.862   6.856   2.076  1.4464  0.9266  0.3928
 8416SOL    HW228203   7.799   6.810   1.946 -1.5431  0.5452  1.8985
 8417SOL     OW28204   2.504   5.586   0.375  0.1764 -0.1214  0.4807
 8417SOL    HW128205   2.497   5.540   0.292  1.0039 -1.1593  0.9573
 8417SOL    HW228206   2.587   5.555   0.412 -1.4994 -1.9835  3.0550
 8418SOL     OW28207   4.831   7.745   7.403 -0.3459  0.4030  0.3956
 8418SOL    HW128208   4.796   7.800   7.473  1.6777  0.7060  1.2401
 8418SOL    HW228209   4.826   7.799   7.324 -1.1242  0.6669  0.6244
 8419SOL     OW28210   7.222   1.221   1.386 -0.0784 -0.0736 -0.5753
 8419SOL    HW128211   7.268   1.212   1.303 -0.0599 -1.6927 -0.4309
 8419SOL    HW228212   7.132   1.195   1.366 -0.4503  1.0494 -0.4116
 8420SOL     OW28213   3.106   0.536   6.466  0.6132  0.7846 -0.1151
 8420SOL    HW128214   3.061   0.583   6.396  1.4084  1.6658 -0.0644
 8420SOL    HW228215   3.161   0.603   6.508  1.9853 -0.2347 -0.2093
 8421SOL     OW28216   0.941   0.073   2.355 -0.4861  0.2451 -0.0443
 8421SOL    HW128217   1.033   0.075   2.326 -0.1438  1.6410  1.0188
 8421SOL    HW228218   0.895   0.129   2.293 -1.0063 -1.7846 -1.6085
 8422SOL     OW28219   7.234   7.887   7.517  0.6208  0.6522 -0.0701
 8422SOL    HW128220   7.141   7.899   7.538 -0.1543  0.6981 -3.1337
 8422SOL    HW228221   7.278   7.957   7.565 -1.0284  1.2132  0.7099
 8423SOL     OW28222   2.881   0.960   3.430  0.4543 -0.0215  0.3494
 8423SOL    HW128223   2.913   1.044   3.464 -0.7105  0.5320  0.1211
 8423SOL    HW228224   2.943   0.939   3.360  1.1149  0.3276  0.8065
 8424SOL     OW28225   6.548   6.995   0.967  0.0782 -0.0644 -0.1832
 8424SOL    HW128226   6.577   7.062   1.029 -3.0844  0.8257  0.4809
 8424SOL    HW228227   6.508   6.927   1.021  1.2692 -1.4962 -1.0184
 8425SOL     OW28228   3.105   7.017   7.419 -0.1548  0.0096 -0.5146
 8425SOL    HW128229   3.154   6.940   7.390  0.4014  0.1009  0.1571
 8425SOL    HW228230   3.014   6.988   7.422  0.1015 -0.7701  0.1844
 8426SOL     OW28231   0.693   5.872   3.849 -0.1133 -0.0563 -0.0424
 8426SOL    HW128232   0.758   5.860   3.919  1.0170  0.6907 -0.9484
 8426SOL    HW228233   0.743   5.867   3.768 -1.1129  1.0370 -0.7486
 8427SOL     OW28234   7.450   0.694   0.653 -0.2060  0.0990 -0.8161
 8427SOL    HW128235   7.473   0.684   0.746 -1.7972  3.7564  0.1377
 8427SOL    HW228236   7.367   0.648   0.643  0.3203 -0.9089 -0.6357
 8428SOL     OW28237   6.449   6.294   6.702 -0.0226  0.6427 -0.0764
 8428SOL    HW128238   6.389   6.281   6.628  0.0734 -0.7181  0.0576
 8428SOL    HW228239   6.410   6.245   6.774 -0.5310  2.6018  1.0594
 8429SOL     OW28240   0.484   4.006   0.582  0.4412 -0.1277  1.1191
 8429SOL    HW128241   0.444   4.092   0.568  1.3008 -0.2249 -3.2150
 8429SOL    HW228242   0.573   4.015   0.546  1.4335 -2.2142  2.8030
 8430SOL     OW28243   5.305   2.234   7.933  0.2880 -0.3341  0.6146
 8430SOL    HW128244   5.232   2.176   7.955  0.0529  0.3208  1.6512
 8430SOL    HW228245   5.382   2.178   7.933  0.2797 -0.4376  3.0307
 8431SOL     OW28246   7.788   7.023   7.487  0.1056  0.1417  0.0628
 8431SOL    HW128247   7.872   6.980   7.476  0.0015 -0.0289 -0.0534
 8431SOL    HW228248   7.770   7.065   7.403 -0.6519 -1.1035 -0.4123
 8432SOL     OW28249   3.961   5.268   5.185  0.5195 -0.1269 -0.0120
 8432SOL    HW128250   4.052   5.248   5.207  0.7820  1.7312  0.7568
 8432SOL    HW228251   3.925   5.309   5.263 -0.5805  0.3983 -0.7588
 8433SOL     OW28252   7.586   6.494   1.003  0.0299  0.2368 -0.1458
 8433SOL    HW128253   7.678   6.507   1.025 -0.1805 -0.2795  1.1863
 8433SOL    HW228254   7.561   6.572   0.954  1.2189  0.2981 -0.6689
 8434SOL     OW28255   2.589   0.042   1.599  0.2028  0.2178 -0.0953
 8434SOL    HW128256   2.606   0.106   1.529  0.0279  0.2994 -0.0619
 8434SOL    HW228257   2.562  -0.037   1.552  1.0046 -0.0208 -0.1690
 8435SOL     OW28258   1.263   4.262   1.298  0.2455 -0.4974  0.2829
 8435SOL    HW128259   1.323   4.324   1.256  1.1642 -1.5405 -0.0096
 8435SOL    HW228260   1.264   4.185   1.240 -1.4719 -0.5191  0.2239
 8436SOL     OW28261   2.243   0.932   2.932 -0.4824  0.1679  0.5314
 8436SOL    HW128262   2.309   0.864   2.949 -0.0700  0.3125 -0.4366
 8436SOL    HW228263   2.162   0.897   2.969  0.2386  0.2438  2.2862
 8437SOL     OW28264   5.861   3.559   2.003 -0.7278 -0.0491 -0.8918
 8437SOL    HW128265   5.773   3.570   2.041  0.1109  0.4348  1.0552
 8437SOL    HW228266   5.907   3.640   2.027  1.1458 -1.4976  0.8097
 8438SOL     OW28267   2.687   7.486   4.306  0.0753  0.1593 -0.0031
 8438SOL    HW128268   2.745   7.424   4.263 -0.4265 -0.1088 -0.2980
 8438SOL    HW228269   2.604   7.440   4.315  0.0732  0.3186  0.9799
 8439SOL     OW28270   7.343   0.702   2.000  0.4475 -0.0293  0.1101
 8439SOL    HW128271   7.281   0.727   2.069  2.3248  1.2716  1.4256
 8439SOL    HW228272   7.293   0.707   1.919 -1.4339 -0.1310  1.2118
 8440SOL     OW28273   3.161   1.096   2.112 -0.1523  0.1504  0.3579
 8440SOL    HW128274   3.225   1.047   2.061 -1.1222 -1.4379  0.6204
 8440SOL    HW228275   3.161   1.183   2.072 -0.1758 -0.7552 -1.7304
 8441SOL     OW28276   6.412   4.293   6.079  0.4295  0.2173 -0.3453
 8441SOL    HW128277   6.504   4.315   6.063  0.8227 -0.0543  1.3651
 8441SOL    HW228278   6.369   4.378   6.091  0.7135  0.3009  0.1065
 8442SOL     OW28279   4.864   1.092   2.379  0.2322 -1.2004  0.4623
 8442SOL    HW128280   4.780   1.064   2.415 -1.6534  1.5119 -1.4218
 8442SOL    HW228281   4.886   1.171   2.427 -0.0446 -0.0428 -1.2447
 8443SOL     OW28282   6.307   7.208   6.537 -0.6723 -0.4944  0.1130
 8443SOL    HW128283   6.396   7.240   6.518 -0.5019 -1.7392 -1.4410
 8443SOL    HW228284   6.260   7.285   6.568  0.5654  0.5343 -0.4534
 8444SOL     OW28285   5.347   0.913   7.108 -0.6250 -0.0927  0.0588
 8444SOL    HW128286   5.368   1.004   7.128  0.0064 -0.5332  1.5392
 8444SOL    HW228287   5.365   0.904   7.015  1.6168  0.6956  0.3519
 8445SOL     OW28288   4.419   3.837   5.958 -0.1001 -0.2780 -0.6295
 8445SOL    HW128289   4.418   3.767   5.893 -2.0848  0.1886 -1.1528
 8445SOL    HW228290   4.400   3.917   5.908  0.9853  0.4992  0.1384
 8446SOL     OW28291   3.621   7.234   4.014 -0.3359 -0.4076 -0.4095
 8446SOL    HW128292   3.618   7.138   4.008 -0.0128 -0.4338 -0.2244
 8446SOL    HW228293   3.592   7.265   3.929  2.2079 -0.7188 -1.4701
 8447SOL     OW28294   1.637   3.128   1.926  0.3592  0.0396 -0.1061
 8447SOL    HW128295   1.624   3.053   1.868  1.0441  0.4221 -0.7825
 8447SOL    HW228296   1.560   3.129   1.983  1.2911 -2.4297  1.3711
 8448SOL     OW28297   5.084   3.510   0.788  0.1507 -0.1620  0.0942
 8448SOL    HW128298   5.088   3.475   0.699  1.5858 -0.1480  0.1339
 8448SOL    HW228299   5.172   3.498   0.823  0.1746  1.6983  0.8072
 8449SOL     OW28300   0.963   7.471   7.194  0.6745  0.2832  0.7912
 8449SOL    HW128301   0.971   7.552   7.144  0.0083  0.3029  0.7118
 8449SOL    HW228302   1.051   7.433   7.193  0.9656  0.9589  0.7516
 8450SOL     OW28303   1.070   1.928   7.788  0.2835 -0.2927 -0.0250
 8450SOL    HW128304   1.087   1.905   7.879  1.0908  0.6253  0.0679
 8450SOL    HW228305   1.010   1.860   7.757  2.8821 -2.8338  0.0832
 8451SOL     OW28306   3.512   3.058   1.389  0.2171 -0.0097  0.1937
 8451SOL    HW128307   3.441   3.000   1.417 -0.1308  1.3102  2.3076
 8451SOL    HW228308   3.481   3.095   1.306 -1.6611  0.5978  1.1033
 8452SOL     OW28309   0.092   7.287   1.953  0.1742  0.0934  0.2560
 8452SOL    HW128310  -0.004   7.283   1.947  0.0596  1.0913  1.1244
 8452SOL    HW228311   0.119   7.197   1.968 -0.5698 -0.3098 -0.7548
 8453SOL     OW28312   1.465   6.554   4.580  0.1172 -0.5507  0.3653
 8453SOL    HW128313   1.459   6.458   4.582 -1.1177 -0.4853  2.1360
 8453SOL    HW228314   1.437   6.581   4.667  0.2643  1.4490 -0.1732
 8454SOL     OW28315   7.850   0.313   4.623  0.3986  0.1989 -0.0391
 8454SOL    HW128316   7.918   0.264   4.575 -0.3297 -0.3321 -0.5396
 8454SOL    HW228317   7.768   0.275   4.593 -0.1248  0.8416  0.5724
 8455SOL     OW28318   2.369   1.532   5.247  0.0059  0.2043 -0.6091
 8455SOL    HW128319   2.341   1.620   5.271 -0.0079  0.8925 -2.8948
 8455SOL    HW228320   2.359   1.481   5.327 -0.8207  2.0702  0.5476
 8456SOL     OW28321   1.406   6.874   4.235 -0.1813  0.1024  0.5672
 8456SOL    HW128322   1.452   6.803   4.278  0.5484 -0.6408 -1.3512
 8456SOL    HW228323   1.473   6.940   4.217 -0.3316  0.0830 -0.0834
 8457SOL     OW28324   3.914   7.820   0.720  0.4532  0.0809 -0.2167
 8457SOL    HW128325   3.842   7.882   0.724  0.6583  0.2615  0.7393
 8457SOL    HW228326   3.941   7.821   0.628 -1.2743 -0.5936 -0.7658
 8458SOL     OW28327   1.638   1.947   1.362  0.0791 -0.3322  0.4513
 8458SOL    HW128328   1.587   1.971   1.439  1.5458  0.0248  1.3428
 8458SOL    HW228329   1.720   1.913   1.397  0.6344 -0.4987 -0.9468
 8459SOL     OW28330   1.352   4.123   8.133 -0.9392 -0.5456 -0.0343
 8459SOL    HW128331   1.371   4.125   8.227 -2.8384 -0.0668  0.3845
 8459SOL    HW228332   1.377   4.210   8.102 -0.7916 -0.5276  0.1324
 8460SOL     OW28333   3.883   5.778   6.849  0.0809  0.4403 -0.0473
 8460SOL    HW128334   3.861   5.702   6.904 -0.5066  1.6881  1.5050
 8460SOL    HW228335   3.918   5.843   6.911  0.1189  1.6262 -1.2764
 8461SOL     OW28336   6.115   1.978   2.824 -0.3451  0.2942 -0.1465
 8461SOL    HW128337   6.173   1.903   2.834 -0.2985  0.3320 -0.1363
 8461SOL    HW228338   6.046   1.963   2.889  0.4318  0.9924  0.8777
 8462SOL     OW28339   5.059   1.977   2.065  0.0684 -0.4186  0.0834
 8462SOL    HW128340   4.990   1.937   2.011  0.1042 -1.6136  0.8914
 8462SOL    HW228341   5.108   1.902   2.100  0.1533  0.3379  1.6369
 8463SOL     OW28342   1.749   7.101   4.676 -0.1452 -0.1888  0.3458
 8463SOL    HW128343   1.662   7.100   4.635 -1.0233 -0.5764  2.0802
 8463SOL    HW228344   1.793   7.177   4.638 -2.0674  1.3417  0.9776
 8464SOL     OW28345   4.271   2.394   0.026 -0.1049 -0.1216  0.1465
 8464SOL    HW128346   4.227   2.319  -0.013  0.7830  0.5865 -2.3644
 8464SOL    HW228347   4.339   2.356   0.082 -0.8468 -1.1604  0.3649
 8465SOL     OW28348   2.977   0.080   6.515  0.1486  0.2318  0.0966
 8465SOL    HW128349   2.936   0.161   6.484  0.6128 -0.3274 -2.2116
 8465SOL    HW228350   3.069   0.091   6.491  0.5827 -0.2314  1.4760
 8466SOL     OW28351   0.413   6.954   5.304  0.2765  0.2439 -0.4250
 8466SOL    HW128352   0.476   6.901   5.353  0.8051 -0.3076 -1.6548
 8466SOL    HW228353   0.331   6.905   5.309  0.1534  0.5269  0.4475
 8467SOL     OW28354   6.949   7.164   2.003  0.4638  0.5103 -0.0350
 8467SOL    HW128355   6.919   7.210   1.925 -0.6881  1.0216  0.6709
 8467SOL    HW228356   6.971   7.234   2.065 -0.4929  0.1363  0.7583
 8468SOL     OW28357   1.368   4.848   7.480 -0.9135 -0.4859  0.0745
 8468SOL    HW128358   1.339   4.900   7.405  2.3064  0.5021 -0.6586
 8468SOL    HW228359   1.402   4.767   7.442  0.4985 -0.0897  0.4192
 8469SOL     OW28360   6.462   5.406   1.536 -0.3802 -0.0309  0.2786
 8469SOL    HW128361   6.553   5.429   1.557 -0.4676  1.4395 -0.7645
 8469SOL    HW228362   6.440   5.463   1.462 -1.5546 -1.6832 -0.7108
 8470SOL     OW28363   3.161   3.718   2.605  0.3857  0.3522 -0.2695
 8470SOL    HW128364   3.137   3.676   2.688  3.3085 -0.8123  0.1242
 8470SOL    HW228365   3.179   3.809   2.629  0.1583  0.2893  0.1478
 8471SOL     OW28366   4.660   2.907   7.662 -0.0979 -0.4315 -0.1472
 8471SOL    HW128367   4.742   2.896   7.614 -0.8162  1.8937 -2.1107
 8471SOL    HW228368   4.687   2.943   7.747  0.9289  0.3218 -0.7726
 8472SOL     OW28369   1.717   0.401   0.844  0.1544 -0.3710  0.0821
 8472SOL    HW128370   1.679   0.315   0.824 -0.8453 -0.0444  0.4821
 8472SOL    HW228371   1.641   0.458   0.857  0.7375 -0.0636  2.6387
 8473SOL     OW28372   1.106   7.974   5.681 -0.4500  0.4604 -0.2750
 8473SOL    HW128373   1.131   8.062   5.711  0.7777  0.4229 -1.0864
 8473SOL    HW228374   1.018   7.985   5.646  0.4211  1.9013 -2.2945
 8474SOL     OW28375   0.142   4.671   2.507 -0.2505 -0.0092 -0.0795
 8474SOL    HW128376   0.131   4.671   2.412 -1.3889  0.5448  0.0373
 8474SOL    HW228377   0.059   4.636   2.541  0.1605 -0.2549  0.7070
 8475SOL     OW28378   2.288   0.614   3.086 -0.4680 -0.1857  0.3884
 8475SOL    HW128379   2.264   0.551   3.017 -2.2812 -0.0980  0.8773
 8475SOL    HW228380   2.357   0.667   3.047  0.7194 -2.0833 -0.2527
 8476SOL     OW28381   4.026   5.274   7.917  0.1621  0.4799 -0.5594
 8476SOL    HW128382   3.966   5.201   7.905  0.2192  0.1555  1.0000
 8476SOL    HW228383   4.087   5.267   7.843  1.1535 -2.0475  0.3919
 8477SOL     OW28384   1.499   7.565   4.422  0.4001  0.4036 -0.1309
 8477SOL    HW128385   1.441   7.592   4.493  0.6174  0.0445  0.1882
 8477SOL    HW228386   1.582   7.609   4.442  0.1849  1.0943 -0.7062
 8478SOL     OW28387   6.101   0.359   1.414  0.2146  0.3344 -0.9897
 8478SOL    HW128388   6.031   0.315   1.462  1.9961  0.7799  2.2950
 8478SOL    HW228389   6.156   0.288   1.380  0.5092 -0.0108  0.1882
 8479SOL     OW28390   6.070   3.276   2.514  0.2123  0.4711  0.0646
 8479SOL    HW128391   6.004   3.225   2.467 -1.3859  0.4343  2.2214
 8479SOL    HW228392   6.099   3.341   2.450  1.2431 -2.0767 -2.3129
 8480SOL     OW28393   7.220   0.047   1.149 -0.0653 -0.3816  0.5098
 8480SOL    HW128394   7.203   0.127   1.099 -0.0718 -0.8960 -0.3214
 8480SOL    HW228395   7.245   0.078   1.236  0.8863  0.5622 -0.0754
 8481SOL     OW28396   3.671   0.974   0.649 -0.3248  0.2508  0.5715
 8481SOL    HW128397   3.607   0.924   0.699 -0.4639 -0.8337 -0.6137
 8481SOL    HW228398   3.619   1.027   0.589 -0.1404  0.1705  0.3379
 8482SOL     OW28399   0.847   1.374   1.112 -0.6860  0.2974 -0.2716
 8482SOL    HW128400   0.919   1.415   1.159 -0.8807  0.0772  0.2265
 8482SOL    HW228401   0.863   1.280   1.122 -1.9995  0.2064  1.3811
 8483SOL     OW28402   3.533   3.869   3.703 -0.3702 -0.0251  0.1958
 8483SOL    HW128403   3.469   3.803   3.729 -0.3503 -0.1680 -0.1131
 8483SOL    HW228404   3.482   3.935   3.655 -0.3830  0.1651  0.4662
 8484SOL     OW28405   7.616   3.348   6.825  0.1905  0.0490 -0.3059
 8484SOL    HW128406   7.595   3.274   6.768  1.5841  0.0641 -0.8701
 8484SOL    HW228407   7.589   3.319   6.912  1.6338 -1.5669 -0.3357
 8485SOL     OW28408   5.429   0.138   3.549 -0.0185 -0.1946  0.4396
 8485SOL    HW128409   5.340   0.171   3.545  0.0215 -0.1247  0.1167
 8485SOL    HW228410   5.468   0.164   3.466  0.0524 -0.9614  0.2301
 8486SOL     OW28411   4.018   2.990   5.388 -0.3410 -0.0819 -0.3946
 8486SOL    HW128412   4.066   2.927   5.334 -0.6477 -0.6113 -0.0602
 8486SOL    HW228413   4.058   2.983   5.474  2.7136  3.4211 -1.2604
 8487SOL     OW28414   1.877   5.159   0.097  0.0923 -0.0033 -0.2983
 8487SOL    HW128415   1.789   5.169   0.133  0.4573  0.9368  0.3663
 8487SOL    HW228416   1.863   5.151   0.002 -0.6361  1.4515 -0.3367
 8488SOL     OW28417   5.750   7.511   4.754 -0.2656  0.3535  0.1946
 8488SOL    HW128418   5.786   7.594   4.723 -0.7014  0.0699 -1.1035
 8488SOL    HW228419   5.758   7.451   4.680 -1.1713 -0.3979  0.6755
 8489SOL     OW28420   3.702   1.596   2.660 -0.0437  0.1367  0.6072
 8489SOL    HW128421   3.662   1.509   2.667 -1.2196  0.5614 -0.4579
 8489SOL    HW228422   3.727   1.603   2.568  1.6993  0.2469  1.0602
 8490SOL     OW28423   2.395   5.973   6.232  0.2174  0.2958  0.2089
 8490SOL    HW128424   2.458   5.902   6.234 -1.1762 -1.0307 -0.6080
 8490SOL    HW228425   2.413   6.019   6.150 -1.7487 -1.9958 -1.6737
 8491SOL     OW28426   7.038   7.259   0.823 -0.0526 -0.4711 -0.1033
 8491SOL    HW128427   6.969   7.239   0.887  0.3643 -0.7644  0.2620
 8491SOL    HW228428   7.078   7.174   0.804  0.8098 -0.1875  0.3915
 8492SOL     OW28429   0.416   0.793   3.377  0.4469  0.2688  0.2685
 8492SOL    HW128430   0.371   0.726   3.429 -0.9161  1.5795  0.8565
 8492SOL    HW228431   0.375   0.875   3.403 -0.9093  0.9676 -3.4358
 8493SOL     OW28432   0.377   4.629   3.104  0.2999  0.1984 -0.3764
 8493SOL    HW128433   0.312   4.566   3.075  1.3617 -0.9054 -0.4455
 8493SOL    HW228434   0.329   4.712   3.112 -1.1831 -0.6746  0.0250
 8494SOL     OW28435   3.356   5.748   1.144  0.1196 -0.0372 -0.2221
 8494SOL    HW128436   3.373   5.656   1.160 -1.7314 -0.6186 -1.2832
 8494SOL    HW228437   3.341   5.786   1.231  0.8275 -0.7291  0.2119
 8495SOL     OW28438   1.225   2.387   1.749 -0.4614  0.0558  0.6811
 8495SOL    HW128439   1.228   2.483   1.754  1.1172  0.0042  1.2374
 8495SOL    HW228440   1.210   2.369   1.656 -1.3031  0.8343  0.6475
 8496SOL     OW28441   2.564   3.034   7.404 -0.1952  0.3414 -0.2948
 8496SOL    HW128442   2.493   2.974   7.382  0.7223 -2.8088  3.9131
 8496SOL    HW228443   2.643   2.992   7.370  0.2895  0.0245  1.1578
 8497SOL     OW28444   5.040   6.789   5.053  0.1222  0.3694  0.4825
 8497SOL    HW128445   5.011   6.830   4.972 -0.4862 -0.3816  0.3085
 8497SOL    HW228446   5.020   6.696   5.042  1.1747  0.0590  0.9968
 8498SOL     OW28447   6.317   3.195   4.671 -0.5677  0.2008 -0.8584
 8498SOL    HW128448   6.399   3.160   4.637 -0.0286  1.2377 -0.6729
 8498SOL    HW228449   6.326   3.190   4.766 -1.0792 -0.4614 -0.8367
 8499SOL     OW28450   3.287   2.284   4.739 -0.2862  0.2743 -0.3452
 8499SOL    HW128451   3.202   2.273   4.782  0.4763 -1.4808  0.8711
 8499SOL    HW228452   3.319   2.368   4.771 -1.5603  0.9543 -0.8231
 8500SOL     OW28453   5.404   6.550   3.285 -0.3390 -0.8296 -0.2516
 8500SOL    HW128454   5.351   6.471   3.277 -0.8250 -0.6219  0.7978
 8500SOL    HW228455   5.429   6.571   3.195 -1.0040 -1.6308 -0.6362
 8501SOL     OW28456   7.680   6.206   4.550  0.1678  0.0759 -0.1302
 8501SOL    HW128457   7.613   6.228   4.615 -0.9978 -0.0090 -1.2589
 8501SOL    HW228458   7.673   6.112   4.539  1.1674 -0.0782  0.4526
 8502SOL     OW28459   7.757   2.259   1.911 -1.0231 -0.4737 -0.1960
 8502SOL    HW128460   7.712   2.178   1.889 -0.1644 -0.8617 -0.5730
 8502SOL    HW228461   7.844   2.232   1.939 -0.4700  0.3438 -1.0348
 8503SOL     OW28462   8.066   4.861   6.581  0.4105  0.0991  0.1482
 8503SOL    HW128463   8.012   4.881   6.657 -1.4279 -2.1145 -0.4502
 8503SOL    HW228464   8.151   4.836   6.618  0.0622  0.6272  1.3502
 8504SOL     OW28465   3.560   0.984   3.420 -0.5955  0.0027  0.0266
 8504SOL    HW128466   3.504   0.906   3.421  0.5077 -0.8776 -1.7030
 8504SOL    HW228467   3.503   1.054   3.391 -1.0903 -0.6304 -0.5558
 8505SOL     OW28468   1.808   7.825   4.664  0.1330 -0.0840 -0.1853
 8505SOL    HW128469   1.798   7.826   4.760 -0.7166  2.3964 -0.2208
 8505SOL    HW228470   1.874   7.892   4.647 -1.4716  1.2594 -1.4243
 8506SOL     OW28471   1.535   7.122   5.626  0.3467 -0.0850  0.1643
 8506SOL    HW128472   1.573   7.073   5.699  1.2679  0.6993  0.2396
 8506SOL    HW228473   1.496   7.199   5.667  0.8923  0.3733 -0.1702
 8507SOL     OW28474   8.054   4.497   4.941 -0.0204  0.3425 -0.0328
 8507SOL    HW128475   8.017   4.493   4.853  0.1868 -1.6545 -0.0562
 8507SOL    HW228476   8.141   4.460   4.932  0.9435  2.2888  0.6056
 8508SOL     OW28477   0.089   2.108   1.298  0.1356  0.3248  0.3978
 8508SOL    HW128478   0.066   2.109   1.205  0.4994  1.0292  0.3055
 8508SOL    HW228479   0.183   2.128   1.299 -0.1401  1.6809  0.9803
 8509SOL     OW28480   0.018   3.289   6.467  0.1430  0.1093 -0.2093
 8509SOL    HW128481  -0.074   3.268   6.453  0.2396 -0.9616  0.6614
 8509SOL    HW228482   0.020   3.384   6.475 -1.2280  0.0187  1.9708
 8510SOL     OW28483   1.421   0.770   1.067 -0.4682  0.6781  0.6265
 8510SOL    HW128484   1.402   0.863   1.063 -0.2983  0.7170  0.7217
 8510SOL    HW228485   1.508   0.761   1.028 -0.5961  0.5251  0.3719
 8511SOL     OW28486   2.333   1.962   5.659 -0.0991  0.1205 -0.1953
 8511SOL    HW128487   2.384   1.892   5.619  0.2885 -0.6553  1.5499
 8511SOL    HW228488   2.249   1.961   5.614 -0.5898 -2.3683  0.6320
 8512SOL     OW28489   7.162   7.801   4.346  0.0483  0.1062 -0.1331
 8512SOL    HW128490   7.142   7.762   4.430 -1.4039 -0.1455 -0.5769
 8512SOL    HW228491   7.086   7.783   4.291  0.3860  1.4031 -1.1029
 8513SOL     OW28492   7.634   2.151   1.547 -0.3578 -0.7472  0.1764
 8513SOL    HW128493   7.654   2.064   1.582 -1.3866 -0.9935  0.1997
 8513SOL    HW228494   7.606   2.202   1.623  1.8915  0.1498  0.4500
 8514SOL     OW28495   7.701   2.825   0.280 -0.2570 -0.3337  0.2648
 8514SOL    HW128496   7.732   2.915   0.292 -0.3483 -0.3491  0.6251
 8514SOL    HW228497   7.622   2.834   0.227  1.4235 -0.4405 -2.4513
 8515SOL     OW28498   4.609   5.388   0.331 -0.0396  0.4403  0.3801
 8515SOL    HW128499   4.599   5.306   0.380 -0.8387 -0.5338 -1.3477
 8515SOL    HW228500   4.569   5.371   0.246 -2.4210  3.3881  0.7404
 8516SOL     OW28501   7.013   6.388   2.912  0.7178 -0.3385  0.7269
 8516SOL    HW128502   6.989   6.453   2.845  0.1730 -0.4906  0.7751
 8516SOL    HW228503   7.017   6.439   2.993  1.2501 -0.1787  0.6060
 8517SOL     OW28504   4.018   4.808   3.580 -0.5774 -0.0568  0.1109
 8517SOL    HW128505   3.973   4.724   3.569 -0.1808 -0.6120  2.3493
 8517SOL    HW228506   4.043   4.811   3.672 -0.0714  2.2854 -0.0280
 8518SOL     OW28507   3.900   7.726   1.065  0.3824 -0.3009 -0.5005
 8518SOL    HW128508   3.822   7.687   1.028  0.3618 -1.1813  0.4238
 8518SOL    HW228509   3.882   7.732   1.159  1.5753 -0.9304 -0.2080
 8519SOL     OW28510   4.927   6.979   5.973  0.6506  0.6036  0.5948
 8519SOL    HW128511   4.916   7.072   5.953 -0.3227  0.5430  0.7776
 8519SOL    HW228512   4.972   6.944   5.897  1.0813  1.2302  0.5474
 8520SOL     OW28513   2.549   0.980   6.937  0.0794  0.5280  0.3864
 8520SOL    HW128514   2.612   0.913   6.909  0.8564  1.6596 -0.6763
 8520SOL    HW228515   2.584   1.013   7.020  0.7037  0.9086 -0.0257
 8521SOL     OW28516   7.990   1.300   3.790  0.3249 -0.5295 -0.2397
 8521SOL    HW128517   8.061   1.363   3.784 -0.3621  0.7885  3.2682
 8521SOL    HW228518   7.920   1.338   3.736  0.6633  0.6564  0.1255
 8522SOL     OW28519   7.869   5.522   2.968 -0.3391 -0.2185 -0.5562
 8522SOL    HW128520   7.794   5.576   2.946 -2.4317 -2.5227  0.4716
 8522SOL    HW228521   7.900   5.555   3.052  0.8762  1.7109 -1.6778
 8523SOL     OW28522   6.171   3.986   0.600  0.3540  0.0620  0.1374
 8523SOL    HW128523   6.083   3.950   0.609  0.0063  0.5137 -1.3065
 8523SOL    HW228524   6.224   3.911   0.572  0.1261  0.1244 -0.4625
 8524SOL     OW28525   6.157   1.324   8.019 -0.1633  0.0710 -0.2881
 8524SOL    HW128526   6.186   1.296   7.933  0.3116  0.9789 -0.4397
 8524SOL    HW228527   6.070   1.361   8.005  0.0525  0.5289 -0.4460
 8525SOL     OW28528   1.976   3.806   7.238 -0.7225  0.4545 -0.1624
 8525SOL    HW128529   2.003   3.848   7.320 -1.0365 -0.1699  0.2708
 8525SOL    HW228530   1.895   3.850   7.214 -1.4125 -0.3151  0.6475
 8526SOL     OW28531   2.335   3.214   7.177  0.1116 -0.1043 -0.3335
 8526SOL    HW128532   2.377   3.169   7.251  1.7714 -0.4898 -1.4587
 8526SOL    HW228533   2.248   3.174   7.172  0.6273 -1.3698  0.2821
 8527SOL     OW28534   7.481   4.861   7.287  0.3274  0.1621 -0.6734
 8527SOL    HW128535   7.523   4.946   7.286 -1.0281  0.8727  0.2263
 8527SOL    HW228536   7.388   4.879   7.269  0.4087 -1.3907 -3.1723
 8528SOL     OW28537   1.550   5.356   5.450  0.1545  0.1655  0.0831
 8528SOL    HW128538   1.561   5.450   5.464  0.3443 -0.1582  2.5548
 8528SOL    HW228539   1.571   5.317   5.535 -1.1900 -2.0080 -0.5175
 8529SOL     OW28540   1.260   3.324   3.651 -0.1515 -0.9993  0.2544
 8529SOL    HW128541   1.346   3.320   3.608  0.6726  0.1159  1.7314
 8529SOL    HW228542   1.259   3.247   3.707 -0.3364 -1.2824 -0.1309
 8530SOL     OW28543   5.837   0.675   4.002  0.0091 -0.0141 -0.0303
 8530SOL    HW128544   5.860   0.712   4.088 -0.3213  0.8760 -0.3101
 8530SOL    HW228545   5.911   0.618   3.980  1.0750  1.3143 -0.0567
 8531SOL     OW28546   6.577   1.150   4.408 -0.2100 -0.2552 -0.2108
 8531SOL    HW128547   6.659   1.107   4.383 -0.3819 -0.1824 -0.9459
 8531SOL    HW228548   6.509   1.092   4.373 -0.4424  1.0047 -1.9695
 8532SOL     OW28549   7.133   0.071   7.518 -0.1917  0.0784  0.3823
 8532SOL    HW128550   7.211   0.026   7.548 -0.0754 -0.0468 -0.0942
 8532SOL    HW228551   7.164   0.133   7.452 -0.3148  1.0566  1.2195
 8533SOL     OW28552   3.577   4.843   4.482  0.0770  0.9491  0.1041
 8533SOL    HW128553   3.543   4.776   4.540  1.3144 -1.5040 -1.8247
 8533SOL    HW228554   3.664   4.864   4.518  0.3928  0.2349 -0.2294
 8534SOL     OW28555   0.876   2.055   4.179 -0.4834  0.0108  0.1032
 8534SOL    HW128556   0.900   2.022   4.092 -1.1235 -0.3597  0.0620
 8534SOL    HW228557   0.954   2.040   4.233 -0.9626 -2.2415  0.2719
 8535SOL     OW28558   5.643   7.626   0.283  0.1689  0.1040  0.2411
 8535SOL    HW128559   5.676   7.702   0.235 -0.1886 -0.3138 -0.6700
 8535SOL    HW228560   5.715   7.601   0.341  0.2647  1.1724  0.6049
 8536SOL     OW28561   7.004   6.797   6.715  0.2303 -0.4918  0.1323
 8536SOL    HW128562   7.089   6.839   6.696  0.8595 -0.8026  2.0945
 8536SOL    HW228563   6.940   6.852   6.669  1.5083 -0.5722 -1.8658
 8537SOL     OW28564   3.529   1.692   6.940  0.3798 -0.2333 -0.1626
 8537SOL    HW128565   3.515   1.605   6.978  0.9109  0.1123  0.8789
 8537SOL    HW228566   3.607   1.683   6.886 -1.5041 -1.2299 -2.9133
 8538SOL     OW28567   5.377   0.876   1.745  0.0559 -0.2714  0.5473
 8538SOL    HW128568   5.383   0.958   1.794  1.3356  1.1040 -1.7079
 8538SOL    HW228569   5.437   0.817   1.790  2.3231  1.4071 -0.0570
 8539SOL     OW28570   5.934   1.581   7.122 -0.4871  0.0530 -0.5516
 8539SOL    HW128571   5.974   1.555   7.039 -1.0554  0.1368 -0.8509
 8539SOL    HW228572   5.895   1.666   7.105  1.3841  1.1828  0.4346
 8540SOL     OW28573   4.519   0.650   6.920  0.0709  0.5213  0.0396
 8540SOL    HW128574   4.590   0.595   6.888 -0.5296  0.3721 -1.0861
 8540SOL    HW228575   4.522   0.728   6.864 -2.1397 -0.5370 -1.7370
 8541SOL     OW28576   6.852   1.240   6.484 -0.0274 -0.0906  0.2151
 8541SOL    HW128577   6.825   1.304   6.418  0.3013 -0.6325 -0.4559
 8541SOL    HW228578   6.925   1.193   6.444  1.3344  0.7178  1.6299
 8542SOL     OW28579   2.428   7.920   1.610  0.7097  0.0283 -0.3276
 8542SOL    HW128580   2.396   7.992   1.663 -0.4503  1.3226 -2.6282
 8542SOL    HW228581   2.349   7.874   1.581  1.3230 -0.8745 -0.6073
 8543SOL     OW28582   2.656   1.730   3.723 -0.0735 -0.0663  0.6796
 8543SOL    HW128583   2.669   1.789   3.649  1.8085  1.1680  1.8932
 8543SOL    HW228584   2.581   1.767   3.770  0.4330  0.7759  0.8519
 8544SOL     OW28585   5.200   6.934   7.417  0.1926 -0.1778 -0.2689
 8544SOL    HW128586   5.260   6.925   7.343  1.6500 -2.2486  1.0446
 8544SOL    HW228587   5.221   6.860   7.474 -0.9812  1.2170  2.1385
 8545SOL     OW28588   6.893   3.515   5.697  0.3677 -0.2688 -0.1838
 8545SOL    HW128589   6.959   3.582   5.714  0.4824 -0.1881 -0.9149
 8545SOL    HW228590   6.940   3.432   5.707  0.7452 -0.2045 -1.2932
 8546SOL     OW28591   1.295   4.073   3.086 -0.0666  0.6306  0.9497
 8546SOL    HW128592   1.218   4.058   3.031  1.0579 -0.0903 -0.4875
 8546SOL    HW228593   1.262   4.123   3.161 -2.5580 -2.2902  1.9824
 8547SOL     OW28594   2.511   7.324   5.416  0.4555  0.1435 -0.2293
 8547SOL    HW128595   2.459   7.365   5.485 -1.3653 -2.7006  0.2390
 8547SOL    HW228596   2.595   7.304   5.457  0.5096  1.1953  0.2042
 8548SOL     OW28597   7.239   0.271   4.590  0.1761  0.3429 -0.2252
 8548SOL    HW128598   7.158   0.293   4.544  0.4410 -2.1644 -2.0329
 8548SOL    HW228599   7.305   0.329   4.551 -0.1552  0.2476 -0.9331
 8549SOL     OW28600   4.370   4.715   4.391  0.3186  0.0395  0.0673
 8549SOL    HW128601   4.459   4.714   4.355  0.9784 -2.7094  1.5148
 8549SOL    HW228602   4.362   4.631   4.436 -2.8702  0.4252  0.3961
 8550SOL     OW28603   0.993   7.201   2.996 -0.2559 -0.0732  0.2849
 8550SOL    HW128604   1.071   7.214   3.049  0.8688 -1.0615 -1.0433
 8550SOL    HW228605   1.002   7.262   2.923 -1.2481  0.5302  0.6535
 8551SOL     OW28606   2.543   3.404   4.963  0.0140  0.2659 -0.4619
 8551SOL    HW128607   2.503   3.372   4.882 -1.2810  1.8650 -0.5209
 8551SOL    HW228608   2.631   3.368   4.963  0.2610  0.6990 -2.9040
 8552SOL     OW28609   3.108   5.195   4.730  0.3128  0.6095 -0.0785
 8552SOL    HW128610   3.162   5.263   4.691  0.5996  0.5024  0.1281
 8552SOL    HW228611   3.169   5.142   4.781 -0.3932  2.4136  2.9329
 8553SOL     OW28612   2.853   7.924   4.647  0.3775 -0.0617  0.0147
 8553SOL    HW128613   2.894   7.967   4.572 -0.2832  1.3448  0.4333
 8553SOL    HW228614   2.898   7.839   4.653  0.3704 -0.2699 -2.0171
 8554SOL     OW28615   0.517   7.187   7.960  0.1798  0.6817 -0.0274
 8554SOL    HW128616   0.452   7.120   7.938 -0.2553  0.9234  0.4853
 8554SOL    HW228617   0.464   7.263   7.986  0.6733  0.8195  0.5744
 8555SOL     OW28618   2.749   4.422   6.545 -0.6392  0.3719 -0.2443
 8555SOL    HW128619   2.694   4.483   6.595 -0.7137  0.5506 -0.5397
 8555SOL    HW228620   2.729   4.442   6.454 -0.1320  0.3857 -0.3519
 8556SOL     OW28621   3.861   0.704   4.523  0.0313  0.6736  0.3674
 8556SOL    HW128622   3.815   0.764   4.582  0.7074  0.7977  0.7943
 8556SOL    HW228623   3.849   0.618   4.563  0.0451  0.6872  0.4014
 8557SOL     OW28624   7.290   0.245   5.890 -0.5896  0.3380  0.6128
 8557SOL    HW128625   7.314   0.279   5.804 -0.4377 -0.6516  0.2548
 8557SOL    HW228626   7.209   0.198   5.875  0.8654 -2.2599  0.4070
 8558SOL     OW28627   6.798   5.427   5.598  0.3966  0.6084 -0.8674
 8558SOL    HW128628   6.726   5.400   5.541  0.2857  1.1698 -0.9912
 8558SOL    HW228629   6.858   5.352   5.596  0.0908  0.3660 -1.2153
 8559SOL     OW28630   2.037   6.161   3.877  0.4221  0.2835 -0.3449
 8559SOL    HW128631   2.033   6.257   3.872 -0.4095  0.2555 -0.3288
 8559SOL    HW228632   2.053   6.133   3.787  0.9504  0.4445 -0.3068
 8560SOL     OW28633   1.805   3.501   5.267 -0.3612  0.1979 -0.2501
 8560SOL    HW128634   1.721   3.455   5.277 -0.2960  0.1112 -0.0995
 8560SOL    HW228635   1.843   3.500   5.355 -0.0118 -0.1338 -0.4049
 8561SOL     OW28636   7.675   2.254   5.793 -0.2084 -0.0718  0.3834
 8561SOL    HW128637   7.716   2.287   5.713  1.3480 -1.8898  0.3467
 8561SOL    HW228638   7.655   2.162   5.774  0.6991 -0.7009  2.2314
 8562SOL     OW28639   4.084   8.107   1.336  0.0131 -0.5661  0.3948
 8562SOL    HW128640   4.091   8.012   1.347 -1.1103 -0.6481  0.5350
 8562SOL    HW228641   4.011   8.118   1.275 -0.9919  0.2395  1.6895
 8563SOL     OW28642   5.174   5.161   1.054 -0.0413  0.3450  0.2769
 8563SOL    HW128643   5.117   5.227   1.094  0.7344  1.7317 -0.8113
 8563SOL    HW228644   5.234   5.136   1.124 -1.5192 -0.6812  1.2624
 8564SOL     OW28645   3.002   7.630   5.693 -0.2697  0.1573  0.3165
 8564SOL    HW128646   2.975   7.713   5.654 -1.8798  0.6035  2.1898
 8564SOL    HW228647   2.961   7.630   5.780 -0.6477 -2.7517  0.2516
 8565SOL     OW28648   5.524   7.597   2.914 -0.3920  0.1356  0.1359
 8565SOL    HW128649   5.489   7.685   2.932  0.6458  0.3429  1.2855
 8565SOL    HW228650   5.527   7.555   3.000  1.4724 -0.1255 -0.0212
 8566SOL     OW28651   6.166   0.848   6.000 -0.5068  0.2233  0.1648
 8566SOL    HW128652   6.080   0.823   6.034  0.5937 -0.1302  2.9063
 8566SOL    HW228653   6.200   0.767   5.961 -1.0155  0.1377 -0.1216
 8567SOL     OW28654   5.799   1.188   4.142  0.4996 -0.2539  0.1274
 8567SOL    HW128655   5.872   1.223   4.091  0.6167 -0.4913  0.1287
 8567SOL    HW228656   5.838   1.165   4.226 -0.1021  2.1112  1.1288
 8568SOL     OW28657   6.878   7.601   6.777  0.7589  0.5786 -1.0490
 8568SOL    HW128658   6.916   7.596   6.689 -0.1161  1.7354 -1.5187
 8568SOL    HW228659   6.855   7.693   6.788  0.5294  0.3843  0.2652
 8569SOL     OW28660   4.717   6.471   5.118  0.1897  0.1615  0.5443
 8569SOL    HW128661   4.649   6.406   5.098  1.0139 -0.8251  0.8369
 8569SOL    HW228662   4.728   6.465   5.213  0.3298  0.6844  0.5642
 8570SOL     OW28663   4.697   4.357   1.944  0.0817 -0.2566  0.4341
 8570SOL    HW128664   4.620   4.395   1.988  2.3048  1.2541  3.3922
 8570SOL    HW228665   4.677   4.264   1.937 -2.7991  0.3456 -0.8032
 8571SOL     OW28666   6.927   6.101   3.588 -0.0317 -0.1471  0.5281
 8571SOL    HW128667   7.018   6.075   3.576  0.8650  1.1714  3.5713
 8571SOL    HW228668   6.926   6.195   3.570 -0.8423 -0.1885  0.3097
 8572SOL     OW28669   3.521   7.036   1.161  0.6834 -0.0791 -0.1353
 8572SOL    HW128670   3.542   7.012   1.251 -1.7104  1.5312  0.9779
 8572SOL    HW228671   3.455   6.972   1.134 -0.6686  1.0264  0.3656
 8573SOL     OW28672   2.709   1.134   2.731 -0.3223 -0.2094  0.4298
 8573SOL    HW128673   2.782   1.192   2.752  0.8477 -0.9226 -1.4588
 8573SOL    HW228674   2.717   1.118   2.637 -1.1434 -2.6804  0.7139
 8574SOL     OW28675   1.113   5.015   0.924 -0.1463 -0.2505  0.3819
 8574SOL    HW128676   1.077   5.078   0.986  1.3094 -0.9962  2.0653
 8574SOL    HW228677   1.172   5.065   0.869 -1.5011  0.4335 -0.5071
 8575SOL     OW28678   0.169   7.675   5.783  0.3394 -0.5929 -0.1043
 8575SOL    HW128679   0.093   7.633   5.741  1.0353 -3.1803  1.0124
 8575SOL    HW228680   0.240   7.613   5.769  1.8532  0.9701  0.3980
 8576SOL     OW28681   3.253   5.827   5.076 -0.3603 -0.3431 -0.6015
 8576SOL    HW128682   3.293   5.746   5.107 -0.8661 -0.3075  0.1766
 8576SOL    HW228683   3.185   5.847   5.141  0.1324  1.0031 -0.4749
 8577SOL     OW28684   5.951   3.971   5.299  0.4842 -0.3546 -0.1283
 8577SOL    HW128685   5.877   4.024   5.331  0.1178 -1.0768  0.2362
 8577SOL    HW228686   6.002   4.032   5.246 -1.3678 -0.2860 -1.9551
 8578SOL     OW28687   0.303   7.486   1.156  0.1788  0.3873  0.2237
 8578SOL    HW128688   0.350   7.531   1.086  2.7771 -1.7354  0.4546
 8578SOL    HW228689   0.343   7.518   1.237 -0.2592  0.1349  0.5430
 8579SOL     OW28690   0.025   5.666   3.726 -0.6357 -0.3926  1.1916
 8579SOL    HW128691   0.095   5.731   3.735  0.6486 -1.4847 -0.3993
 8579SOL    HW228692   0.034   5.610   3.803  0.7811 -0.9951  0.6116
 8580SOL     OW28693   2.877   6.259   0.288 -0.0029 -0.1658  0.1367
 8580SOL    HW128694   2.925   6.198   0.344  0.3546 -2.1010 -2.0819
 8580SOL    HW228695   2.785   6.243   0.308  0.1469  0.1079  1.0661
 8581SOL     OW28696   5.644   4.161   1.571  0.2524  0.3273 -0.2267
 8581SOL    HW128697   5.654   4.226   1.641 -2.2133  1.7702 -1.0877
 8581SOL    HW228698   5.595   4.207   1.503 -0.3318 -2.0451 -1.5157
 8582SOL     OW28699   7.735   1.629   6.458  0.0898  0.6351 -0.0469
 8582SOL    HW128700   7.798   1.701   6.456 -0.8869  1.5178 -0.0355
 8582SOL    HW228701   7.659   1.663   6.411 -0.3473 -0.4383 -0.1314
 8583SOL     OW28702   4.903   7.680   1.575  0.2741  0.7171  0.2267
 8583SOL    HW128703   4.870   7.721   1.655  2.0155 -0.1805  1.4705
 8583SOL    HW228704   4.868   7.592   1.576  0.5087  0.6219  0.1318
 8584SOL     OW28705   3.135   7.624   4.649  0.4116 -0.7311  0.0799
 8584SOL    HW128706   3.064   7.651   4.707 -1.1009  1.4393 -2.5376
 8584SOL    HW228707   3.207   7.603   4.708 -0.8105  1.8311  2.7683
 8585SOL     OW28708   7.478   2.210   7.363 -0.6383  0.3128 -0.0747
 8585SOL    HW128709   7.411   2.262   7.407 -1.5245 -1.8364  1.2352
 8585SOL    HW228710   7.461   2.120   7.389  0.1095 -0.8695 -3.1491
 8586SOL     OW28711   1.073   5.213   6.061  0.3132 -0.6338  0.0123
 8586SOL    HW128712   1.080   5.141   5.998 -1.2069 -0.9398  0.1498
 8586SOL    HW228713   1.128   5.186   6.134  0.2498 -1.3839 -0.2066
 8587SOL     OW28714   5.292   5.810   5.322 -0.0353 -0.0702 -0.0171
 8587SOL    HW128715   5.325   5.897   5.348  0.0197 -0.2014  0.3590
 8587SOL    HW228716   5.257   5.823   5.234 -0.6802  0.5010  0.3129
 8588SOL     OW28717   5.260   1.334   6.999 -0.0003 -0.6177 -0.1281
 8588SOL    HW128718   5.317   1.407   6.976 -2.0597  0.5208 -2.0009
 8588SOL    HW228719   5.263   1.276   6.924 -0.3679 -1.1574  0.2675
 8589SOL     OW28720   6.804   7.941   0.178  0.5051 -0.4705 -0.1088
 8589SOL    HW128721   6.808   7.930   0.083  0.8244 -0.4422 -0.0993
 8589SOL    HW228722   6.793   8.035   0.190  3.0667 -0.1047 -0.0659
 8590SOL     OW28723   1.133   6.530   3.698 -0.4749  0.2342  0.5132
 8590SOL    HW128724   1.160   6.502   3.785  0.4196  0.1808  0.2249
 8590SOL    HW228725   1.210   6.572   3.660 -0.4380 -0.8639 -0.7292
 8591SOL     OW28726   2.399   0.046   4.245 -0.3563 -0.4201 -0.2310
 8591SOL    HW128727   2.472   0.083   4.294 -0.3774 -1.2610  0.4664
 8591SOL    HW228728   2.387   0.105   4.171  0.1022  0.5157  0.4226
 8592SOL     OW28729   7.765   6.423   1.422  0.8692  0.5052 -0.4824
 8592SOL    HW128730   7.788   6.332   1.404  1.1094  0.2893  0.8279
 8592SOL    HW228731   7.680   6.436   1.380 -0.8938 -1.3809  2.2202
 8593SOL     OW28732   3.308   4.338   7.208  0.0460 -0.2403  0.0575
 8593SOL    HW128733   3.277   4.388   7.284  0.7664 -0.8727  0.7833
 8593SOL    HW228734   3.291   4.247   7.231  0.6253 -0.4620 -0.3831
 8594SOL     OW28735   7.232   5.138   1.223  0.0782 -0.1423  0.0533
 8594SOL    HW128736   7.247   5.064   1.164  1.2923 -1.4670  1.9216
 8594SOL    HW228737   7.137   5.141   1.234 -0.0695 -0.6737 -0.9240
 8595SOL     OW28738   6.752   2.398   4.942  0.3012  0.9534  0.3186
 8595SOL    HW128739   6.690   2.339   4.900  0.5210 -0.2137  1.5848
 8595SOL    HW228740   6.822   2.409   4.877 -0.5628  1.2207 -0.5901
 8596SOL     OW28741   4.921   3.294   3.550  0.2993  0.4319  0.3778
 8596SOL    HW128742   4.892   3.371   3.500 -1.9970 -0.4788  0.2059
 8596SOL    HW228743   4.993   3.327   3.604  0.9074  2.1483 -1.3618
 8597SOL     OW28744   7.522   0.005   1.357  0.5607 -0.5818 -0.0506
 8597SOL    HW128745   7.602   0.058   1.365  0.1872  0.2083 -1.3013
 8597SOL    HW228746   7.454   0.068   1.334 -1.0323 -0.8017  3.3512
 8598SOL     OW28747   7.843   4.809   3.093 -0.1737  0.0242 -0.5444
 8598SOL    HW128748   7.873   4.729   3.049  1.1850 -0.5446  1.3035
 8598SOL    HW228749   7.854   4.791   3.186 -2.4570  1.3783  0.0648
 8599SOL     OW28750   4.179   3.060   2.842  0.4896 -0.3030 -0.0647
 8599SOL    HW128751   4.256   3.043   2.789  1.7478  1.1912  1.1684
 8599SOL    HW228752   4.110   3.081   2.779  1.3875 -0.5627 -1.1611
 8600SOL     OW28753   5.727   4.273   2.293 -0.3068 -0.0136  0.0455
 8600SOL    HW128754   5.783   4.206   2.254  0.7485 -0.0090  1.4909
 8600SOL    HW228755   5.671   4.225   2.354  0.2895  0.3716  0.9142
 8601SOL     OW28756   7.715   7.844   6.172 -0.0429 -0.0971 -0.2143
 8601SOL    HW128757   7.680   7.795   6.098 -0.5686 -0.4798  0.2733
 8601SOL    HW228758   7.695   7.936   6.152  1.8991  0.0532 -1.6347
 8602SOL     OW28759   1.931   0.251   3.036  0.0172  0.1250 -0.6627
 8602SOL    HW128760   1.858   0.222   3.089  0.8034  0.8271  0.8733
 8602SOL    HW228761   2.008   0.236   3.091  0.7962  1.5111 -1.3191
 8603SOL     OW28762   1.515   4.076   4.023 -0.1756 -0.3882  0.2447
 8603SOL    HW128763   1.471   4.000   3.984 -0.6824 -0.2475  0.5319
 8603SOL    HW228764   1.599   4.082   3.976 -1.4763  0.8441 -2.1386
 8604SOL     OW28765   2.637   1.143   3.017  0.0651  0.0062 -0.3390
 8604SOL    HW128766   2.650   1.108   2.929 -0.2766 -0.8226 -0.0727
 8604SOL    HW228767   2.630   1.065   3.073  0.9889  0.5210  0.5297
 8605SOL     OW28768   4.322   0.182   7.874 -0.1825  0.3073 -0.0411
 8605SOL    HW128769   4.298   0.129   7.798 -1.1058  1.0159 -0.2490
 8605SOL    HW228770   4.321   0.119   7.947  0.2803 -0.2836 -0.5272
 8606SOL     OW28771   5.910   7.430   4.145  0.2868 -0.3032 -0.3925
 8606SOL    HW128772   5.936   7.500   4.204 -0.0853 -0.4689 -0.0287
 8606SOL    HW228773   5.853   7.473   4.080 -0.6909 -0.4251  0.3620
 8607SOL     OW28774   1.743   7.564   3.528 -0.4830  0.1266 -0.1251
 8607SOL    HW128775   1.682   7.502   3.569 -2.6068  1.2535 -1.3978
 8607SOL    HW228776   1.793   7.511   3.466 -1.2847 -0.5729 -0.1904
 8608SOL     OW28777   6.028   5.908   2.588 -0.0282 -0.6490 -0.0790
 8608SOL    HW128778   6.069   5.979   2.538 -2.8047  1.4130  0.3174
 8608SOL    HW228779   5.978   5.859   2.523 -0.7118 -0.2238  0.1218
 8609SOL     OW28780   5.172   1.561   2.801  0.5352 -0.7909  0.1492
 8609SOL    HW128781   5.191   1.565   2.707  0.3951 -1.7420  0.0692
 8609SOL    HW228782   5.225   1.488   2.833  0.5500 -0.4953  0.8032
 8610SOL     OW28783   5.669   4.139   1.212  0.4893 -0.7057 -0.5023
 8610SOL    HW128784   5.642   4.058   1.254  1.0156 -0.6586 -0.0699
 8610SOL    HW228785   5.763   4.130   1.199  0.2727 -0.9507 -2.1857
 8611SOL     OW28786   2.082   0.610   7.403  0.7008 -0.1589 -0.1600
 8611SOL    HW128787   2.138   0.660   7.462  0.5902 -1.9337  1.5521
 8611SOL    HW228788   2.134   0.598   7.323  1.3345  1.2371  0.0269
 8612SOL     OW28789   5.928   2.983   5.932  0.5349 -0.2737  1.2849
 8612SOL    HW128790   6.018   3.014   5.926  1.1008 -1.9103  0.7973
 8612SOL    HW228791   5.885   3.018   5.854  0.7976  0.3171  1.3989
 8613SOL     OW28792   7.469   1.644   3.888  0.3338  0.1225  0.0152
 8613SOL    HW128793   7.471   1.576   3.955  2.5113  0.0534 -0.0344
 8613SOL    HW228794   7.467   1.726   3.937  1.8612  0.0710  0.2221
 8614SOL     OW28795   3.690   3.615   4.019 -0.6618  0.2520  0.0553
 8614SOL    HW128796   3.699   3.651   4.107 -0.3989  2.0974 -0.6768
 8614SOL    HW228797   3.603   3.576   4.017  0.1533 -1.8881  1.7915
 8615SOL     OW28798   2.890   5.391   2.213 -0.3653 -0.4315 -0.1369
 8615SOL    HW128799   2.922   5.446   2.141 -0.1615 -1.0259 -0.5143
 8615SOL    HW228800   2.947   5.411   2.287 -0.0083 -0.4613 -0.4024
 8616SOL     OW28801   3.513   1.733   4.393 -0.3307  0.5538  0.0442
 8616SOL    HW128802   3.589   1.676   4.384  0.4654  1.6314 -0.1631
 8616SOL    HW228803   3.534   1.790   4.467 -1.9368 -0.6492  1.5137
 8617SOL     OW28804   5.153   4.496   7.451 -0.4793 -0.1612 -0.5979
 8617SOL    HW128805   5.147   4.529   7.541 -0.1407 -2.5206  0.3423
 8617SOL    HW228806   5.083   4.541   7.405 -0.6843  1.0859  0.8378
 8618SOL     OW28807   4.309   7.840   1.851 -0.0567  0.0250  0.1739
 8618SOL    HW128808   4.332   7.838   1.943 -0.8718  0.6557  0.4032
 8618SOL    HW228809   4.359   7.768   1.812  0.5631 -0.0211  1.0314
 8619SOL     OW28810   7.618   5.335   5.205 -0.5326  0.0588  0.6337
 8619SOL    HW128811   7.547   5.291   5.253 -1.2467 -0.9528 -1.2401
 8619SOL    HW228812   7.685   5.267   5.194  0.0045  0.5340  0.9352
 8620SOL     OW28813   0.428   1.130   2.230 -0.6075  0.0567 -0.4483
 8620SOL    HW128814   0.402   1.222   2.236 -0.5404  0.0361  0.2538
 8620SOL    HW228815   0.521   1.133   2.208 -0.7667  0.1444 -1.1395
 8621SOL     OW28816   7.287   3.010   0.410  0.1810 -0.1515 -0.2707
 8621SOL    HW128817   7.282   2.986   0.318 -0.9820  1.4481 -0.6674
 8621SOL    HW228818   7.197   3.029   0.435  0.5075 -0.3707  1.1585
 8622SOL     OW28819   0.205   6.591   7.381  0.5319 -0.0199  0.1494
 8622SOL    HW128820   0.220   6.527   7.312 -1.8634  1.8344 -2.2607
 8622SOL    HW228821   0.151   6.545   7.446  0.2413 -0.9129 -0.7107
 8623SOL     OW28822   0.444   3.976   6.820  0.7035  0.3428 -0.3315
 8623SOL    HW128823   0.453   3.939   6.732  0.8272  0.2757 -0.2897
 8623SOL    HW228824   0.350   3.973   6.838  0.6170  0.8217 -0.6671
 8624SOL     OW28825   7.736   0.337   0.759  0.2137 -0.3773  0.1406
 8624SOL    HW128826   7.641   0.345   0.767  0.3231 -0.1413  1.4321
 8624SOL    HW228827   7.769   0.426   0.767  0.5323 -0.4242 -0.5958
 8625SOL     OW28828   7.830   4.210   2.669  0.0291  0.0674  0.3903
 8625SOL    HW128829   7.918   4.247   2.670 -0.0424  0.2456  0.1817
 8625SOL    HW228830   7.787   4.252   2.594 -0.7982  1.2541  1.5068
 8626SOL     OW28831   6.837   7.513   0.231 -0.0897 -0.4140 -0.1425
 8626SOL    HW128832   6.908   7.536   0.172 -0.0191  1.5824  0.6272
 8626SOL    HW228833   6.881   7.483   0.311  0.2420  3.9446  1.6329
 8627SOL     OW28834   0.857   0.277   2.179 -0.5865  0.3027  0.0704
 8627SOL    HW128835   0.897   0.280   2.092  0.6746 -0.2329  0.6007
 8627SOL    HW228836   0.855   0.368   2.208  0.5946  0.3213  0.1543
 8628SOL     OW28837   6.038   0.334   5.918  0.2219 -0.1393 -0.0014
 8628SOL    HW128838   5.990   0.310   5.838 -0.0567 -0.5946  0.2961
 8628SOL    HW228839   6.116   0.279   5.917  0.7126  0.5494 -0.4476
 8629SOL     OW28840   4.732   5.157   0.993  0.2521  0.6519  0.2804
 8629SOL    HW128841   4.716   5.193   1.080 -0.0145 -0.4063  0.6852
 8629SOL    HW228842   4.722   5.232   0.934  1.2882  1.5683  1.2263
 8630SOL     OW28843   6.431   5.467   3.788  0.0532  0.3121 -0.1508
 8630SOL    HW128844   6.393   5.539   3.837  0.3525  0.2897  0.1185
 8630SOL    HW228845   6.441   5.396   3.853  1.9323  0.8009  0.1697
 8631SOL     OW28846   3.368   5.606   3.251  0.2434  0.2868  0.5490
 8631SOL    HW128847   3.297   5.543   3.267  0.4323 -0.4660 -1.3016
 8631SOL    HW228848   3.445   5.552   3.237  0.5721  0.9624 -0.3026
 8632SOL     OW28849   3.087   1.434   3.415  0.1398  0.4121 -0.2943
 8632SOL    HW128850   3.047   1.505   3.466 -0.0352  0.5849 -0.6650
 8632SOL    HW228851   3.122   1.374   3.481 -1.7600 -0.3588  0.0793
 8633SOL     OW28852   7.269   3.906   0.385  0.0906 -0.6069  0.4371
 8633SOL    HW128853   7.272   3.981   0.326  1.2248 -0.8779  0.1321
 8633SOL    HW228854   7.196   3.853   0.354  0.2722 -0.4195 -0.3147
 8634SOL     OW28855   4.786   0.003   4.077  0.0363  0.2696  0.0236
 8634SOL    HW128856   4.746  -0.034   3.998  0.4617  0.4675 -0.2889
 8634SOL    HW228857   4.836   0.078   4.045  3.8636 -2.1372 -0.2254
 8635SOL     OW28858   1.787   1.513   3.522 -0.1769  0.3361 -0.3244
 8635SOL    HW128859   1.801   1.436   3.467 -1.7123  1.2698 -2.1440
 8635SOL    HW228860   1.861   1.514   3.582  0.0292 -2.3787 -0.4223
 8636SOL     OW28861   4.818   5.569   1.295 -0.7870  0.2757 -0.0105
 8636SOL    HW128862   4.772   5.572   1.211 -1.3242  1.4484  0.3028
 8636SOL    HW228863   4.751   5.588   1.360 -0.1974  0.2960  0.6078
 8637SOL     OW28864   2.331   3.196   0.228  0.1376  0.2592  0.1984
 8637SOL    HW128865   2.274   3.136   0.178  0.4951 -0.2763  0.4224
 8637SOL    HW228866   2.362   3.143   0.302  1.5684  0.3042 -0.3517
 8638SOL     OW28867   7.379   0.798   7.884 -0.1276  0.3708 -0.1468
 8638SOL    HW128868   7.455   0.751   7.848  0.9214  2.0625 -0.2710
 8638SOL    HW228869   7.326   0.730   7.925  0.2922 -1.1811 -2.0163
 8639SOL     OW28870   5.146   2.097   7.154 -0.4788 -0.5705 -0.0386
 8639SOL    HW128871   5.128   2.131   7.242 -1.7296 -0.4893 -0.3080
 8639SOL    HW228872   5.065   2.111   7.105  0.5678  0.4825 -1.5705
 8640SOL     OW28873   0.105   6.578   1.843 -0.8806 -0.1818  0.6526
 8640SOL    HW128874   0.074   6.533   1.764  1.0342 -1.0044  0.3069
 8640SOL    HW228875   0.123   6.667   1.812 -0.6692 -0.3460  0.2863
 8641SOL     OW28876   4.762   4.425   7.929 -0.2272  0.0340 -0.5559
 8641SOL    HW128877   4.800   4.485   7.994 -1.8846  0.5079  0.0360
 8641SOL    HW228878   4.728   4.483   7.861 -1.5039 -0.2081 -0.1644
 8642SOL     OW28879   5.478   6.818   7.646  0.2171  0.0421  0.7281
 8642SOL    HW128880   5.550   6.843   7.589 -0.2306 -2.8513 -1.3398
 8642SOL    HW228881   5.512   6.744   7.697 -0.7015 -0.1726  1.0557
 8643SOL     OW28882   7.468   3.323   5.974 -0.1936 -0.4088  0.4409
 8643SOL    HW128883   7.480   3.359   6.062 -0.5156 -0.2476  0.4216
 8643SOL    HW228884   7.531   3.251   5.969  0.8531  0.4986  0.2688
 8644SOL     OW28885   2.197   2.941   0.695  0.1954 -0.5370 -0.6384
 8644SOL    HW128886   2.173   2.850   0.711  0.0305 -0.2786  0.7315
 8644SOL    HW228887   2.142   2.968   0.622  0.6270 -1.6767 -1.4086
 8645SOL     OW28888   5.032   0.857   3.806 -0.0041  0.2072  0.0687
 8645SOL    HW128889   5.108   0.908   3.777  0.2640 -0.6499 -0.7922
 8645SOL    HW228890   5.051   0.767   3.779 -0.7588 -0.2472  0.9792
 8646SOL     OW28891   5.341   5.759   3.549 -0.1942  0.1522  0.6847
 8646SOL    HW128892   5.258   5.805   3.545  0.4235  1.2520  0.1750
 8646SOL    HW228893   5.368   5.749   3.458  1.4928  2.2163  0.8755
 8647SOL     OW28894   2.720   0.957   6.083  0.5729  0.2567 -0.4004
 8647SOL    HW128895   2.740   0.895   6.014  1.1677 -0.3166  0.2790
 8647SOL    HW228896   2.768   1.037   6.059  0.5002  0.1716 -0.8232
 8648SOL     OW28897   2.470   3.220   1.379  0.5737 -0.1918  0.1232
 8648SOL    HW128898   2.419   3.156   1.330  0.4016 -2.0298  2.5244
 8648SOL    HW228899   2.552   3.229   1.330 -1.3268  1.7843 -3.0395
 8649SOL     OW28900   6.416   0.979   6.260  0.0449  0.1213  0.1785
 8649SOL    HW128901   6.361   1.046   6.220 -0.3159 -0.9724 -1.2296
 8649SOL    HW228902   6.360   0.937   6.326  0.2887  1.1944  1.1008
 8650SOL     OW28903   0.574   2.732   6.298 -0.1085  0.3732  0.4748
 8650SOL    HW128904   0.544   2.677   6.226  1.5800 -1.3902  1.0289
 8650SOL    HW228905   0.622   2.803   6.257  2.3124 -1.5233 -0.2039
 8651SOL     OW28906   5.848   7.188   0.877 -0.2775 -0.3221 -0.1243
 8651SOL    HW128907   5.885   7.107   0.842  0.9585  0.8890 -1.8507
 8651SOL    HW228908   5.763   7.163   0.913 -0.0317 -2.3299 -0.8240
 8652SOL     OW28909   3.018   0.053   1.833  0.0524 -0.2767  0.1979
 8652SOL    HW128910   3.004   0.010   1.917 -0.4224  1.3072  0.9754
 8652SOL    HW228911   2.969   0.001   1.770 -2.4475  0.3600  1.4798
 8653SOL     OW28912   3.499   1.828   4.112  0.0450 -0.3148 -0.7560
 8653SOL    HW128913   3.440   1.759   4.141 -0.2698  0.5104  0.6464
 8653SOL    HW228914   3.447   1.908   4.116  0.7742  0.1877 -1.1167
 8654SOL     OW28915   5.696   0.517   7.153  0.4439 -0.1238  0.1349
 8654SOL    HW128916   5.669   0.580   7.220  0.9963  0.2378  0.0265
 8654SOL    HW228917   5.622   0.456   7.145 -0.1249  0.5539  0.1840
 8655SOL     OW28918   2.913   4.883   4.723  0.2946  0.1315 -0.4298
 8655SOL    HW128919   2.830   4.868   4.768 -0.4705  1.5457 -1.3220
 8655SOL    HW228920   2.965   4.935   4.785  0.9893 -1.6873  0.5827
 8656SOL     OW28921   2.493   8.026   6.433 -0.2618  0.0369 -0.8137
 8656SOL    HW128922   2.522   8.079   6.359  0.8243  0.4401 -0.1303
 8656SOL    HW228923   2.458   8.090   6.496 -1.5397 -0.3363 -1.1203
 8657SOL     OW28924   4.829   1.559   7.464  0.1201 -0.0055 -0.0403
 8657SOL    HW128925   4.924   1.561   7.475  0.3009  0.1407 -1.3762
 8657SOL    HW228926   4.814   1.496   7.394 -0.6400  0.9891 -0.8044
 8658SOL     OW28927   1.804   2.359   3.613  0.0622  0.2955 -0.4030
 8658SOL    HW128928   1.766   2.417   3.679  0.5431 -1.1974  1.2717
 8658SOL    HW228929   1.760   2.275   3.627  0.6210 -0.2204 -1.5944
 8659SOL     OW28930   0.370   7.064   5.033 -0.9567 -0.2884  0.6917
 8659SOL    HW128931   0.368   6.976   4.994 -0.8324  0.2877 -0.6621
 8659SOL    HW228932   0.367   7.048   5.127  1.4111 -1.8479  0.5812
 8660SOL     OW28933   3.216   0.774   4.209 -0.1417  0.2371  0.6385
 8660SOL    HW128934   3.205   0.850   4.267 -0.7197  0.7993 -0.1992
 8660SOL    HW228935   3.283   0.800   4.147 -0.7653  0.2898 -0.0226
 8661SOL     OW28936   5.329   1.247   1.745 -0.2522 -0.1879 -0.1821
 8661SOL    HW128937   5.382   1.209   1.815 -0.1340 -1.2765 -0.8344
 8661SOL    HW228938   5.243   1.262   1.785 -0.0891 -0.4824  0.2910
 8662SOL     OW28939   6.700   7.645   4.355 -0.2934  0.4200  0.5317
 8662SOL    HW128940   6.606   7.631   4.367 -0.3137  1.3542  1.6192
 8662SOL    HW228941   6.741   7.568   4.395 -0.5897 -0.5635 -0.9551
 8663SOL     OW28942   0.778   0.841   6.112 -0.3077 -0.4127 -0.1018
 8663SOL    HW128943   0.806   0.893   6.187 -1.8196 -0.1460  0.3037
 8663SOL    HW228944   0.714   0.896   6.067 -2.2355 -2.0061  0.5431
 8664SOL     OW28945   4.420   1.029   4.473  0.5922  0.1793  0.0053
 8664SOL    HW128946   4.452   0.982   4.396 -0.9231  0.6429 -0.9565
 8664SOL    HW228947   4.348   0.974   4.505 -0.1558  1.0181 -0.1925
 8665SOL     OW28948   4.629   1.607   0.355 -0.1274  0.4141  0.0899
 8665SOL    HW128949   4.678   1.681   0.390 -1.6087  1.6093 -0.2237
 8665SOL    HW228950   4.562   1.589   0.422  0.2244 -0.6660  0.1700
 8666SOL     OW28951   0.228   7.006   6.546 -0.2190  0.7040  0.3662
 8666SOL    HW128952   0.176   7.078   6.512 -0.8972 -1.3126 -3.4627
 8666SOL    HW228953   0.295   6.992   6.480  0.6548 -1.3964  1.5909
 8667SOL     OW28954   5.089   7.329   6.169  0.1748 -0.0740  0.0356
 8667SOL    HW128955   5.005   7.314   6.125 -0.5772  0.0297  1.3527
 8667SOL    HW228956   5.088   7.422   6.191 -0.3181 -0.4566  1.8341
 8668SOL     OW28957   7.876   1.993   7.161 -0.5167 -0.3977  0.2259
 8668SOL    HW128958   7.933   2.067   7.181 -1.6686  0.7480 -0.6184
 8668SOL    HW228959   7.896   1.971   7.070  2.2190 -3.3668  1.3299
 8669SOL     OW28960   4.722   2.279   0.755  0.3497  0.1539 -0.2702
 8669SOL    HW128961   4.627   2.292   0.752 -0.1148 -2.4756  0.4955
 8669SOL    HW228962   4.748   2.308   0.843  0.3137  1.0749 -0.5549
 8670SOL     OW28963   7.904   1.473   4.985 -0.2612  0.0165  0.4015
 8670SOL    HW128964   7.810   1.456   4.995 -0.4352  0.5810 -0.2278
 8670SOL    HW228965   7.946   1.405   5.038 -1.0585  1.2567  2.7864
 8671SOL     OW28966   0.057   1.046   5.616  0.4652 -0.0391 -0.0882
 8671SOL    HW128967   0.094   1.033   5.704  2.5936  0.1690 -0.8902
 8671SOL    HW228968  -0.002   0.973   5.603  1.3823 -0.9927  0.9062
 8672SOL     OW28969   5.261   5.565   6.190  0.6067  0.3867  0.0224
 8672SOL    HW128970   5.344   5.519   6.204  1.5142  0.1829 -4.3223
 8672SOL    HW228971   5.202   5.499   6.154  0.8387  1.7042 -3.1264
 8673SOL     OW28972   4.309   4.743   1.460 -0.1311 -0.0057 -0.1267
 8673SOL    HW128973   4.370   4.681   1.419  0.9306  0.3515  0.8520
 8673SOL    HW228974   4.306   4.717   1.552 -0.3417  0.8523  0.1186
 8674SOL     OW28975   5.025   0.439   7.196 -0.5925 -0.3480 -0.5403
 8674SOL    HW128976   4.954   0.501   7.185 -1.0739 -0.4806  1.4864
 8674SOL    HW228977   5.091   0.486   7.248 -0.2278 -0.9755 -0.4199
 8675SOL     OW28978   6.109   1.562   1.091  0.4008  0.1487  0.5418
 8675SOL    HW128979   6.154   1.575   1.007  1.3333 -1.6271  0.7207
 8675SOL    HW228980   6.030   1.615   1.083  0.4678  0.0550 -1.4514
 8676SOL     OW28981   3.604   5.955   7.202  0.5789  0.1142  0.2368
 8676SOL    HW128982   3.545   5.894   7.158  1.2617 -1.5276  1.4944
 8676SOL    HW228983   3.599   5.931   7.294  3.6234 -0.5725  0.3441
 8677SOL     OW28984   1.140   7.322   4.833 -0.6679  0.0770  0.1304
 8677SOL    HW128985   1.096   7.238   4.845  0.4090 -0.5539 -0.1505
 8677SOL    HW228986   1.206   7.305   4.765 -1.2134  1.4583 -0.7878
 8678SOL     OW28987   8.079   6.698   7.684  0.8530 -0.0017 -0.2985
 8678SOL    HW128988   8.170   6.723   7.702  0.8066 -1.1980  1.9569
 8678SOL    HW228989   8.027   6.750   7.745  0.2609 -1.0624  0.1321
 8679SOL     OW28990   6.934   1.504   3.864  0.2185 -0.2503 -0.0071
 8679SOL    HW128991   7.008   1.449   3.838  1.0292  1.0111 -0.4178
 8679SOL    HW228992   6.968   1.558   3.935 -0.9253 -1.0810  1.2304
 8680SOL     OW28993   0.512   1.166   7.731 -0.3720 -0.6167 -0.0864
 8680SOL    HW128994   0.584   1.103   7.725  0.0226 -0.1179 -0.6870
 8680SOL    HW228995   0.456   1.145   7.656 -0.0743 -0.0655 -0.4731
 8681SOL     OW28996   7.342   1.185   1.091 -0.0033 -0.4724  0.0411
 8681SOL    HW128997   7.279   1.116   1.071 -0.1065 -0.2053 -0.5614
 8681SOL    HW228998   7.394   1.195   1.011  0.6366 -0.5077  0.4411
 8682SOL     OW28999   3.801   0.091   1.631  0.2526  0.4098 -0.1383
 8682SOL    HW129000   3.827   0.122   1.717  0.1410  4.5522 -1.3708
 8682SOL    HW229001   3.705   0.096   1.631  0.1673 -0.8382 -0.1547
 8683SOL     OW29002   6.135   0.044   6.900  0.2177 -0.3078 -0.2648
 8683SOL    HW129003   6.185  -0.017   6.845  0.8554  0.3583 -0.4407
 8683SOL    HW229004   6.135   0.126   6.852  0.3542  0.1493  0.4955
 8684SOL     OW29005   4.270   3.476   0.140 -0.5008  0.2587  0.1447
 8684SOL    HW129006   4.341   3.538   0.126  0.5247 -0.8695  0.2377
 8684SOL    HW229007   4.312   3.391   0.145 -1.8520 -0.4357  0.2989
 8685SOL     OW29008   2.444   7.348   7.497  0.2471 -0.3559  0.2228
 8685SOL    HW129009   2.485   7.380   7.578  0.6590  2.2530 -0.9226
 8685SOL    HW229010   2.369   7.297   7.528  0.5131  0.3781  2.2730
 8686SOL     OW29011   0.209   5.912   5.392  0.0719  0.2669 -0.2514
 8686SOL    HW129012   0.291   5.864   5.404 -0.8043 -1.2083  0.0626
 8686SOL    HW229013   0.141   5.852   5.423 -1.0815  1.7206  0.1428
 8687SOL     OW29014   2.804   5.490   3.805 -0.4065  0.1226  0.2829
 8687SOL    HW129015   2.885   5.501   3.855  0.1593  0.1542 -0.6297
 8687SOL    HW229016   2.735   5.524   3.863  0.1649 -0.3329  1.2521
 8688SOL     OW29017   1.078   1.969   2.204 -0.3966  0.0380 -0.3460
 8688SOL    HW129018   1.002   1.963   2.263  1.1344 -2.9306  1.6002
 8688SOL    HW229019   1.078   1.886   2.157  0.5086  0.8530 -1.8509
 8689SOL     OW29020   6.278   4.321   5.006 -0.5436 -0.2544 -0.3038
 8689SOL    HW129021   6.189   4.357   5.001 -0.8163 -0.8057  0.3908
 8689SOL    HW229022   6.331   4.381   4.954 -0.8318  1.5769  1.4140
 8690SOL     OW29023   6.995   2.990   3.244 -0.9917  0.5856  0.0767
 8690SOL    HW129024   7.055   3.064   3.239 -1.8609  1.2828 -0.4564
 8690SOL    HW229025   6.914   3.027   3.278 -1.8014  0.1289 -1.2478
 8691SOL     OW29026   6.558   3.999   1.214 -0.0072 -0.2106  0.2943
 8691SOL    HW129027   6.634   3.967   1.166 -1.2031 -0.6229 -1.4305
 8691SOL    HW229028   6.499   3.924   1.218 -0.2077  0.0006  1.9261
 8692SOL     OW29029   2.627   1.889   1.526  0.7353 -0.1996  0.4975
 8692SOL    HW129030   2.673   1.838   1.459  1.5934  1.1621  0.0000
 8692SOL    HW229031   2.696   1.936   1.572 -0.1230  3.0108 -1.1887
 8693SOL     OW29032   5.583   3.752   3.268 -0.2643  0.2725 -0.0169
 8693SOL    HW129033   5.629   3.829   3.233 -0.1340 -0.6542 -2.0890
 8693SOL    HW229034   5.499   3.786   3.299  0.3023  1.4346  0.3090
 8694SOL     OW29035   5.800   0.082   1.385  0.0559  0.0899 -0.4512
 8694SOL    HW129036   5.817   0.133   1.463  1.0931  0.6295 -1.0100
 8694SOL    HW229037   5.725   0.027   1.408  1.1066 -0.6946  1.3547
 8695SOL     OW29038   4.816   6.472   5.824 -0.0880 -0.3977  0.5432
 8695SOL    HW129039   4.910   6.483   5.838  0.1459 -1.2758 -0.1941
 8695SOL    HW229040   4.806   6.380   5.799 -0.9916 -0.0209 -0.5664
 8696SOL     OW29041   1.578   7.850   2.044  0.2549  0.3981 -0.4225
 8696SOL    HW129042   1.498   7.867   1.993 -0.1587  0.3351  0.1971
 8696SOL    HW229043   1.551   7.862   2.135  0.6072 -0.9825 -0.1188
 8697SOL     OW29044   7.663   2.013   4.076 -0.3389 -0.1047 -0.2059
 8697SOL    HW129045   7.724   1.941   4.064 -0.5273 -0.2632 -0.2038
 8697SOL    HW229046   7.648   2.016   4.171  1.2288  1.2106  0.0576
 8698SOL     OW29047   3.071   6.358   4.368  0.0725 -0.0924  0.2946
 8698SOL    HW129048   3.161   6.338   4.341  0.2723  0.0324  0.8576
 8698SOL    HW229049   3.050   6.292   4.434 -0.2639 -0.1475  0.1334
 8699SOL     OW29050   2.028   2.405   7.860 -0.0887  0.1314  0.1094
 8699SOL    HW129051   2.088   2.362   7.921  0.1538  0.0778 -0.1589
 8699SOL    HW229052   2.086   2.460   7.806 -0.0728 -1.0457 -1.1263
 8700SOL     OW29053   3.186   5.199   4.451 -0.5968 -0.1890  0.3822
 8700SOL    HW129054   3.162   5.108   4.469 -0.6331 -0.4791 -1.0125
 8700SOL    HW229055   3.181   5.207   4.356  2.8116  0.2842  0.0993
 8701SOL     OW29056   2.244   6.713   0.305  0.0930  0.8646  0.7813
 8701SOL    HW129057   2.296   6.747   0.232  0.7453 -0.1375  0.7569
 8701SOL    HW229058   2.253   6.618   0.298 -1.8328  0.6295  0.7074
 8702SOL     OW29059   4.081   4.627   1.923 -1.1889  0.0073 -0.4859
 8702SOL    HW129060   3.990   4.601   1.911 -0.4083 -2.7933 -1.0184
 8702SOL    HW229061   4.132   4.557   1.883  1.2358  1.4748 -0.1970
 8703SOL     OW29062   3.121   1.599   0.772  1.2440 -0.5194 -0.1358
 8703SOL    HW129063   3.045   1.617   0.716 -0.5700  1.6355  2.7185
 8703SOL    HW229064   3.112   1.506   0.795 -1.5753 -0.0091  1.3488
 8704SOL     OW29065   4.357   7.861   7.805  0.5475  0.6281 -0.4831
 8704SOL    HW129066   4.386   7.952   7.808  0.9635  0.4774  0.6300
 8704SOL    HW229067   4.377   7.832   7.717  1.9779  1.1274 -0.3482
 8705SOL     OW29068   0.027   7.607   1.879 -0.2834  0.2521  0.1368
 8705SOL    HW129069  -0.031   7.622   1.954 -2.4163 -1.4218 -1.0732
 8705SOL    HW229070   0.072   7.526   1.900 -1.9172 -0.9825 -0.9128
 8706SOL     OW29071   6.219   5.252   0.112 -0.0731  0.1928  0.0860
 8706SOL    HW129072   6.222   5.347   0.125 -1.6165  0.5471 -1.6144
 8706SOL    HW229073   6.128   5.228   0.133 -0.0765 -0.6545 -0.8133
 8707SOL     OW29074   5.095   6.371   5.866 -0.1282 -0.2926 -0.1402
 8707SOL    HW129075   5.190   6.378   5.861 -0.0631 -0.8871  0.0999
 8707SOL    HW229076   5.079   6.279   5.888 -0.7482 -0.1445  0.0608
 8708SOL     OW29077   2.943   5.503   2.823 -0.0050  0.1951 -0.2740
 8708SOL    HW129078   3.038   5.507   2.831 -0.0990  0.4846  0.7423
 8708SOL    HW229079   2.923   5.409   2.827  0.3535 -0.0187 -2.2080
 8709SOL     OW29080   2.552   5.908   5.211  0.2883  0.1122  0.2403
 8709SOL    HW129081   2.471   5.931   5.166  0.2425 -1.1207 -0.3367
 8709SOL    HW229082   2.621   5.931   5.149  0.4586  1.8647  1.0215
 8710SOL     OW29083   2.191   0.393   2.384 -0.3603 -0.5840  0.0087
 8710SOL    HW129084   2.185   0.477   2.339 -1.4970 -0.8288 -0.3326
 8710SOL    HW229085   2.128   0.399   2.455 -0.7083 -1.2674 -0.2303
 8711SOL     OW29086   6.160   6.058   5.826  0.0344 -0.2342 -0.0307
 8711SOL    HW129087   6.206   6.141   5.843 -1.4171  0.9858 -1.7053
 8711SOL    HW229088   6.068   6.083   5.820 -0.7365 -2.3603  1.6304
 8712SOL     OW29089   0.485   6.169   5.437  0.4324  0.0669  0.4354
 8712SOL    HW129090   0.408   6.221   5.415  2.1801  3.0690  0.8829
 8712SOL    HW229091   0.465   6.132   5.523 -1.1079 -0.6229 -0.1738
 8713SOL     OW29092   1.070   3.589   1.725  0.0744  0.8545 -0.1035
 8713SOL    HW129093   1.003   3.551   1.781 -0.4554  2.2245  0.2382
 8713SOL    HW229094   1.046   3.562   1.636 -1.2092  1.6845 -0.0383
 8714SOL     OW29095   6.868   5.334   0.347  0.0209 -0.7811  0.3033
 8714SOL    HW129096   6.802   5.394   0.312  0.4624 -0.3046  0.2724
 8714SOL    HW229097   6.919   5.388   0.408 -1.0014 -1.7020  2.0409
 8715SOL     OW29098   1.913   6.799   0.227  0.2553 -0.5071  0.0614
 8715SOL    HW129099   1.963   6.720   0.206 -0.9794 -1.2493 -0.1667
 8715SOL    HW229100   1.908   6.846   0.144  1.6937  0.2584  0.3685
 8716SOL     OW29101   2.089   6.723   1.386 -0.4308 -0.5048  0.1824
 8716SOL    HW129102   2.130   6.800   1.427 -0.5187 -0.2292 -0.2389
 8716SOL    HW229103   2.107   6.734   1.293  0.0673 -1.3022  0.1702
 8717SOL     OW29104   6.481   6.225   2.930  0.3062  0.1282  0.4274
 8717SOL    HW129105   6.450   6.195   2.844 -0.8971  1.9527  0.1772
 8717SOL    HW229106   6.405   6.216   2.987  0.9517 -0.5688  1.2129
 8718SOL     OW29107   1.135   4.952   5.055  0.5773  0.0623 -0.2078
 8718SOL    HW129108   1.125   5.041   5.021 -0.1966  0.4535  0.9713
 8718SOL    HW229109   1.219   4.953   5.100  1.2234 -0.2235 -1.3732
 8719SOL     OW29110   4.254   2.337   3.713  0.2747  0.4235 -0.2000
 8719SOL    HW129111   4.219   2.397   3.779 -2.8003  0.1853 -1.4442
 8719SOL    HW229112   4.253   2.251   3.755 -0.0185  0.5315  0.0173
 8720SOL     OW29113   6.847   0.170   0.576  0.0223  0.0419 -0.2988
 8720SOL    HW129114   6.855   0.111   0.650  0.5720 -0.1218 -0.4833
 8720SOL    HW229115   6.926   0.224   0.580 -0.5354  0.8661 -0.0501
 8721SOL     OW29116   0.747   6.522   6.413 -0.1763  0.4259 -0.0358
 8721SOL    HW129117   0.699   6.603   6.427 -0.8093  0.3429 -1.5597
 8721SOL    HW229118   0.803   6.539   6.338  0.3193 -0.2812  0.1561
 8722SOL     OW29119   2.098   7.438   4.230 -0.2667 -0.0479 -0.0858
 8722SOL    HW129120   2.080   7.345   4.219  1.8403 -0.3441 -1.8335
 8722SOL    HW229121   2.029   7.470   4.287 -0.6284 -2.8189  1.1560
 8723SOL     OW29122   2.620   1.535   6.878  0.8934  0.0302  0.4523
 8723SOL    HW129123   2.686   1.468   6.858  0.3609 -0.3294 -0.1130
 8723SOL    HW229124   2.649   1.572   6.961  0.9104 -1.2743  1.0517
 8724SOL     OW29125   3.354   3.785   6.996 -0.2145 -0.0918 -0.2893
 8724SOL    HW129126   3.428   3.787   6.936 -0.4026 -0.4163 -0.5305
 8724SOL    HW229127   3.377   3.718   7.060  0.9050  1.5940  1.1967
 8725SOL     OW29128   4.557   6.175   1.049  0.0604  0.4235  0.2791
 8725SOL    HW129129   4.585   6.179   0.957  1.3287 -0.1427  0.6229
 8725SOL    HW229130   4.559   6.266   1.078 -0.0425  0.5698 -0.1605
 8726SOL     OW29131   5.976   4.049   2.918 -1.1468  0.2074 -0.2256
 8726SOL    HW129132   5.892   4.006   2.933 -0.4113 -2.3254 -2.5685
 8726SOL    HW229133   5.971   4.081   2.828  0.0931  0.7917 -0.1144
 8727SOL     OW29134   1.961   6.504   4.985 -0.6149  0.3213 -0.5098
 8727SOL    HW129135   2.031   6.565   5.009  0.8295 -0.9176 -1.4034
 8727SOL    HW229136   1.908   6.496   5.065  0.8693  0.5085  0.5426
 8728SOL     OW29137   0.173   5.702   1.393  0.4213  0.1023 -0.1569
 8728SOL    HW129138   0.128   5.622   1.422  1.6840 -0.2467  0.9232
 8728SOL    HW229139   0.129   5.726   1.312 -1.6460 -0.2734  0.7890
 8729SOL     OW29140   7.658   0.680   4.956  0.1820 -0.1351 -0.2988
 8729SOL    HW129141   7.694   0.604   4.910 -0.0170  0.2219 -1.0576
 8729SOL    HW229142   7.733   0.735   4.975  0.2202 -0.1094 -0.5247
 8730SOL     OW29143   2.224   1.108   5.269 -0.4993  0.3566 -0.0555
 8730SOL    HW129144   2.163   1.098   5.342 -1.3445 -2.1590 -0.9989
 8730SOL    HW229145   2.170   1.144   5.198 -0.3627  0.2072 -0.2379
 8731SOL     OW29146   1.332   6.859   0.673 -0.3421 -0.0672 -0.4627
 8731SOL    HW129147   1.250   6.848   0.723 -0.1458  1.9460  0.3707
 8731SOL    HW229148   1.317   6.810   0.592 -2.1383 -0.2391 -0.0697
 8732SOL     OW29149   1.316   1.816   2.472  0.3469  0.2407  0.4133
 8732SOL    HW129150   1.380   1.797   2.404  1.4912  1.2738  1.1613
 8732SOL    HW229151   1.368   1.828   2.551 -0.7172  1.4812  0.9605
 8733SOL     OW29152   3.882   6.258   1.015  0.2040 -0.3848 -0.3427
 8733SOL    HW129153   3.919   6.276   0.929  1.0903 -2.9151 -0.5734
 8733SOL    HW229154   3.957   6.261   1.074 -0.2302  0.2892  0.1919
 8734SOL     OW29155   2.251   7.696   7.309 -0.4204 -0.4387 -0.7999
 8734SOL    HW129156   2.291   7.696   7.396 -1.8651 -0.5507 -0.1102
 8734SOL    HW229157   2.291   7.621   7.265 -1.2438 -1.7425  0.5496
 8735SOL     OW29158   4.675   7.785   5.954  0.0046  0.1815 -0.6360
 8735SOL    HW129159   4.585   7.798   5.982  0.5658 -0.9548  1.9449
 8735SOL    HW229160   4.709   7.874   5.942 -0.6512  0.7348  1.2538
 8736SOL     OW29161   7.386   1.114   3.018 -0.5394  0.2030 -0.3712
 8736SOL    HW129162   7.396   1.038   3.076 -0.8021 -0.3535 -1.0333
 8736SOL    HW229163   7.476   1.137   2.994 -0.5009 -0.6089 -1.0445
 8737SOL     OW29164   3.434   7.226   1.415  0.3316 -0.4365  0.1296
 8737SOL    HW129165   3.449   7.132   1.413  0.6853 -0.4053  0.8139
 8737SOL    HW229166   3.522   7.264   1.424  0.2488 -0.0108 -0.7426
 8738SOL     OW29167   2.962   8.135   6.208  0.6209 -0.2875 -0.5047
 8738SOL    HW129168   3.010   8.216   6.223  1.6593 -0.3108 -3.1587
 8738SOL    HW229169   3.029   8.067   6.204  0.2621 -0.5891 -2.5620
 8739SOL     OW29170   5.248   5.862   2.683  0.4395  0.0856 -0.5000
 8739SOL    HW129171   5.262   5.939   2.737  1.9973  0.6128 -1.5705
 8739SOL    HW229172   5.194   5.893   2.610 -0.1665 -0.1976 -0.1771
 8740SOL     OW29173   1.217   7.673   7.206 -0.5041  0.1245  0.2330
 8740SOL    HW129174   1.308   7.669   7.236 -0.4353  2.7376  0.5905
 8740SOL    HW229175   1.184   7.756   7.240 -2.5137  0.0474 -1.3438
 8741SOL     OW29176   5.725   6.026   4.323  0.2990 -0.2319 -0.5990
 8741SOL    HW129177   5.698   5.934   4.326 -2.4469  0.4978  0.5488
 8741SOL    HW229178   5.805   6.029   4.375  1.0109 -2.1022 -1.5026
 8742SOL     OW29179   7.687   4.527   6.456  0.0654 -0.2621  0.4440
 8742SOL    HW129180   7.746   4.600   6.437  1.6675 -1.6676 -0.1929
 8742SOL    HW229181   7.606   4.569   6.486  0.8676  1.7674 -0.0772
 8743SOL     OW29182   3.374   5.690   1.851 -0.0013  0.1489 -0.8379
 8743SOL    HW129183   3.443   5.663   1.791 -0.2293 -0.9418 -0.6350
 8743SOL    HW229184   3.419   5.701   1.935  0.0083 -0.0898 -0.8117
 8744SOL     OW29185   5.603   7.308   4.931  0.0402  0.4699 -0.3768
 8744SOL    HW129186   5.514   7.274   4.941  0.6479 -1.2343 -0.5195
 8744SOL    HW229187   5.595   7.401   4.953 -1.6398  0.2185  0.2528
 8745SOL     OW29188   5.728   2.471   1.789  0.0982 -0.1645  0.1644
 8745SOL    HW129189   5.798   2.532   1.768 -0.4768  0.1792 -0.8359
 8745SOL    HW229190   5.674   2.518   1.853  0.5132 -0.2375  0.5655
 8746SOL     OW29191   7.532   4.621   5.587  0.2664  0.1955 -0.2522
 8746SOL    HW129192   7.440   4.620   5.615  0.5241  0.5391  0.6589
 8746SOL    HW229193   7.569   4.541   5.623  0.4090  0.2377 -0.3033
 8747SOL     OW29194   4.026   4.275   4.022 -0.0027  0.2826 -0.2870
 8747SOL    HW129195   4.014   4.370   4.022  1.5108  0.5319 -1.8727
 8747SOL    HW229196   3.944   4.240   3.987 -0.9427  0.9078  1.2084
 8748SOL     OW29197   6.637   4.471   7.580 -0.2748  0.0687 -0.0234
 8748SOL    HW129198   6.613   4.549   7.529 -0.9807 -0.8707 -1.1600
 8748SOL    HW229199   6.639   4.502   7.670 -2.6913  0.9272 -0.1997
 8749SOL     OW29200   7.253   0.810   2.862  0.0901  0.0049 -0.3580
 8749SOL    HW129201   7.285   0.857   2.939 -1.2990  0.1930  0.1383
 8749SOL    HW229202   7.332   0.787   2.813  1.1776 -1.6824  1.9886
 8750SOL     OW29203   1.243   6.359   7.623 -0.0927 -0.4028  0.1964
 8750SOL    HW129204   1.152   6.387   7.610 -0.4812 -1.7969 -0.3054
 8750SOL    HW229205   1.295   6.424   7.576 -0.8913 -0.0591 -0.2352
 8751SOL     OW29206   1.547   0.627   0.227  0.6439 -0.0506  0.0484
 8751SOL    HW129207   1.615   0.654   0.289  0.6169 -2.3406  1.1781
 8751SOL    HW229208   1.477   0.691   0.239  0.5182 -0.5956  2.6554
 8752SOL     OW29209   7.566   2.292   6.306 -0.3498  0.0915  0.6276
 8752SOL    HW129210   7.586   2.247   6.389 -1.3736  1.2261  1.5360
 8752SOL    HW229211   7.570   2.224   6.240 -0.5657 -1.0815  1.7760
 8753SOL     OW29212   7.166   5.440   8.044  0.3307 -0.7405 -0.0040
 8753SOL    HW129213   7.221   5.472   8.115  0.5258 -0.6160 -0.2070
 8753SOL    HW229214   7.212   5.466   7.964 -0.9169  1.0142 -0.2174
 8754SOL     OW29215   5.539   7.133   6.322 -0.3034  0.2219  0.1616
 8754SOL    HW129216   5.562   7.099   6.408  0.4099  1.9783  0.6956
 8754SOL    HW229217   5.445   7.148   6.327 -0.8121 -2.2711 -0.3533
 8755SOL     OW29218   1.759   7.421   4.540  0.1953  0.0588 -0.4111
 8755SOL    HW129219   1.837   7.374   4.509  0.1917  0.2749 -0.7509
 8755SOL    HW229220   1.771   7.510   4.509  0.7645  0.5889  1.2116
 8756SOL     OW29221   6.608   2.429   2.869  0.0887 -0.3901 -0.0894
 8756SOL    HW129222   6.696   2.466   2.856  0.8878 -2.6487 -1.8662
 8756SOL    HW229223   6.568   2.434   2.782 -1.9436  1.3738  0.8668
 8757SOL     OW29224   6.021   2.464   1.582  0.4361  0.5298  0.6728
 8757SOL    HW129225   6.075   2.462   1.661  1.7142 -0.2346 -0.1760
 8757SOL    HW229226   5.976   2.548   1.585  1.8715  1.3051  1.2949
 8758SOL     OW29227   2.118   1.741   6.396 -0.0884 -0.3202  0.1298
 8758SOL    HW129228   2.029   1.708   6.403  0.8687 -3.3546 -0.3936
 8758SOL    HW229229   2.109   1.830   6.362 -2.8463 -0.9199 -0.9021
 8759SOL     OW29230   6.364   3.926   3.727  0.0736 -0.2327 -0.1243
 8759SOL    HW129231   6.272   3.923   3.698 -0.1047  1.5803  0.1299
 8759SOL    HW229232   6.369   3.861   3.797 -1.6206  1.1448  1.3686
 8760SOL     OW29233   1.643   6.963   5.801 -0.0105  0.2691 -0.4792
 8760SOL    HW129234   1.690   6.933   5.724 -0.3064  0.2426 -0.6502
 8760SOL    HW229235   1.607   6.884   5.840 -0.9476  0.4049 -1.0335
 8761SOL     OW29236   2.567   3.876   7.137  0.2100 -0.5540 -0.4779
 8761SOL    HW129237   2.536   3.807   7.196 -0.5707  0.0175 -0.1982
 8761SOL    HW229238   2.538   3.958   7.177  1.1563 -0.0456 -0.7837
 8762SOL     OW29239   6.021   3.237   0.899  0.0833 -0.3613 -0.0232
 8762SOL    HW129240   5.952   3.238   0.965 -0.3318  1.0660 -0.4480
 8762SOL    HW229241   6.098   3.203   0.945 -0.8988 -2.1050  0.4226
 8763SOL     OW29242   5.767   7.943   1.117 -0.0456  0.1456  0.1147
 8763SOL    HW129243   5.685   7.958   1.071  0.5517  0.2379 -0.9611
 8763SOL    HW229244   5.817   8.023   1.101  0.3253  0.0083  0.5878
 8764SOL     OW29245   7.816   5.739   4.769  0.3100 -0.2708  0.2717
 8764SOL    HW129246   7.836   5.700   4.855 -0.9451 -1.4166  0.0850
 8764SOL    HW229247   7.838   5.670   4.706  2.8081  1.1308 -0.5246
 8765SOL     OW29248   3.195   0.332   1.164 -0.7591 -0.3683  0.1660
 8765SOL    HW129249   3.228   0.392   1.232  1.0290  0.8260 -1.6016
 8765SOL    HW229250   3.204   0.245   1.202  0.3270  0.2535  1.4331
 8766SOL     OW29251   4.772   3.948   2.368 -0.8230  0.3961 -0.4898
 8766SOL    HW129252   4.767   3.853   2.377 -2.5288  0.1529 -3.0388
 8766SOL    HW229253   4.733   3.967   2.283 -0.1495  3.3730 -0.2669
 8767SOL     OW29254   1.962   4.204   7.387 -0.3762 -0.2773  0.2151
 8767SOL    HW129255   1.953   4.137   7.455  0.8180 -0.1942  0.4853
 8767SOL    HW229256   2.033   4.260   7.419  0.6246 -0.5883 -1.3828
 8768SOL     OW29257   4.163   7.255   4.293 -0.0036  0.4580 -0.4002
 8768SOL    HW129258   4.245   7.208   4.282  0.2112  0.0103  2.3782
 8768SOL    HW229259   4.120   7.212   4.366 -3.4905 -0.2870 -2.6407
 8769SOL     OW29260   4.273   0.312   3.354  0.0103 -0.1492 -0.0581
 8769SOL    HW129261   4.323   0.234   3.330 -0.1357  0.0344 -0.9967
 8769SOL    HW229262   4.338   0.382   3.355  0.1211 -0.2559  0.6768
 8770SOL     OW29263   4.835   1.045   4.429  0.1068 -0.3826 -0.3022
 8770SOL    HW129264   4.822   0.952   4.449 -1.8096  0.0183  0.6368
 8770SOL    HW229265   4.819   1.089   4.513 -2.9309  1.0126 -1.4561
 8771SOL     OW29266   5.363   7.844   1.623 -0.1036 -0.5945  0.0729
 8771SOL    HW129267   5.361   7.769   1.683 -1.4887  0.4148  1.3257
 8771SOL    HW229268   5.454   7.848   1.594  0.2099 -2.1774  0.7221
 8772SOL     OW29269   0.424   0.794   6.572 -0.7546  0.8232  0.4459
 8772SOL    HW129270   0.452   0.719   6.518 -0.8563  1.6517 -0.8004
 8772SOL    HW229271   0.401   0.755   6.656  0.8316 -0.3399  0.4016
 8773SOL     OW29272   0.624   3.851   7.591  0.4546  0.0715 -0.1180
 8773SOL    HW129273   0.623   3.762   7.626 -1.7845 -0.2617 -0.8638
 8773SOL    HW229274   0.711   3.861   7.553  0.5965 -1.9828 -0.4328
 8774SOL     OW29275   1.373   7.955   5.700  0.1627  0.0677  0.0979
 8774SOL    HW129276   1.390   8.028   5.640 -0.4758 -0.9308 -1.3395
 8774SOL    HW229277   1.281   7.933   5.688  0.7688 -2.1976 -0.9485
 8775SOL     OW29278   5.351   3.025   4.057 -0.4385 -0.3419  0.3469
 8775SOL    HW129279   5.282   3.008   4.120  0.4135  1.0865  1.7431
 8775SOL    HW229280   5.305   3.047   3.976 -1.6120  0.3925  1.1854
 8776SOL     OW29281   0.057   6.930   6.747 -0.0801  0.4007 -0.2614
 8776SOL    HW129282  -0.024   6.981   6.737  0.1827  0.6982 -0.9540
 8776SOL    HW229283   0.114   6.963   6.678 -0.3040 -1.6333 -1.4895
 8777SOL     OW29284   0.666   2.781   0.148  0.4193  0.1744  0.5546
 8777SOL    HW129285   0.600   2.716   0.124 -0.3523  0.8851  0.7129
 8777SOL    HW229286   0.625   2.832   0.217  0.7924  1.2095  0.0199
 8778SOL     OW29287   6.541   5.559   8.069  0.0828  0.1377  0.6238
 8778SOL    HW129288   6.612   5.509   8.028 -0.6614  0.7623 -1.5918
 8778SOL    HW229289   6.462   5.510   8.048 -0.3746  0.7038  0.9804
 8779SOL     OW29290   5.503   0.375   4.968  0.2805  0.6534  0.2105
 8779SOL    HW129291   5.491   0.310   4.900 -0.0224  0.5817  0.3331
 8779SOL    HW229292   5.449   0.345   5.041  0.6381  0.7027  0.5023
 8780SOL     OW29293   5.869   6.772   4.008  0.5597 -0.4851 -0.9017
 8780SOL    HW129294   5.874   6.750   3.915  1.9004  1.2805 -1.2953
 8780SOL    HW229295   5.944   6.829   4.023 -1.5260  2.1274  0.4448
 8781SOL     OW29296   2.969   7.562   2.652  0.1520  0.2320  0.2632
 8781SOL    HW129297   3.059   7.541   2.626 -0.6389 -1.4062 -1.4121
 8781SOL    HW229298   2.944   7.636   2.596  0.5020  0.7756  0.8266
 8782SOL     OW29299   6.143   7.126   7.894 -0.1471  0.7648  0.2916
 8782SOL    HW129300   6.230   7.086   7.905 -0.4112  0.5718  2.0384
 8782SOL    HW229301   6.082   7.054   7.909 -0.6155  0.9616 -0.6451
 8783SOL     OW29302   0.533   2.005   3.528 -0.6013 -0.5298 -0.2340
 8783SOL    HW129303   0.481   2.086   3.524 -1.2155 -0.9060  0.0441
 8783SOL    HW229304   0.550   1.993   3.621  0.1233 -0.3286 -0.3351
 8784SOL     OW29305   2.921   0.693   6.720  0.0981 -0.7832 -0.0594
 8784SOL    HW129306   2.877   0.754   6.780 -1.4541 -2.3698  0.4884
 8784SOL    HW229307   3.000   0.740   6.692 -1.2635  1.6869 -0.0777
 8785SOL     OW29308   5.885   7.595   1.963  0.4444 -0.4507  0.5744
 8785SOL    HW129309   5.812   7.621   1.907 -0.1552 -0.6224  1.2644
 8785SOL    HW229310   5.938   7.537   1.907  1.9024  2.2523 -1.0468
 8786SOL     OW29311   6.065   4.884   2.463 -0.4134 -0.1757  0.2486
 8786SOL    HW129312   6.129   4.897   2.393 -0.3043  0.2131  0.4140
 8786SOL    HW229313   5.991   4.841   2.421  1.0494 -3.3028  0.5951
 8787SOL     OW29314   4.610   6.417   0.127 -0.3930  0.3289 -0.4262
 8787SOL    HW129315   4.686   6.359   0.127 -1.0946 -0.6279 -1.4391
 8787SOL    HW229316   4.618   6.466   0.046 -0.0061  1.4160  0.2491
 8788SOL     OW29317   7.076   1.055   6.118 -0.3185 -0.3167 -0.3934
 8788SOL    HW129318   7.115   1.087   6.037 -0.3231  0.2316 -0.1858
 8788SOL    HW229319   7.109   0.966   6.127  0.0984 -0.1992 -0.7304
 8789SOL     OW29320   3.874   2.375   6.875  0.1079  0.2031 -0.6290
 8789SOL    HW129321   3.958   2.419   6.864  0.7115 -1.1911 -1.8964
 8789SOL    HW229322   3.891   2.284   6.851 -1.4290 -0.4377  0.5276
 8790SOL     OW29323   3.946   3.747   1.427 -0.0845  0.0479 -0.3711
 8790SOL    HW129324   3.942   3.822   1.485 -1.3587 -0.8552  0.7545
 8790SOL    HW229325   4.039   3.739   1.405  0.8079 -0.7107  3.1107
 8791SOL     OW29326   0.907   0.696   3.173  0.0152  0.2311  0.1356
 8791SOL    HW129327   0.893   0.790   3.182  0.2491  0.1515  1.5679
 8791SOL    HW229328   0.936   0.668   3.260  2.3695 -0.7568 -0.8852
 8792SOL     OW29329   1.524   1.880   6.408  0.2387  0.0114 -0.0139
 8792SOL    HW129330   1.489   1.906   6.493  1.7404 -0.0045  0.6379
 8792SOL    HW229331   1.589   1.948   6.388 -1.8679  1.5182 -2.4128
 8793SOL     OW29332   1.046   0.353   5.922 -0.0552  0.1858  0.4817
 8793SOL    HW129333   0.968   0.363   5.976 -0.5371 -1.0613  0.0498
 8793SOL    HW229334   1.019   0.295   5.851 -0.1385  3.5887 -2.5210
 8794SOL     OW29335   3.113   6.020   2.993 -0.3214  0.0009  0.2076
 8794SOL    HW129336   3.181   5.979   2.940  0.2384  0.3812  0.6211
 8794SOL    HW229337   3.159   6.051   3.071 -0.9933  0.1473  0.5503
 8795SOL     OW29338   3.997   1.416   0.706  0.5077  0.3254  0.5363
 8795SOL    HW129339   3.947   1.370   0.774 -0.1514  0.6542  0.2877
 8795SOL    HW229340   3.953   1.393   0.624 -0.0767  1.6627  0.4425
 8796SOL     OW29341   7.793   1.177   5.838 -0.5102 -0.6645  0.6446
 8796SOL    HW129342   7.746   1.198   5.918  1.3059 -0.7659  1.8078
 8796SOL    HW229343   7.876   1.224   5.847  0.0369 -1.2967 -0.8205
 8797SOL     OW29344   6.957   0.293   6.032  0.1701  0.1407 -0.3673
 8797SOL    HW129345   7.041   0.330   6.060  0.6790 -0.3160 -1.2555
 8797SOL    HW229346   6.979   0.204   6.005 -0.7842 -0.3285  0.3378
 8798SOL     OW29347   2.865   2.571   2.916 -0.1953 -0.2642  0.5121
 8798SOL    HW129348   2.944   2.518   2.927  1.1267  1.5154  0.1298
 8798SOL    HW229349   2.838   2.557   2.825  2.3416  2.4117 -0.8140
 8799SOL     OW29350   8.098   1.717   6.153 -0.1268 -0.1724  0.2827
 8799SOL    HW129351   8.031   1.777   6.189 -1.3331 -2.3960  1.9913
 8799SOL    HW229352   8.048   1.649   6.109  1.1969 -0.2389 -1.1849
 8800SOL     OW29353   4.082   4.289   1.093  1.2677  0.2162 -0.0261
 8800SOL    HW129354   4.039   4.206   1.075  2.9989 -0.4762 -1.2296
 8800SOL    HW229355   4.164   4.265   1.136  1.0251  1.4318  1.2215
 8801SOL     OW29356   4.966   0.718   7.397 -0.3775  0.4273 -0.4415
 8801SOL    HW129357   4.904   0.649   7.371 -0.1877  0.5040 -1.1046
 8801SOL    HW229358   4.997   0.755   7.315 -0.2843  1.1387 -0.0921
 8802SOL     OW29359   1.164   0.150   4.962  0.2093 -0.2861 -0.5129
 8802SOL    HW129360   1.159   0.245   4.976 -0.1934  0.0565 -2.6289
 8802SOL    HW229361   1.246   0.138   4.913 -1.1680 -0.5917 -2.8913
 8803SOL     OW29362   2.633   2.630   7.572  0.3254  0.4271 -0.3873
 8803SOL    HW129363   2.540   2.650   7.562  0.2172 -0.0470 -0.3290
 8803SOL    HW229364   2.643   2.604   7.663  0.2561 -0.8714 -0.7352
 8804SOL     OW29365   3.407   7.305   2.554 -0.4601 -0.6513 -0.0398
 8804SOL    HW129366   3.452   7.268   2.478  0.2552 -2.4234  1.1762
 8804SOL    HW229367   3.474   7.309   2.622 -1.0568  1.0018  0.5022
 8805SOL     OW29368   2.039   1.550   6.147 -0.8141  0.1841 -1.0722
 8805SOL    HW129369   2.039   1.592   6.233 -0.7537  0.0914 -1.0264
 8805SOL    HW229370   1.950   1.517   6.136 -0.1309 -2.2688  0.1649
 8806SOL     OW29371   6.817   7.311   6.888 -0.3445 -0.1273 -0.7270
 8806SOL    HW129372   6.782   7.387   6.842  1.5928  0.2285 -1.6851
 8806SOL    HW229373   6.845   7.345   6.973  0.8719  0.3496 -1.2970
 8807SOL     OW29374   1.084   0.570   2.314  0.6350  0.2126 -0.2467
 8807SOL    HW129375   1.070   0.664   2.299  0.1090 -0.0067 -1.2164
 8807SOL    HW229376   1.027   0.548   2.387  0.6408  0.6149 -0.1192
 8808SOL     OW29377   5.639   4.187   0.797  0.5487 -0.4369 -0.0876
 8808SOL    HW129378   5.702   4.225   0.736 -0.2036  1.9522  0.5191
 8808SOL    HW229379   5.693   4.148   0.866  1.3824 -2.3168 -1.6971
 8809SOL     OW29380   1.913   5.123   5.537 -0.0494  0.6455  0.2511
 8809SOL    HW129381   1.941   5.189   5.600  0.7532  2.2656 -1.6657
 8809SOL    HW229382   1.988   5.113   5.478 -0.8655 -0.5310 -0.6369
 8810SOL     OW29383   4.261   6.647   6.123 -0.2009  0.2658 -0.2039
 8810SOL    HW129384   4.349   6.640   6.087  0.0632  0.7173  0.3394
 8810SOL    HW229385   4.250   6.567   6.175 -0.1084  0.2134 -0.2646
 8811SOL     OW29386   1.264   3.482   3.148  0.3494  0.7147 -0.4851
 8811SOL    HW129387   1.210   3.556   3.178 -2.5748 -0.9962 -1.0640
 8811SOL    HW229388   1.289   3.506   3.059  0.0160  1.3237 -0.4206
 8812SOL     OW29389   2.363   7.088   8.028  0.7162  0.2959  0.0719
 8812SOL    HW129390   2.339   7.002   7.993 -0.5108  1.2058 -1.4519
 8812SOL    HW229391   2.455   7.079   8.053  1.0867 -1.0088 -1.5575
 8813SOL     OW29392   2.423   1.165   2.331  0.4353  0.1854 -0.1284
 8813SOL    HW129393   2.390   1.162   2.421 -0.4211 -0.6846 -0.4539
 8813SOL    HW229394   2.434   1.258   2.312 -3.0652  0.6812 -0.4190
 8814SOL     OW29395   0.545   7.849   4.485  0.3534  0.2608 -0.2254
 8814SOL    HW129396   0.503   7.911   4.545 -3.3211  1.1325 -3.2610
 8814SOL    HW229397   0.563   7.901   4.406  0.8015 -1.7094 -1.4899
 8815SOL     OW29398   2.229   3.951   5.293 -0.1084 -0.3073  0.5927
 8815SOL    HW129399   2.255   3.859   5.291  0.6475 -0.0918 -0.6898
 8815SOL    HW229400   2.244   3.978   5.384  0.8529 -1.1281  0.6936
 8816SOL     OW29401   2.716   6.716   2.264  0.1467  0.0855  0.4807
 8816SOL    HW129402   2.712   6.811   2.278  0.4481  0.2064 -0.2263
 8816SOL    HW229403   2.679   6.679   2.345 -0.3524  0.8073  0.6003
 8817SOL     OW29404   5.825   0.206   3.426  0.5053  0.0756  0.4271
 8817SOL    HW129405   5.805   0.241   3.340 -1.1758  0.1565  0.8085
 8817SOL    HW229406   5.781   0.121   3.428 -1.5640  1.0756  1.9832
 8818SOL     OW29407   4.945   5.350   7.287 -0.0300 -0.4644  0.1418
 8818SOL    HW129408   4.976   5.419   7.347 -2.1539  2.2357 -1.6263
 8818SOL    HW229409   5.013   5.346   7.220  0.5140 -0.7439  0.6916
 8819SOL     OW29410   6.888   0.604   7.243 -0.9875  0.5522  0.0837
 8819SOL    HW129411   6.938   0.598   7.162 -0.3487 -0.7016  0.5472
 8819SOL    HW229412   6.813   0.546   7.228  1.2704 -3.1729  1.8215
 8820SOL     OW29413   4.776   3.064   3.855 -0.3161 -0.4850 -0.6150
 8820SOL    HW129414   4.851   3.008   3.839 -2.2766 -3.3803 -0.4126
 8820SOL    HW229415   4.805   3.123   3.926  1.8730 -1.1234 -0.9094
 8821SOL     OW29416   3.315   1.452   2.181 -0.2638 -0.0862 -0.4483
 8821SOL    HW129417   3.324   1.547   2.177 -0.7021 -0.0622 -0.9766
 8821SOL    HW229418   3.390   1.419   2.131 -0.7257  0.0115 -1.2178
 8822SOL     OW29419   3.615   1.022   8.018 -0.1799 -0.1333 -0.4693
 8822SOL    HW129420   3.594   0.937   7.977 -1.3135 -0.3262  0.4654
 8822SOL    HW229421   3.706   1.038   7.993 -0.7056 -0.3635 -2.8356
 8823SOL     OW29422   7.695   1.026   2.381 -0.0304  0.3322 -0.0889
 8823SOL    HW129423   7.619   0.970   2.400 -1.2543  1.9755  0.1547
 8823SOL    HW229424   7.771   0.970   2.396 -1.1893 -1.2682  0.0449
 8824SOL     OW29425   4.917   6.103   0.452 -0.2725 -0.4063  0.2588
 8824SOL    HW129426   4.993   6.099   0.393 -1.1431 -0.1922 -0.9115
 8824SOL    HW229427   4.936   6.176   0.510  0.0080  0.2571 -0.6387
 8825SOL     OW29428   1.955   4.207   4.090  0.6846 -0.0162 -0.4650
 8825SOL    HW129429   2.026   4.143   4.085  0.5980 -0.4973  2.5913
 8825SOL    HW229430   1.997   4.291   4.074  1.3023 -0.5535 -1.8241
 8826SOL     OW29431   7.197   0.656   1.461 -0.5538 -0.5950  0.3554
 8826SOL    HW129432   7.143   0.589   1.420  1.0923 -2.1513  0.5602
 8826SOL    HW229433   7.184   0.734   1.407 -1.6403 -1.4136 -0.6189
 8827SOL     OW29434   1.027   6.251   5.656  0.0841 -0.0519 -0.2975
 8827SOL    HW129435   0.944   6.207   5.675 -0.8819  0.7898 -2.2686
 8827SOL    HW229436   1.005   6.344   5.654  1.0142  0.1695 -1.1336
 8828SOL     OW29437   5.955   4.164   1.076  0.4931  0.7463  0.1768
 8828SOL    HW129438   6.014   4.133   1.007 -0.1038 -1.0660  0.4284
 8828SOL    HW229439   6.003   4.234   1.119  3.2418 -1.6908  1.4404
 8829SOL     OW29440   3.768   6.304   5.784  0.6487  0.2905 -0.6603
 8829SOL    HW129441   3.752   6.213   5.760  1.7892 -0.0587 -0.1897
 8829SOL    HW229442   3.782   6.301   5.879  1.5345  0.8162 -0.7661
 8830SOL     OW29443   2.598   6.578   0.966  0.0348  0.5381  0.4553
 8830SOL    HW129444   2.523   6.534   1.006 -0.8614  1.0044 -0.6647
 8830SOL    HW229445   2.604   6.543   0.878 -0.6776  2.5404 -0.4589
 8831SOL     OW29446   1.288   4.596   3.757 -0.1237 -0.3246  0.4177
 8831SOL    HW129447   1.322   4.657   3.823  1.6801 -1.3326  0.4761
 8831SOL    HW229448   1.227   4.648   3.706 -0.6380  0.8190  2.1026
 8832SOL     OW29449   7.898   7.475   2.413  0.1419 -0.2762 -0.2170
 8832SOL    HW129450   7.839   7.547   2.436 -0.4799 -1.2061  1.2203
 8832SOL    HW229451   7.853   7.429   2.342  0.7028  0.9052 -1.3874
 8833SOL     OW29452   6.302   5.309   0.639  0.1430  0.0840  0.4280
 8833SOL    HW129453   6.221   5.258   0.644 -0.6236  1.2071 -0.2026
 8833SOL    HW229454   6.365   5.250   0.598 -0.5112 -0.6093  0.4042
 8834SOL     OW29455   3.078   4.627   7.978 -0.2934 -0.3762  0.5285
 8834SOL    HW129456   2.997   4.576   7.967  0.1736 -0.5896 -4.1347
 8834SOL    HW229457   3.148   4.563   7.973  0.2130  0.1019  1.3727
 8835SOL     OW29458   3.219   1.578   7.011  0.2508 -0.3178  0.4249
 8835SOL    HW129459   3.166   1.519   7.066 -1.2849  0.4474 -0.1940
 8835SOL    HW229460   3.251   1.522   6.940  1.7266 -1.1710  1.6883
 8836SOL     OW29461   3.529   4.780   5.464 -0.5559 -0.6578 -0.2622
 8836SOL    HW129462   3.586   4.758   5.390 -0.0431 -0.4919  0.0726
 8836SOL    HW229463   3.582   4.759   5.541 -1.7209 -2.5252  0.0959
 8837SOL     OW29464   6.149   0.915   6.352  0.2410  0.6232  0.3258
 8837SOL    HW129465   6.101   0.927   6.434  0.7934  2.1600  0.4524
 8837SOL    HW229466   6.085   0.931   6.284  0.1200  0.8125  0.4813
 8838SOL     OW29467   2.972   3.621   3.262 -0.4221  0.1423 -0.0671
 8838SOL    HW129468   3.040   3.590   3.322 -1.7836  2.0459  2.6761
 8838SOL    HW229469   2.909   3.549   3.258  0.2310 -0.4378 -0.1759
 8839SOL     OW29470   8.055   2.266   0.690  0.6512 -0.2863  0.0522
 8839SOL    HW129471   8.091   2.187   0.650 -2.5068 -1.5826 -0.5086
 8839SOL    HW229472   8.008   2.309   0.619  2.4973  2.3292  0.2984
 8840SOL     OW29473   2.937   4.475   3.032  0.3002 -0.0093 -0.3914
 8840SOL    HW129474   2.962   4.528   2.956  1.0082 -0.3042 -0.3714
 8840SOL    HW229475   2.970   4.525   3.107 -2.2117  1.3453 -0.0895
 8841SOL     OW29476   4.362   1.957   5.754  0.2358  0.2559  0.5365
 8841SOL    HW129477   4.343   2.043   5.790  1.4323  0.4612  0.7390
 8841SOL    HW229478   4.447   1.934   5.791  0.5192 -0.4582 -0.5042
 8842SOL     OW29479   1.419   5.167   4.592 -0.0409  0.3540 -0.6736
 8842SOL    HW129480   1.423   5.072   4.577  3.1946  0.1739  0.5806
 8842SOL    HW229481   1.353   5.177   4.661 -0.1607 -1.0068 -0.5583
 8843SOL     OW29482   4.338   5.556   5.162  0.3295 -0.5386  0.5146
 8843SOL    HW129483   4.317   5.561   5.069 -1.4601 -2.1977  0.7579
 8843SOL    HW229484   4.418   5.504   5.166 -0.4023 -1.7375 -0.0505
 8844SOL     OW29485   2.197   1.656   7.630 -0.1721 -0.7133  0.4048
 8844SOL    HW129486   2.196   1.560   7.633  1.2316 -0.7319  0.8904
 8844SOL    HW229487   2.279   1.680   7.673  0.0071  0.6685 -0.6561
 8845SOL     OW29488   0.140   6.794   0.618 -0.1209 -0.1624 -0.1685
 8845SOL    HW129489   0.153   6.723   0.555  0.1014  0.6137 -1.0276
 8845SOL    HW229490   0.053   6.829   0.597  0.2380  0.5417 -0.5179
 8846SOL     OW29491   1.090   7.180   5.130 -0.0574 -0.0802  0.2744
 8846SOL    HW129492   1.134   7.264   5.126  0.8105 -0.5434 -0.1245
 8846SOL    HW229493   1.159   7.115   5.118 -0.9582 -0.7990 -1.4988
 8847SOL     OW29494   5.335   6.548   1.737  0.4706  0.0898  0.1211
 8847SOL    HW129495   5.426   6.549   1.765  0.5159 -1.1405  0.0715
 8847SOL    HW229496   5.284   6.547   1.818  0.5363 -0.6290  0.1557
 8848SOL     OW29497   5.248   3.008   6.286 -0.1024 -0.1385  0.6753
 8848SOL    HW129498   5.182   3.046   6.227  2.1919 -0.5858 -2.4189
 8848SOL    HW229499   5.240   2.914   6.273  0.7868 -0.2136  0.6186
 8849SOL     OW29500   4.251   8.075   3.409 -0.0965  0.5536 -0.5613
 8849SOL    HW129501   4.187   8.135   3.371 -0.7226  1.0055  1.0981
 8849SOL    HW229502   4.320   8.132   3.443 -1.4230  0.6221  2.4177
 8850SOL     OW29503   3.624   6.640   6.965 -0.1289  0.8460  0.2681
 8850SOL    HW129504   3.584   6.727   6.953 -0.3021  0.7873  0.4212
 8850SOL    HW229505   3.593   6.589   6.890 -1.4562  0.3889  1.1016
 8851SOL     OW29506   2.853   4.085   4.183  0.5451 -0.2038  0.1116
 8851SOL    HW129507   2.938   4.041   4.179  1.5432  1.6288  0.2476
 8851SOL    HW229508   2.871   4.168   4.227 -1.1447  0.6179 -0.6726
 8852SOL     OW29509   4.653   2.357   7.892  0.3094 -0.1310  0.0391
 8852SOL    HW129510   4.748   2.369   7.899  0.7389 -2.7416 -0.3871
 8852SOL    HW229511   4.619   2.446   7.881  2.6463  0.9221  0.5940
 8853SOL     OW29512   4.173   2.759   6.538 -0.8424  0.1148 -0.1613
 8853SOL    HW129513   4.125   2.800   6.466 -1.7697  0.5565  0.6807
 8853SOL    HW229514   4.258   2.803   6.539 -0.4575 -0.5404 -1.5503
 8854SOL     OW29515   7.533   2.300   2.045 -0.4144  0.6517  0.1160
 8854SOL    HW129516   7.483   2.224   2.015 -1.9137  1.6340  0.0686
 8854SOL    HW229517   7.619   2.289   2.004 -0.7063 -0.8392 -0.1546
 8855SOL     OW29518   1.038   6.862   0.718 -0.0864 -0.7216 -0.5200
 8855SOL    HW129519   0.968   6.888   0.658 -1.9813 -1.2500  1.3732
 8855SOL    HW229520   0.997   6.799   0.777  1.5866  0.0631  1.5806
 8856SOL     OW29521   5.155   4.390   6.114 -0.2053  0.2039  0.1865
 8856SOL    HW129522   5.216   4.317   6.104  0.7157  0.5252  2.6987
 8856SOL    HW229523   5.070   4.354   6.089  0.7622 -0.5559 -2.3704
 8857SOL     OW29524   7.712   1.351   6.409 -0.1234 -0.3699  0.2057
 8857SOL    HW129525   7.741   1.308   6.489  3.7429 -1.5626 -1.5894
 8857SOL    HW229526   7.748   1.439   6.414  2.3933 -1.2139 -1.1323
 8858SOL     OW29527   0.140   4.284   4.863 -0.4375 -0.1216  0.6740
 8858SOL    HW129528   0.061   4.280   4.810  0.2275  0.2965 -0.3832
 8858SOL    HW229529   0.210   4.259   4.804  0.2808 -0.0417  1.4702
 8859SOL     OW29530   3.393   0.110   5.699  0.2416 -0.1136  0.3255
 8859SOL    HW129531   3.398   0.122   5.794  2.1308 -0.1284  0.2690
 8859SOL    HW229532   3.373   0.017   5.687  2.3603 -0.6784  0.7474
 8860SOL     OW29533   2.159   7.798   0.836  0.5084 -0.5112  0.1363
 8860SOL    HW129534   2.208   7.868   0.793 -0.5920  0.8935  1.0979
 8860SOL    HW229535   2.190   7.800   0.926 -2.0471  1.2008  1.0748
 8861SOL     OW29536   7.242   7.010   3.864  0.2421  0.2906  0.0632
 8861SOL    HW129537   7.313   7.074   3.867  0.6151 -0.1417  0.5730
 8861SOL    HW229538   7.264   6.946   3.931 -0.7093  0.2322  0.3340
 8862SOL     OW29539   6.304   0.281   1.758 -0.1836  0.6033  0.1756
 8862SOL    HW129540   6.333   0.366   1.724 -0.9228  0.7400 -0.1290
 8862SOL    HW229541   6.385   0.240   1.790  0.0582  1.8306  1.2448
 8863SOL     OW29542   4.625   2.680   0.081  0.6134  0.0936 -0.0293
 8863SOL    HW129543   4.547   2.635   0.051  0.9747 -1.9384  1.7979
 8863SOL    HW229544   4.604   2.708   0.170  1.0497  1.9993 -0.4834
 8864SOL     OW29545   0.837   3.056   3.607 -0.1836 -0.0309 -0.0161
 8864SOL    HW129546   0.795   2.972   3.589 -1.9515  0.7362  0.3019
 8864SOL    HW229547   0.821   3.107   3.527  0.2580  0.2485  0.0719
 8865SOL     OW29548   0.125   0.081   3.489 -0.1572  0.0346 -0.2456
 8865SOL    HW129549   0.146   0.140   3.416  1.7264 -0.2714 -0.0014
 8865SOL    HW229550   0.136   0.135   3.567  0.1523 -0.2398 -0.0946
 8866SOL     OW29551   3.595   7.282   5.338  0.0356  0.2422 -0.2176
 8866SOL    HW129552   3.507   7.314   5.357 -0.5677 -1.0021 -0.8155
 8866SOL    HW229553   3.602   7.285   5.243  0.3631 -0.3816 -0.2162
 8867SOL     OW29554   7.577   6.731   6.439 -0.0620 -0.0687 -0.6346
 8867SOL    HW129555   7.582   6.827   6.436 -1.2750  0.0022 -0.6761
 8867SOL    HW229556   7.641   6.703   6.374 -0.3370  0.7421 -1.2785
 8868SOL     OW29557   4.889   4.588   0.690  0.6688  0.1706 -0.7620
 8868SOL    HW129558   4.919   4.556   0.775  1.5481  0.2587 -1.0228
 8868SOL    HW229559   4.969   4.622   0.648  0.5336 -1.1100 -2.1637
 8869SOL     OW29560   3.811   3.449   5.254 -0.3728 -0.1805  0.1097
 8869SOL    HW129561   3.893   3.476   5.212 -0.0048 -2.1581 -0.5710
 8869SOL    HW229562   3.807   3.500   5.335  1.7038 -0.2777  0.3264
 8870SOL     OW29563   7.037   4.056   6.943  0.1625 -0.2739 -0.6064
 8870SOL    HW129564   7.093   4.054   7.020 -0.0475 -1.1298 -0.4635
 8870SOL    HW229565   7.096   4.073   6.870  0.4525 -0.1036 -0.3318
 8871SOL     OW29566   6.288   7.236   5.075 -0.2055  0.3349  0.3609
 8871SOL    HW129567   6.321   7.146   5.081 -2.9561 -0.7536  0.5539
 8871SOL    HW229568   6.337   7.284   5.142  0.0825 -1.4572  1.4900
 8872SOL     OW29569   3.945   1.187   1.203  0.0779 -0.1770 -0.8594
 8872SOL    HW129570   3.962   1.166   1.295 -0.8356  2.1719 -0.0751
 8872SOL    HW229571   4.025   1.230   1.173 -0.1274  0.2941 -0.7369
 8873SOL     OW29572   6.725   7.006   4.492  0.0557  0.0011  0.2134
 8873SOL    HW129573   6.739   7.077   4.554  2.7924 -0.0483 -0.2531
 8873SOL    HW229574   6.679   7.047   4.419  0.2486  0.9441  0.6115
 8874SOL     OW29575   3.789   6.027   5.658 -0.3512 -0.1964 -0.1881
 8874SOL    HW129576   3.803   5.944   5.705  2.0802  0.8278  1.0695
 8874SOL    HW229577   3.792   6.003   5.566  2.7361 -1.2766  0.0855
 8875SOL     OW29578   4.088   3.560   6.407  0.2864 -0.1183 -0.7599
 8875SOL    HW129579   4.066   3.542   6.316 -0.2129  1.4561 -0.9838
 8875SOL    HW229580   4.116   3.652   6.408  1.0365 -0.3237  0.5514
 8876SOL     OW29581   6.431   5.902   2.570  0.2307  0.0865 -0.0379
 8876SOL    HW129582   6.364   5.875   2.634 -1.6516 -1.1380 -2.3856
 8876SOL    HW229583   6.395   5.981   2.530  1.6085  1.0984  0.6635
 8877SOL     OW29584   7.730   6.220   7.727 -0.0662 -0.0658 -0.2440
 8877SOL    HW129585   7.808   6.177   7.692 -0.1635  0.7505 -1.5046
 8877SOL    HW229586   7.720   6.299   7.675 -0.0351  1.3904  1.8572
 8878SOL     OW29587   2.244   6.333   7.778  0.2174  0.7403 -0.0522
 8878SOL    HW129588   2.211   6.368   7.862  0.4347  1.8006 -0.3942
 8878SOL    HW229589   2.339   6.335   7.787  0.3102  2.7502 -1.0375
 8879SOL     OW29590   3.463   0.930   0.813 -0.2003  0.1101 -0.0621
 8879SOL    HW129591   3.457   0.863   0.881 -0.0850 -0.5428 -0.6855
 8879SOL    HW229592   3.378   0.929   0.770  0.6794 -1.5960 -1.8739
 8880SOL     OW29593   1.255   2.278   1.222 -0.3185  0.7621 -0.2115
 8880SOL    HW129594   1.315   2.258   1.294 -0.8213 -2.5747 -0.5781
 8880SOL    HW229595   1.169   2.286   1.264 -0.6762 -1.5694 -0.3753
 8881SOL     OW29596   1.072   2.427   7.469  0.4209  0.1961 -0.4376
 8881SOL    HW129597   1.030   2.468   7.545  0.2308 -0.9469  0.0907
 8881SOL    HW229598   1.003   2.425   7.403  0.0301 -0.4332 -0.0269
 8882SOL     OW29599   7.742   5.202   4.402  0.0680  0.2094  0.6536
 8882SOL    HW129600   7.680   5.133   4.378 -0.1161  0.5485  0.1409
 8882SOL    HW229601   7.721   5.223   4.493 -0.1449 -0.1209  0.6826
 8883SOL     OW29602   1.824   4.044   7.858  0.2185  0.0260  0.2955
 8883SOL    HW129603   1.730   4.055   7.842  0.1795 -2.2467 -1.7653
 8883SOL    HW229604   1.830   3.964   7.912  0.9597  0.6292  1.1384
 8884SOL     OW29605   1.218   6.053   0.422  0.2249 -0.0966 -0.0882
 8884SOL    HW129606   1.213   6.043   0.517 -0.7773  0.9658  0.0015
 8884SOL    HW229607   1.179   5.973   0.387 -0.1049 -0.1669  0.4221
 8885SOL     OW29608   4.023   0.914   7.720  0.0420 -0.4271  0.1482
 8885SOL    HW129609   3.929   0.930   7.708  0.2970  0.6242 -0.6396
 8885SOL    HW229610   4.050   0.865   7.642  0.1696 -0.6238  0.3152
 8886SOL     OW29611   7.370   0.036   5.228  0.3672  0.5179  0.4486
 8886SOL    HW129612   7.291   0.076   5.191 -0.4346 -0.4805  1.0650
 8886SOL    HW229613   7.442   0.077   5.179 -0.5966  0.1234 -1.3935
 8887SOL     OW29614   5.317   0.597   7.848 -0.2089 -0.2412 -0.4909
 8887SOL    HW129615   5.362   0.650   7.783 -0.3929 -1.3242 -1.5319
 8887SOL    HW229616   5.281   0.523   7.799 -2.5955  0.2454  0.4064
 8888SOL     OW29617   5.747   1.149   1.898  0.3940  0.1092  0.1464
 8888SOL    HW129618   5.792   1.234   1.896 -0.0695  0.3650  0.2880
 8888SOL    HW229619   5.816   1.085   1.885  0.6358  0.5460 -0.8209
 8889SOL     OW29620   4.943   6.622   3.814  0.0215 -0.1431  0.2206
 8889SOL    HW129621   4.891   6.543   3.799  0.9002 -0.8535  0.8213
 8889SOL    HW229622   4.916   6.681   3.744 -0.7145 -0.9442 -0.1972
 8890SOL     OW29623   3.929   2.977   3.346 -0.0849 -0.6147  0.0833
 8890SOL    HW129624   3.885   2.897   3.376  0.7305 -0.8713  0.6554
 8890SOL    HW229625   3.990   2.947   3.278 -1.7119 -0.0728 -1.6871
 8891SOL     OW29626   0.230   5.431   0.326  0.1466 -0.2301  0.3771
 8891SOL    HW129627   0.289   5.423   0.251 -0.1237  1.7344 -0.0882
 8891SOL    HW229628   0.282   5.397   0.400  0.7069 -1.4122 -0.5177
 8892SOL     OW29629   4.083   0.735   5.976  0.3251  0.4995 -0.3632
 8892SOL    HW129630   4.144   0.798   6.013 -0.6807  0.2050  1.9703
 8892SOL    HW229631   4.024   0.787   5.921  1.3313  1.1079 -0.8786
 8893SOL     OW29632   7.395   2.030   0.642 -0.0021  0.3361 -0.3324
 8893SOL    HW129633   7.469   1.984   0.601 -1.6949 -1.0269 -2.0322
 8893SOL    HW229634   7.398   2.118   0.605  1.1232  0.4925  0.1036
 8894SOL     OW29635   1.628   2.545   4.600  0.5408  0.0081 -0.0864
 8894SOL    HW129636   1.665   2.517   4.516 -2.2671  0.9349 -1.7884
 8894SOL    HW229637   1.554   2.485   4.614 -1.7858  2.5229 -0.6791
 8895SOL     OW29638   7.652   1.196   4.843 -0.4140 -0.0341 -0.1475
 8895SOL    HW129639   7.579   1.199   4.781 -0.4182  0.1890 -0.1328
 8895SOL    HW229640   7.644   1.277   4.893  0.0535  0.1556 -0.3820
 8896SOL     OW29641   3.815   4.986   5.785 -0.3541  0.2478 -0.0918
 8896SOL    HW129642   3.839   4.947   5.869 -0.5324  0.5853  0.1212
 8896SOL    HW229643   3.896   4.985   5.734 -0.3910 -0.5227 -0.1474
 8897SOL     OW29644   1.153   3.322   1.164  0.7185 -0.0289  0.1941
 8897SOL    HW129645   1.102   3.341   1.085  2.0528  1.7432 -0.2837
 8897SOL    HW229646   1.242   3.311   1.133  1.1028 -0.3768  1.3602
 8898SOL     OW29647   4.250   4.936   0.957  0.0239  0.3118 -0.0216
 8898SOL    HW129648   4.165   4.981   0.954  0.2681  0.7383 -0.5076
 8898SOL    HW229649   4.266   4.923   1.051 -1.9433 -2.3782  0.0907
 8899SOL     OW29650   5.243   7.804   2.944  0.0208  0.3174 -0.5575
 8899SOL    HW129651   5.301   7.876   2.918  0.6432 -0.4467 -1.3396
 8899SOL    HW229652   5.165   7.815   2.889  0.9413 -0.7385 -2.1400
 8900SOL     OW29653   3.579   0.823   1.399  0.1036 -0.4640  0.7798
 8900SOL    HW129654   3.544   0.771   1.471 -0.7128  1.5311  1.9053
 8900SOL    HW229655   3.560   0.913   1.423 -0.3357  0.2862 -2.0204
 8901SOL     OW29656   1.063   8.118   1.256 -0.0640  0.0294 -0.2928
 8901SOL    HW129657   1.068   8.036   1.305 -0.5244 -0.1992 -0.6319
 8901SOL    HW229658   1.108   8.181   1.313 -1.1998 -0.0748  0.7657
 8902SOL     OW29659   1.500   7.790   4.810  0.8763  0.0790  0.4719
 8902SOL    HW129660   1.533   7.700   4.813  0.7014 -0.0016 -0.0520
 8902SOL    HW229661   1.516   7.819   4.720 -1.9632 -0.5347 -0.3258
 8903SOL     OW29662   3.437   4.108   1.278  0.0404  0.1067 -0.0654
 8903SOL    HW129663   3.357   4.067   1.312 -1.1452  1.1378 -1.4652
 8903SOL    HW229664   3.507   4.074   1.333 -1.4538 -0.2858  1.6734
 8904SOL     OW29665   0.981   7.066   6.555  0.3543  0.1552 -0.0581
 8904SOL    HW129666   0.949   7.060   6.645 -0.3432  0.9552 -0.2360
 8904SOL    HW229667   0.980   6.976   6.523 -1.3649  0.0716  0.0985
 8905SOL     OW29668   6.646   0.244   6.061 -0.0908 -0.0471  0.9468
 8905SOL    HW129669   6.578   0.182   6.034  0.2223 -0.2655  0.6491
 8905SOL    HW229670   6.668   0.218   6.151 -0.5353  0.1471  1.1150
 8906SOL     OW29671   6.208   6.400   1.456  0.1936  0.7828  0.0009
 8906SOL    HW129672   6.264   6.459   1.506  0.1280 -0.0116  1.0240
 8906SOL    HW229673   6.121   6.414   1.492  0.0438  0.6372 -0.3032
 8907SOL     OW29674   6.414   0.320   7.547  0.3758  0.4612 -0.7777
 8907SOL    HW129675   6.395   0.341   7.455  0.0130  1.4643 -0.4873
 8907SOL    HW229676   6.505   0.348   7.559  1.0360 -1.3189 -1.2873
 8908SOL     OW29677   1.882   7.952   2.656 -0.4252 -0.1528  0.6056
 8908SOL    HW129678   1.919   7.869   2.685  1.1024  0.7074  1.2441
 8908SOL    HW229679   1.949   8.017   2.677 -1.5930  1.2575  0.1599
 8909SOL     OW29680   0.719   1.724   0.236 -0.5450 -0.0269  0.0483
 8909SOL    HW129681   0.787   1.687   0.179 -1.8384  0.7930 -2.1323
 8909SOL    HW229682   0.638   1.680   0.209 -1.1607  0.1769  1.4831
 8910SOL     OW29683   2.180   2.767   8.099 -0.1861  0.6658  0.0063
 8910SOL    HW129684   2.106   2.711   8.074 -1.3155  1.2324  1.9026
 8910SOL    HW229685   2.208   2.732   8.183  0.6675  1.4783  0.0685
 8911SOL     OW29686   5.032   0.130   2.327 -0.2896  0.1213  0.2730
 8911SOL    HW129687   5.049   0.207   2.273  0.1143  0.1783  0.4758
 8911SOL    HW229688   4.960   0.156   2.385  1.3662  1.1811  1.9644
 8912SOL     OW29689   4.548   1.954   6.201  0.9221  0.3702 -0.0183
 8912SOL    HW129690   4.559   1.871   6.156  0.2211 -1.5892  3.1207
 8912SOL    HW229691   4.453   1.966   6.207  1.0141  1.6660 -0.8240
 8913SOL     OW29692   5.735   5.314   6.939 -0.5381  0.7474 -0.4984
 8913SOL    HW129693   5.773   5.351   6.859 -1.2457 -3.2900 -3.0102
 8913SOL    HW229694   5.809   5.305   6.999  0.5589  1.5704 -1.6764
 8914SOL     OW29695   8.040   1.591   6.838 -0.4068 -0.1863  0.2570
 8914SOL    HW129696   8.083   1.635   6.765 -2.1499  2.2703  0.5742
 8914SOL    HW229697   7.960   1.555   6.800  0.3081 -1.9368  0.3163
 8915SOL     OW29698   0.596   0.878   5.034  0.1334 -0.0436 -0.8038
 8915SOL    HW129699   0.595   0.932   5.113 -0.2761 -3.2286  1.5513
 8915SOL    HW229700   0.507   0.884   4.999  0.1966  1.0279 -0.8180
 8916SOL     OW29701   2.544   7.849   4.908 -0.2903 -0.1829 -0.0984
 8916SOL    HW129702   2.461   7.814   4.939 -0.6552 -0.4079 -1.2653
 8916SOL    HW229703   2.595   7.866   4.987 -1.0562 -1.0039  0.5882
 8917SOL     OW29704   8.019   1.277   7.731 -0.3322  0.6777  0.0777
 8917SOL    HW129705   7.973   1.305   7.652 -0.9590 -0.2484  0.0820
 8917SOL    HW229706   7.951   1.274   7.798 -0.5757 -1.8015 -0.1767
 8918SOL     OW29707   6.872   7.776   2.901  0.3034 -0.3466 -0.2521
 8918SOL    HW129708   6.914   7.862   2.904  0.6715 -0.4502 -1.7252
 8918SOL    HW229709   6.782   7.793   2.929  0.0087  0.7960 -1.7208
 8919SOL     OW29710   2.392   8.037   2.866 -0.2567 -0.6620 -0.7396
 8919SOL    HW129711   2.320   8.001   2.815 -0.1052  0.4446 -1.8024
 8919SOL    HW229712   2.465   7.978   2.850 -0.0047  0.0394 -2.4640
 8920SOL     OW29713   2.916   6.742   7.788  0.2131  0.2532 -0.1681
 8920SOL    HW129714   2.957   6.721   7.872 -1.3811 -3.6772 -0.1817
 8920SOL    HW229715   2.977   6.710   7.723 -0.3532 -0.4998 -0.3436
 8921SOL     OW29716   2.689   8.040   6.927  0.5769 -0.0519  0.2088
 8921SOL    HW129717   2.754   8.085   6.981  1.3203 -0.7077 -0.1105
 8921SOL    HW229718   2.694   7.949   6.956 -1.1944  0.1062  1.1405
 8922SOL     OW29719   1.281   0.730   4.334 -0.5216  0.3431 -0.1872
 8922SOL    HW129720   1.246   0.675   4.404 -1.7740  0.4496 -0.7040
 8922SOL    HW229721   1.235   0.813   4.344 -1.6517 -0.0319 -1.8534
 8923SOL     OW29722   4.025   4.614   7.792  0.2063 -0.4987 -0.4213
 8923SOL    HW129723   4.063   4.570   7.868 -0.3015 -0.4507 -0.1364
 8923SOL    HW229724   3.974   4.686   7.829  0.2514 -0.2543 -0.8309
 8924SOL     OW29725   0.748   4.203   6.596  0.2871 -0.7545  0.1818
 8924SOL    HW129726   0.707   4.198   6.682 -0.3833  1.2498  0.0349
 8924SOL    HW229727   0.701   4.274   6.551  0.8266 -1.5319 -1.7237
 8925SOL     OW29728   0.836   2.686   1.076  0.5865 -0.2654  0.2799
 8925SOL    HW129729   0.817   2.635   0.998  0.4840  0.9914 -0.5500
 8925SOL    HW229730   0.751   2.713   1.110  0.5886 -1.4998  1.3317
 8926SOL     OW29731   0.255   4.248   6.932  0.0202 -0.1571 -0.2333
 8926SOL    HW129732   0.333   4.234   6.985 -0.5360  0.1835  0.7034
 8926SOL    HW229733   0.213   4.162   6.929 -0.6039  0.0870  0.9740
 8927SOL     OW29734   6.266   1.953   5.111  0.0743  0.1703  0.2186
 8927SOL    HW129735   6.192   1.997   5.070  0.0012 -0.9616 -0.9349
 8927SOL    HW229736   6.227   1.902   5.182  0.2438  2.4076  2.0209
 8928SOL     OW29737   5.177   7.436   1.410  0.2103  0.0083  0.4793
 8928SOL    HW129738   5.083   7.421   1.395  0.3752  0.3736 -1.1494
 8928SOL    HW229739   5.182   7.526   1.443  0.0540  0.5042 -0.7675
 8929SOL     OW29740   4.590   3.916   2.991  0.6997 -0.3869 -0.0619
 8929SOL    HW129741   4.591   3.856   3.066  1.0659 -1.0256 -0.5745
 8929SOL    HW229742   4.498   3.920   2.965  0.5692 -0.1543  0.4286
 8930SOL     OW29743   5.250   7.702   7.532  0.1012  0.1027  0.4260
 8930SOL    HW129744   5.169   7.685   7.483 -0.3094  0.1676  1.0669
 8930SOL    HW229745   5.251   7.797   7.545  0.9574  0.2747 -0.7048
 8931SOL     OW29746   4.981   3.148   7.099  0.0820 -0.1400  0.0688
 8931SOL    HW129747   4.924   3.100   7.039  0.9933 -0.7384 -0.3449
 8931SOL    HW229748   4.957   3.116   7.186  0.1678 -0.8015 -0.1450
 8932SOL     OW29749   4.518   4.430   0.174  0.1857 -0.4584  0.6711
 8932SOL    HW129750   4.436   4.397   0.212  1.0947 -1.7645  1.6027
 8932SOL    HW229751   4.542   4.504   0.231  1.3977 -2.2357  2.6261
 8933SOL     OW29752   1.220   5.256   1.467 -0.3759 -0.5365 -0.2311
 8933SOL    HW129753   1.278   5.322   1.429 -0.0329 -1.4459 -1.3736
 8933SOL    HW229754   1.227   5.181   1.407 -2.7463 -0.6858 -0.4108
 8934SOL     OW29755   3.227   4.253   0.587 -0.4483  0.0731  0.8751
 8934SOL    HW129756   3.202   4.252   0.495 -2.6391  1.0851  1.3892
 8934SOL    HW229757   3.266   4.167   0.603 -0.6047 -0.3384 -0.8325
 8935SOL     OW29758   1.206   4.522   0.205 -0.1665 -0.0014 -0.1496
 8935SOL    HW129759   1.229   4.470   0.282 -0.3321 -0.2491 -0.2665
 8935SOL    HW229760   1.236   4.611   0.227  0.5124 -0.2313 -0.1303
 8936SOL     OW29761   6.939   1.535   7.643 -0.2446  1.0220  0.0315
 8936SOL    HW129762   6.909   1.496   7.561 -0.5771 -0.0468  0.6453
 8936SOL    HW229763   7.030   1.508   7.651 -1.0868 -1.8180  1.6316
 8937SOL     OW29764   1.202   4.641   3.114 -0.0883 -0.3011  0.1836
 8937SOL    HW129765   1.265   4.709   3.090  1.7086 -1.9040  0.1066
 8937SOL    HW229766   1.117   4.685   3.113  1.0727  2.1447  1.0255
 8938SOL     OW29767   0.950   6.556   0.546 -0.2449  0.0667 -0.4269
 8938SOL    HW129768   0.856   6.565   0.561 -0.5169  0.2823 -2.0601
 8938SOL    HW229769   0.959   6.476   0.495  0.2388  1.0424 -1.9232
 8939SOL     OW29770   6.623   5.407   0.210 -0.6883  0.0260  0.2481
 8939SOL    HW129771   6.536   5.447   0.218 -0.6653  0.1392 -0.0846
 8939SOL    HW229772   6.667   5.458   0.143 -0.5956 -0.4462 -0.0563
 8940SOL     OW29773   3.670   6.075   0.751 -0.0781  0.2247  0.6581
 8940SOL    HW129774   3.691   6.165   0.727  2.4227 -0.4158  0.1653
 8940SOL    HW229775   3.681   6.071   0.845 -1.7820  0.7568  0.9233
 8941SOL     OW29776   7.942   1.789   5.041  0.5489 -0.3289 -0.2176
 8941SOL    HW129777   8.011   1.728   5.015 -1.0610 -2.1941 -0.4000
 8941SOL    HW229778   7.938   1.780   5.136  0.2049 -0.6646 -0.2596
 8942SOL     OW29779   4.525   2.578   1.840  0.4070 -0.0992  0.2167
 8942SOL    HW129780   4.479   2.500   1.809  2.9398 -1.0936 -1.4493
 8942SOL    HW229781   4.466   2.618   1.904 -2.0568 -1.9849 -0.7153
 8943SOL     OW29782   3.225   2.362   8.055 -0.0416 -0.0953  0.1891
 8943SOL    HW129783   3.183   2.434   8.103 -0.6681 -0.8280  0.7737
 8943SOL    HW229784   3.154   2.324   8.003  0.6689  0.8104 -1.5135
 8944SOL     OW29785   5.351   1.110   2.999 -0.4184  0.3905  0.1031
 8944SOL    HW129786   5.323   1.049   3.068  0.7607  0.9346  1.1100
 8944SOL    HW229787   5.414   1.059   2.948  0.3829  0.6642  0.7965
 8945SOL     OW29788   1.097   5.669   1.931 -0.3660  0.2609  0.0460
 8945SOL    HW129789   1.136   5.699   1.849  2.1320 -2.2463  0.1640
 8945SOL    HW229790   1.156   5.701   1.999  1.3851 -3.0668  0.2773
 8946SOL     OW29791   6.420   4.218   2.835  0.2825  0.0010  0.4823
 8946SOL    HW129792   6.359   4.258   2.898  0.5726  1.9110 -0.3802
 8946SOL    HW229793   6.453   4.140   2.879 -1.4719 -0.1326  1.6561
 8947SOL     OW29794   0.444   7.593   0.762  0.1418 -0.8979  0.0698
 8947SOL    HW129795   0.513   7.531   0.739 -0.1073 -1.5997  1.1124
 8947SOL    HW229796   0.384   7.592   0.687  0.3856 -1.5778 -0.1250
 8948SOL     OW29797   7.874   5.777   5.071  0.4340 -0.0764 -0.2144
 8948SOL    HW129798   7.809   5.726   5.119  0.1385  1.2707  0.8875
 8948SOL    HW229799   7.825   5.820   5.001  0.3027  0.2335  0.0654
 8949SOL     OW29800   4.775   6.861   2.326  0.2682 -0.0064 -0.5383
 8949SOL    HW129801   4.830   6.792   2.363 -1.1100 -0.4540  0.8096
 8949SOL    HW229802   4.716   6.886   2.398 -0.8619  0.8914 -1.7118
 8950SOL     OW29803   7.387   5.742   0.215  0.5122 -0.1927  0.0447
 8950SOL    HW129804   7.383   5.780   0.302  1.3618 -0.6895  0.3132
 8950SOL    HW229805   7.419   5.813   0.159  1.2852 -0.2667  0.3885
 8951SOL     OW29806   8.026   6.614   4.707 -0.0823 -0.4651 -0.0475
 8951SOL    HW129807   7.945   6.665   4.717  0.6902  1.0137 -0.9479
 8951SOL    HW229808   8.085   6.672   4.659  1.3207 -1.7395  0.0598
 8952SOL     OW29809   4.814   6.492   7.742 -0.1930  0.2662 -0.0276
 8952SOL    HW129810   4.724   6.474   7.712 -0.5339  1.2349  0.3698
 8952SOL    HW229811   4.868   6.431   7.691 -0.9115  0.7738 -1.4728
 8953SOL     OW29812   5.407   1.535   6.870  0.0374 -0.2964 -0.2664
 8953SOL    HW129813   5.496   1.561   6.849  0.3210 -0.8413  0.2057
 8953SOL    HW229814   5.359   1.617   6.880  0.4995 -0.0002 -0.4590
 8954SOL     OW29815   1.153   4.894   6.620  0.5179  0.0777  0.0211
 8954SOL    HW129816   1.231   4.943   6.594  1.6071 -1.4300  0.2777
 8954SOL    HW229817   1.097   4.893   6.542  0.5658  1.5018 -0.0473
 8955SOL     OW29818   6.674   6.849   7.354  0.3111 -0.3638  0.1277
 8955SOL    HW129819   6.622   6.770   7.352 -1.0381  0.4793  0.6114
 8955SOL    HW229820   6.702   6.857   7.446  1.8558 -1.1254 -0.2336
 8956SOL     OW29821   6.132   0.030   0.866  0.6218 -0.1107 -0.3421
 8956SOL    HW129822   6.104   0.098   0.928  1.2594 -0.7368  0.6646
 8956SOL    HW229823   6.118   0.070   0.780 -0.7834  0.5842  0.1691
 8957SOL     OW29824   0.646   3.364   3.136  0.2930  0.0105  0.2869
 8957SOL    HW129825   0.570   3.380   3.080 -0.9498 -1.2464  1.5194
 8957SOL    HW229826   0.664   3.448   3.177 -0.4453  0.3257 -0.0166
 8958SOL     OW29827   7.767   3.416   5.751  0.7711 -0.1613  0.1948
 8958SOL    HW129828   7.834   3.349   5.743  1.9772  0.6829  2.3669
 8958SOL    HW229829   7.769   3.441   5.844 -3.6987 -1.2715  0.8395
 8959SOL     OW29830   0.167   5.058   7.677  0.3199 -0.2693 -0.8585
 8959SOL    HW129831   0.134   4.992   7.616 -1.9568  0.0374 -0.0614
 8959SOL    HW229832   0.208   5.008   7.747 -2.4462 -1.0128  0.3569
 8960SOL     OW29833   5.294   0.007   4.250  0.3001 -0.2628 -0.2988
 8960SOL    HW129834   5.277   0.086   4.199  1.7759 -1.0561 -2.1341
 8960SOL    HW229835   5.251  -0.063   4.200  0.4450 -0.8571  0.4018
 8961SOL     OW29836   3.521   6.356   3.972  0.4791  0.2426  0.5185
 8961SOL    HW129837   3.477   6.438   3.947  0.1109  0.5557  2.0540
 8961SOL    HW229838   3.450   6.293   3.981  0.5570  0.2180  1.0140
 8962SOL     OW29839   7.385   8.111   7.665  0.0176 -0.5781  0.1800
 8962SOL    HW129840   7.382   8.087   7.758 -1.5805  0.4349  0.4287
 8962SOL    HW229841   7.394   8.207   7.665  1.5240 -0.6811 -0.7473
 8963SOL     OW29842   6.909   0.173   7.741 -0.5603 -0.1913  0.4338
 8963SOL    HW129843   6.936   0.227   7.667 -0.0774  1.4426  1.7203
 8963SOL    HW229844   6.987   0.166   7.796 -0.7040 -1.9942  0.4608
 8964SOL     OW29845   4.865   1.417   0.414 -0.1597 -0.3229 -0.4896
 8964SOL    HW129846   4.954   1.386   0.398  0.5376  2.7047 -3.6147
 8964SOL    HW229847   4.838   1.458   0.332 -2.7988  2.5974  1.5819
 8965SOL     OW29848   4.712   6.176   3.169  0.3875 -0.2459 -0.0640
 8965SOL    HW129849   4.629   6.210   3.135  0.0668  0.8397  1.6226
 8965SOL    HW229850   4.724   6.092   3.125 -0.3148  0.7111 -2.2196
 8966SOL     OW29851   7.754   0.185   4.924  0.1171 -0.2831  0.3154
 8966SOL    HW129852   7.850   0.181   4.918  0.0691 -0.6192 -0.2913
 8966SOL    HW229853   7.724   0.111   4.872 -0.5049  0.7974 -0.9177
 8967SOL     OW29854   6.167   2.526   4.487  0.6014 -0.1495 -0.2559
 8967SOL    HW129855   6.072   2.512   4.488  0.6143 -0.2768 -0.5852
 8967SOL    HW229856   6.204   2.439   4.504  0.6545  0.0427  0.6528
 8968SOL     OW29857   2.622   5.701   2.248 -0.4119 -0.2273  0.1760
 8968SOL    HW129858   2.697   5.671   2.195 -0.1447  0.0812  0.3710
 8968SOL    HW229859   2.608   5.792   2.219  0.3716  0.2773  1.3213
 8969SOL     OW29860   1.356   2.887   2.181 -0.2435 -0.1893 -0.3584
 8969SOL    HW129861   1.399   2.848   2.104 -0.3418  1.5985 -1.3713
 8969SOL    HW229862   1.264   2.896   2.154 -0.3670  0.0737  0.1466
 8970SOL     OW29863   1.706   7.935   1.394 -0.4282 -0.1870 -0.0216
 8970SOL    HW129864   1.652   7.856   1.381 -0.5446 -0.0631 -0.3070
 8970SOL    HW229865   1.774   7.928   1.327  1.3545 -1.5464  1.8028
 8971SOL     OW29866   6.144   2.615   4.099  0.0460 -0.4202  0.4131
 8971SOL    HW129867   6.159   2.708   4.086  0.0639 -0.2346  1.6237
 8971SOL    HW229868   6.101   2.610   4.185  0.0070 -1.5193  0.3410
 8972SOL     OW29869   4.429   2.182   7.355  0.4886  0.2503  0.4637
 8972SOL    HW129870   4.419   2.240   7.430  0.2316 -1.4784  1.8270
 8972SOL    HW229871   4.349   2.129   7.354  0.5478  0.1526 -0.9477
 8973SOL     OW29872   7.264   5.351   5.925  0.0178 -0.3571  0.2550
 8973SOL    HW129873   7.349   5.314   5.946  0.8220  0.9509 -0.5100
 8973SOL    HW229874   7.205   5.276   5.916  1.0467 -1.2649  0.9576
 8974SOL     OW29875   7.187   0.520   5.870 -0.3123  0.4954 -0.8956
 8974SOL    HW129876   7.210   0.439   5.916  2.3668  0.2505 -2.4787
 8974SOL    HW229877   7.211   0.590   5.930 -0.1865  0.1416 -0.5321
 8975SOL     OW29878   0.801   3.517   5.278  0.5712  0.3493 -0.4712
 8975SOL    HW129879   0.734   3.449   5.285  1.7213 -0.7227  0.7097
 8975SOL    HW229880   0.814   3.546   5.368  2.2312 -0.0182 -0.5734
 8976SOL     OW29881   1.243   0.273   4.448 -0.1014  0.3512 -0.1331
 8976SOL    HW129882   1.212   0.276   4.538 -0.9133 -2.0574 -0.2736
 8976SOL    HW229883   1.338   0.264   4.454 -0.1787 -0.0513  0.4932
 8977SOL     OW29884   0.270   2.579   4.949 -1.4425  0.0548  0.2496
 8977SOL    HW129885   0.257   2.499   5.000  1.8110 -0.1533  0.9740
 8977SOL    HW229886   0.247   2.650   5.009  2.4851 -0.1715  2.3440
 8978SOL     OW29887   3.202   4.997   0.137  0.4645  0.1396 -0.2742
 8978SOL    HW129888   3.124   4.943   0.124 -1.6974  2.7311  1.1075
 8978SOL    HW229889   3.228   4.981   0.228 -0.4741  1.6635  0.2972
 8979SOL     OW29890   4.687   3.265   1.299 -0.6443  0.0317  0.3366
 8979SOL    HW129891   4.710   3.350   1.263 -0.9384  0.0966  0.3023
 8979SOL    HW229892   4.771   3.228   1.328 -0.4047 -0.0348 -0.4321
 8980SOL     OW29893   4.351   5.701   2.124 -0.0628 -1.0273  0.2028
 8980SOL    HW129894   4.282   5.746   2.076 -0.3709 -2.0537 -0.3230
 8980SOL    HW229895   4.429   5.710   2.069  0.0679 -0.4750  0.4682
 8981SOL     OW29896   6.121   6.715   6.455 -0.1297 -0.0242  0.6126
 8981SOL    HW129897   6.062   6.669   6.514 -0.4586  0.9931  1.0896
 8981SOL    HW229898   6.184   6.648   6.428 -1.2477 -1.0201  0.4097
 8982SOL     OW29899   4.696   6.012   0.593 -0.7212  0.2210  0.0288
 8982SOL    HW129900   4.772   6.052   0.552 -0.1962  0.5352  1.2613
 8982SOL    HW229901   4.713   5.918   0.590  0.7979  0.3545  2.2152
 8983SOL     OW29902   6.683   0.572   4.651 -0.1166  0.1505 -0.4633
 8983SOL    HW129903   6.626   0.647   4.667 -1.8002 -1.1180 -0.1416
 8983SOL    HW229904   6.765   0.594   4.694 -0.6857  1.6620 -0.0932
 8984SOL     OW29905   4.580   5.557   7.792 -0.0195 -0.2102 -0.1112
 8984SOL    HW129906   4.569   5.634   7.848  0.1082  0.3641 -0.8564
 8984SOL    HW229907   4.638   5.587   7.722 -3.0041  0.1943 -2.5912
 8985SOL     OW29908   0.400   2.783   7.915  0.3653 -0.0310 -0.0153
 8985SOL    HW129909   0.453   2.857   7.943 -0.4897  0.9729 -0.9643
 8985SOL    HW229910   0.442   2.707   7.954  0.1579  1.1167  2.6620
 8986SOL     OW29911   3.751   6.811   7.727 -0.0701  0.3314 -0.2543
 8986SOL    HW129912   3.703   6.820   7.645  0.8298  2.0239 -0.6345
 8986SOL    HW229913   3.837   6.776   7.701 -0.4666 -1.0893  0.2325
 8987SOL     OW29914   6.476   5.681   2.957  0.0104 -0.4003  0.1235
 8987SOL    HW129915   6.546   5.736   2.922  0.7320 -1.3918 -0.0452
 8987SOL    HW229916   6.417   5.668   2.883 -0.1226  0.0652  0.1429
 8988SOL     OW29917   3.309   2.912   1.495  0.2581 -0.0887  0.2781
 8988SOL    HW129918   3.253   2.971   1.544 -0.0357 -0.9422  0.9927
 8988SOL    HW229919   3.335   2.845   1.558 -0.6184 -1.5542 -0.8473
 8989SOL     OW29920   4.301   1.953   1.387  0.0626 -0.3105 -0.6298
 8989SOL    HW129921   4.386   1.985   1.418  1.0614 -1.8496 -1.6816
 8989SOL    HW229922   4.256   2.032   1.357 -0.3582  1.0902  3.1003
 8990SOL     OW29923   0.495   4.073   4.062  0.1137  0.1941 -0.3084
 8990SOL    HW129924   0.500   4.044   3.971 -1.8913 -0.8377 -0.1275
 8990SOL    HW229925   0.441   4.152   4.058 -0.1137  0.0537  0.0030
 8991SOL     OW29926   4.925   0.260   7.895 -0.0096 -0.2323 -0.1797
 8991SOL    HW129927   5.002   0.206   7.912 -0.1295 -0.6878 -1.0055
 8991SOL    HW229928   4.901   0.296   7.980  0.8686 -0.4147  0.1560
 8992SOL     OW29929   0.249   3.609   4.003  0.3124  0.0003 -0.3871
 8992SOL    HW129930   0.260   3.622   3.909 -0.1549 -2.0869 -0.7871
 8992SOL    HW229931   0.315   3.665   4.043  0.5604  0.8838 -1.9521
 8993SOL     OW29932   1.161   1.014   7.773 -0.1936 -0.1131 -0.1079
 8993SOL    HW129933   1.162   1.109   7.760  2.2640 -0.1748 -0.9540
 8993SOL    HW229934   1.232   0.999   7.835  1.1964 -1.5533 -1.9263
 8994SOL     OW29935   7.200   0.333   3.821  0.2608 -0.2695  0.4341
 8994SOL    HW129936   7.258   0.405   3.800 -0.0724 -0.2483 -0.4466
 8994SOL    HW229937   7.188   0.286   3.738  0.0387 -1.0160  0.8734
 8995SOL     OW29938   1.134   7.235   5.573  0.3919 -0.0179  0.0318
 8995SOL    HW129939   1.063   7.191   5.526  0.4466 -0.5479  0.4397
 8995SOL    HW229940   1.090   7.300   5.627  0.0824 -1.2596  1.3162
 8996SOL     OW29941   0.759   2.779   7.576  0.5632 -0.2171  0.1239
 8996SOL    HW129942   0.688   2.839   7.599  1.0009  0.1028  0.6735
 8996SOL    HW229943   0.821   2.832   7.526 -0.3004 -0.8692 -1.7140
 8997SOL     OW29944   2.614   3.640   5.929  0.3368 -0.0977 -0.0239
 8997SOL    HW129945   2.527   3.612   5.903  0.3126  0.3579 -0.4611
 8997SOL    HW229946   2.674   3.594   5.869  0.3104  0.5757 -0.5853
 8998SOL     OW29947   3.814   4.528   5.535  0.6416  0.0531 -0.1350
 8998SOL    HW129948   3.852   4.478   5.607 -1.1852 -2.5499 -0.8303
 8998SOL    HW229949   3.731   4.561   5.570  0.6773  0.4852 -0.4510
 8999SOL     OW29950   4.436   1.739   5.080  0.1973  0.2544 -0.1294
 8999SOL    HW129951   4.519   1.698   5.058  0.6115  0.2754  1.2667
 8999SOL    HW229952   4.453   1.785   5.163 -1.2296  0.1363  0.2679
 9000SOL     OW29953   4.869   0.515   6.142  0.6927  0.2768  0.5017
 9000SOL    HW129954   4.795   0.480   6.193  0.7800  1.3839  1.4259
 9000SOL    HW229955   4.927   0.553   6.208  3.5311 -2.9290  0.1525
 9001SOL     OW29956   1.802   2.965   5.718 -0.4932 -0.4829  0.2184
 9001SOL    HW129957   1.815   3.029   5.648  2.6330 -0.1200  0.9879
 9001SOL    HW229958   1.862   2.894   5.696 -0.6058 -1.0709  1.7219
 9002SOL     OW29959   7.309   7.714   6.885  0.8847  0.1139 -0.2067
 9002SOL    HW129960   7.312   7.731   6.979 -1.0114  1.0769 -0.2789
 9002SOL    HW229961   7.225   7.669   6.871  1.1809 -0.1046 -1.4334
 9003SOL     OW29962   4.935   2.392   2.377 -0.3635 -0.2537  0.0811
 9003SOL    HW129963   5.018   2.364   2.416 -0.0602 -1.2225 -1.1885
 9003SOL    HW229964   4.915   2.324   2.312 -2.0926  0.0291  0.2760
 9004SOL     OW29965   3.738   4.905   0.114  0.7623  0.2390 -0.0638
 9004SOL    HW129966   3.756   4.929   0.205  1.8288 -0.7050 -0.0073
 9004SOL    HW229967   3.668   4.840   0.120 -0.1970  1.2417 -0.0375
 9005SOL     OW29968   4.836   0.876   7.613 -0.3577 -0.0976  0.2610
 9005SOL    HW129969   4.860   0.814   7.545  0.0921  1.6738 -1.2674
 9005SOL    HW229970   4.893   0.854   7.687  2.3860  0.7055 -1.4733
 9006SOL     OW29971   4.884   5.974   1.014  0.4813  0.3421 -0.1111
 9006SOL    HW129972   4.803   6.017   0.986  1.2119  0.4289 -2.2332
 9006SOL    HW229973   4.866   5.946   1.104 -1.1484  2.2001  0.2037
 9007SOL     OW29974   5.732   5.125   0.764  0.0313  0.7459  0.1305
 9007SOL    HW129975   5.803   5.111   0.827  0.1094 -0.6152 -0.2340
 9007SOL    HW229976   5.759   5.075   0.687 -1.1587  0.4963 -0.1341
 9008SOL     OW29977   0.907   1.518   2.206  0.6462  0.4972  0.2618
 9008SOL    HW129978   0.923   1.453   2.274 -0.1325 -0.9049 -0.8585
 9008SOL    HW229979   0.977   1.583   2.218  0.4755  0.3272  2.4160
 9009SOL     OW29980   5.483   4.651   5.586 -0.2529 -0.0417  0.3559
 9009SOL    HW129981   5.561   4.695   5.619 -0.6918  0.1014  1.2210
 9009SOL    HW229982   5.485   4.565   5.628  0.7962 -1.0476 -1.5957
 9010SOL     OW29983   3.272   1.275   6.899 -0.2718  0.1957  0.2738
 9010SOL    HW129984   3.240   1.202   6.952 -2.5996  0.9534  0.0266
 9010SOL    HW229985   3.352   1.303   6.943 -1.5872  0.1710  2.8501
 9011SOL     OW29986   5.915   6.857   6.586 -0.0053  0.3856 -0.3200
 9011SOL    HW129987   6.010   6.856   6.592 -0.0508  0.7632  0.5910
 9011SOL    HW229988   5.885   6.834   6.674 -0.7678 -0.5831 -0.8024
 9012SOL     OW29989   0.117   1.122   7.136  0.5900 -0.2724 -0.2438
 9012SOL    HW129990   0.194   1.090   7.090  0.9654 -0.9612  0.8216
 9012SOL    HW229991   0.055   1.049   7.136  0.3740 -0.0941 -0.1419
 9013SOL     OW29992   4.421   6.655   3.194 -0.2290  0.2806 -0.0049
 9013SOL    HW129993   4.423   6.718   3.122  1.2997 -1.1513 -1.2762
 9013SOL    HW229994   4.342   6.679   3.243 -0.6065  2.1247 -1.3748
 9014SOL     OW29995   0.101   0.671   7.179  0.6522  0.1710 -0.1584
 9014SOL    HW129996   0.071   0.582   7.198 -1.5825  1.0857  0.9175
 9014SOL    HW229997   0.063   0.691   7.094 -1.7499  1.2181  1.0676
 9015SOL     OW29998   2.929   7.129   3.813 -0.2139  0.2729 -0.7446
 9015SOL    HW129999   2.997   7.169   3.759  0.3930 -0.3176 -0.4306
 9015SOL    HW230000   2.959   7.141   3.903 -0.5531  0.0586 -0.6010
 9016SOL     OW30001   6.116   7.612   0.543 -0.5526 -0.0058 -0.1025
 9016SOL    HW130002   6.169   7.692   0.545  0.2276 -0.5283  0.8162
 9016SOL    HW230003   6.174   7.546   0.505 -1.0667 -0.2329 -0.5073
 9017SOL     OW30004   7.397   2.167   7.093  0.0315 -0.3576 -0.1694
 9017SOL    HW130005   7.422   2.210   7.174 -0.0240  0.2195 -0.4509
 9017SOL    HW230006   7.470   2.183   7.033 -0.1023 -0.4363 -0.3553
 9018SOL     OW30007   4.235   2.723   1.569  0.2621  0.2870  0.5963
 9018SOL    HW130008   4.279   2.779   1.505  1.6843 -0.5806  0.7650
 9018SOL    HW230009   4.230   2.637   1.526 -1.0353  0.2903  0.7036
 9019SOL     OW30010   6.502   0.093   5.583  0.9475 -0.4451  0.1580
 9019SOL    HW130011   6.566   0.122   5.518  0.7874 -1.5687 -0.5145
 9019SOL    HW230012   6.420   0.088   5.534  0.7838 -1.0923  0.5030
 9020SOL     OW30013   5.942   0.791   6.558  0.4706  0.4136 -0.0128
 9020SOL    HW130014   5.876   0.818   6.494  0.0747 -0.4018  0.0342
 9020SOL    HW230015   5.906   0.818   6.643  0.1536 -0.0919  0.0198
 9021SOL     OW30016   4.518   4.821   2.323 -0.2876 -0.0004 -0.1214
 9021SOL    HW130017   4.597   4.813   2.270 -0.8991 -1.4936 -0.8404
 9021SOL    HW230018   4.458   4.756   2.289 -1.6390  0.6942  0.7993
 9022SOL     OW30019   0.370   2.838   7.252 -0.2609  1.0520  0.3193
 9022SOL    HW130020   0.417   2.826   7.170 -1.5389  0.3653 -0.3412
 9022SOL    HW230021   0.287   2.878   7.226 -1.2876 -0.4899  1.0772
 9023SOL     OW30022   2.125   4.212   5.943 -0.2327 -0.3634  0.2418
 9023SOL    HW130023   2.067   4.179   6.011  1.2546 -0.8380  1.3293
 9023SOL    HW230024   2.204   4.240   5.990  0.2630  0.6686 -1.1351
 9024SOL     OW30025   6.765   0.437   5.574  0.5515  0.4419  0.0106
 9024SOL    HW130026   6.760   0.494   5.497 -0.9450  0.8227  0.3482
 9024SOL    HW230027   6.803   0.491   5.642  1.9393  0.0845 -0.4589
 9025SOL     OW30028   5.991   3.744   6.235  0.1417 -0.6309  0.0219
 9025SOL    HW130029   6.067   3.779   6.188 -0.2552  0.7091  0.3487
 9025SOL    HW230030   6.027   3.674   6.290  1.0957 -0.1854 -0.0181
 9026SOL     OW30031   2.812   3.618   5.125  0.8533  0.7312  1.2890
 9026SOL    HW130032   2.879   3.638   5.059 -0.1149  0.0924  0.0717
 9026SOL    HW230033   2.845   3.539   5.168  0.0316 -0.7577 -0.6471
 9027SOL     OW30034   6.224   7.427   1.738 -0.0464 -0.1521 -0.0870
 9027SOL    HW130035   6.179   7.368   1.678  0.4419 -0.0739 -0.5388
 9027SOL    HW230036   6.154   7.464   1.792 -0.4424 -0.5498 -0.3216
 9028SOL     OW30037   5.397   0.197   5.301 -0.2611  0.4146  0.1546
 9028SOL    HW130038   5.336   0.269   5.289 -0.6386  0.2657  1.0716
 9028SOL    HW230039   5.448   0.221   5.379  0.6208  0.3746 -0.3950
 9029SOL     OW30040   0.913   2.353   6.332  0.3184  0.3539  0.0471
 9029SOL    HW130041   0.973   2.421   6.302 -0.5037  0.7907 -0.6478
 9029SOL    HW230042   0.841   2.401   6.372  0.3077 -0.1609  0.6669
 9030SOL     OW30043   4.527   5.907   2.653  0.2718  0.0525  0.5440
 9030SOL    HW130044   4.556   5.819   2.627 -0.2234 -0.2305  0.9256
 9030SOL    HW230045   4.509   5.899   2.746 -0.4261  0.3830  0.4446
 9031SOL     OW30046   4.444   5.287   1.981 -0.5953  0.0173 -0.0267
 9031SOL    HW130047   4.514   5.324   1.927 -1.6667  0.3374 -1.2697
 9031SOL    HW230048   4.446   5.193   1.962  0.0271 -0.1011  0.5977
 9032SOL     OW30049   2.962   1.889   6.407 -0.5315 -0.3431  0.4922
 9032SOL    HW130050   2.890   1.827   6.391 -1.6362  0.6744  1.3380
 9032SOL    HW230051   2.992   1.913   6.320  1.0349 -3.2547  0.1177
 9033SOL     OW30052   0.258   5.605   5.181 -0.2648  0.1554 -0.8034
 9033SOL    HW130053   0.259   5.561   5.266  0.7672  0.1247 -0.8285
 9033SOL    HW230054   0.168   5.639   5.173 -0.6059 -0.5549 -0.0804
 9034SOL     OW30055   0.936   1.578   2.531  0.2551 -0.3055  0.0847
 9034SOL    HW130056   0.962   1.596   2.621  0.5957  0.1171 -0.0976
 9034SOL    HW230057   0.847   1.544   2.538  0.1779 -0.0071  0.5596
 9035SOL     OW30058   1.028   6.909   3.890  0.5054 -0.2445  0.8176
 9035SOL    HW130059   1.035   6.965   3.967  0.0372 -1.6646  1.9197
 9035SOL    HW230060   1.044   6.969   3.816  0.2288  1.2886  1.9468
 9036SOL     OW30061   4.973   3.822   2.993  0.5784  0.9167 -0.3814
 9036SOL    HW130062   4.926   3.898   2.960 -1.2081 -0.2700 -0.6529
 9036SOL    HW230063   4.975   3.761   2.920  1.3075  0.3783  0.0723
 9037SOL     OW30064   7.579   4.579   5.332  0.4988  0.4947 -0.4552
 9037SOL    HW130065   7.572   4.607   5.424  0.5613  1.9946 -0.8917
 9037SOL    HW230066   7.549   4.488   5.333 -0.0767  0.6722  0.9575
 9038SOL     OW30067   0.677   6.337   1.150  0.4680 -0.4694 -0.4645
 9038SOL    HW130068   0.703   6.301   1.235  0.8404 -0.0078 -0.3782
 9038SOL    HW230069   0.586   6.363   1.162  0.5076 -0.4384 -0.2162
 9039SOL     OW30070   0.253   4.461   3.391  0.2895  0.4324  0.1813
 9039SOL    HW130071   0.192   4.430   3.457 -1.8865  1.3390 -1.2929
 9039SOL    HW230072   0.295   4.538   3.429  0.1982  0.0593  1.0411
 9040SOL     OW30073   0.434   4.710   0.520  0.0462  0.1151 -0.2701
 9040SOL    HW130074   0.408   4.802   0.526 -0.1256 -0.0071  1.3914
 9040SOL    HW230075   0.512   4.711   0.465  1.9096  1.7325  2.1338
 9041SOL     OW30076   2.596   6.443   5.881 -0.1374  0.7738 -0.1653
 9041SOL    HW130077   2.622   6.360   5.922  1.3084  1.5194  0.4790
 9041SOL    HW230078   2.662   6.459   5.814 -0.3643  1.4440 -0.2383
 9042SOL     OW30079   0.694   0.485   0.499 -0.6151 -0.2358  0.7921
 9042SOL    HW130080   0.673   0.425   0.571 -0.0016 -2.0739 -0.4842
 9042SOL    HW230081   0.783   0.462   0.474 -1.2293 -0.5158 -1.3377
 9043SOL     OW30082   6.766   5.211   1.014 -0.3788 -0.2225 -0.5682
 9043SOL    HW130083   6.802   5.217   0.926  1.2283  2.0368  0.1605
 9043SOL    HW230084   6.710   5.288   1.023  1.6561  1.1578  1.2313
 9044SOL     OW30085   0.548   4.080   7.294 -0.1777  0.2497  0.0653
 9044SOL    HW130086   0.541   4.042   7.207  0.3647 -0.2346  0.2280
 9044SOL    HW230087   0.616   4.029   7.338 -0.1708  0.7358  0.6431
 9045SOL     OW30088   7.892   8.059   3.885 -0.4807  0.4635  0.1596
 9045SOL    HW130089   7.808   8.048   3.930 -1.1363  0.5432 -1.0005
 9045SOL    HW230090   7.949   7.992   3.924 -1.8133 -1.2479 -0.7039
 9046SOL     OW30091   1.137   7.183   7.192 -0.3317 -0.1970  0.0249
 9046SOL    HW130092   1.163   7.095   7.167  1.0254  0.1020  0.2921
 9046SOL    HW230093   1.191   7.240   7.137 -1.8222  0.4777 -0.7714
 9047SOL     OW30094   7.668   7.764   2.151 -0.2862  0.3319  0.3566
 9047SOL    HW130095   7.610   7.831   2.116 -0.5766  0.6023  1.3230
 9047SOL    HW230096   7.626   7.681   2.128  0.2083  0.4540 -1.0731
 9048SOL     OW30097   2.781   6.372   6.206  0.3983  0.2636 -0.4771
 9048SOL    HW130098   2.687   6.371   6.189  0.1761 -1.3444  0.7041
 9048SOL    HW230099   2.800   6.286   6.243  1.9630  1.3062  1.2876
 9049SOL     OW30100   5.143   1.897   6.200 -0.0254  0.0253 -0.4428
 9049SOL    HW130101   5.068   1.869   6.146 -1.0076 -1.9003  1.7833
 9049SOL    HW230102   5.136   1.845   6.280  1.7339  2.2914  1.3151
 9050SOL     OW30103   8.095   7.055   7.086  0.1453  0.1228  0.5073
 9050SOL    HW130104   8.062   6.965   7.082  1.0082 -0.1765 -0.1116
 9050SOL    HW230105   8.184   7.050   7.051  0.0996  1.2717  0.1796
 9051SOL     OW30106   0.600   0.614   6.757  0.0539  0.4182 -0.1790
 9051SOL    HW130107   0.569   0.618   6.666  0.4806 -0.3925 -0.3685
 9051SOL    HW230108   0.695   0.612   6.750  0.0786 -1.0676  0.2041
 9052SOL     OW30109   5.075   0.245   2.855  0.7696  0.0231 -0.3923
 9052SOL    HW130110   5.084   0.276   2.945 -1.7969 -0.7745  0.2305
 9052SOL    HW230111   5.139   0.174   2.847  0.9257  0.0113  0.8474
 9053SOL     OW30112   2.311   2.655   0.392 -0.2193 -0.2601  0.0154
 9053SOL    HW130113   2.373   2.678   0.461 -1.1278  0.6969  0.5347
 9053SOL    HW230114   2.338   2.568   0.363  1.7370  0.3890 -0.2135
 9054SOL     OW30115   6.962   0.818   3.924 -0.4625 -0.4157 -0.8444
 9054SOL    HW130116   7.030   0.844   3.862  0.1940  1.6922  0.6462
 9054SOL    HW230117   6.884   0.868   3.897 -0.3836 -0.0590 -0.4131
 9055SOL     OW30118   0.294   0.352   1.153  0.2495  0.8562  0.0035
 9055SOL    HW130119   0.275   0.318   1.240  0.4271 -0.3846 -0.4224
 9055SOL    HW230120   0.209   0.371   1.115  0.1687  1.3269  0.4047
 9056SOL     OW30121   4.134   4.469   5.459 -0.0073  0.2035  0.9438
 9056SOL    HW130122   4.044   4.463   5.427  0.8195  1.2146 -1.8095
 9056SOL    HW230123   4.147   4.387   5.507 -1.4262 -1.4372 -1.2770
 9057SOL     OW30124   6.221   6.422   5.701 -0.1929  0.2656  0.2753
 9057SOL    HW130125   6.313   6.422   5.675 -0.2369  1.0132  0.1003
 9057SOL    HW230126   6.217   6.363   5.776  0.5174  0.6236  0.5990
 9058SOL     OW30127   7.692   6.465   0.569 -0.3951  0.0056 -0.3723
 9058SOL    HW130128   7.697   6.513   0.652  0.5229  0.4309 -0.6600
 9058SOL    HW230129   7.599   6.451   0.555 -0.5450 -0.5579  1.0068
 9059SOL     OW30130   6.227   7.451   1.354 -0.2545  0.1365  0.2866
 9059SOL    HW130131   6.219   7.447   1.258 -0.6298 -1.8943  0.3555
 9059SOL    HW230132   6.193   7.538   1.377 -0.7923  0.4097 -1.3722
 9060SOL     OW30133   5.829   7.223   1.420 -0.2869  0.7548  0.0229
 9060SOL    HW130134   5.840   7.128   1.429 -0.8682  0.7198  0.4558
 9060SOL    HW230135   5.903   7.251   1.366 -0.7512 -0.1191 -1.1135
 9061SOL     OW30136   1.924   0.229   5.771 -0.4227 -0.3711  0.3279
 9061SOL    HW130137   1.962   0.283   5.702  0.2536 -0.9770  0.2126
 9061SOL    HW230138   1.929   0.139   5.737 -0.6653 -0.6048  0.8973
 9062SOL     OW30139   5.340   4.973   7.924 -0.0197 -0.4787  0.2608
 9062SOL    HW130140   5.322   4.979   8.018  1.3521 -0.6851  0.5485
 9062SOL    HW230141   5.289   5.045   7.886  0.9714  0.8789  1.4035
 9063SOL     OW30142   0.190   0.781   7.422  0.1566  0.4809 -0.4582
 9063SOL    HW130143   0.199   0.763   7.328  0.1002  0.0751 -0.3883
 9063SOL    HW230144   0.097   0.796   7.435  0.2367  1.0904 -0.5601
 9064SOL     OW30145   1.479   1.467   7.453 -0.2735 -0.1858  0.3969
 9064SOL    HW130146   1.457   1.513   7.535  0.4402 -0.9455  1.0361
 9064SOL    HW230147   1.401   1.415   7.434 -0.1986 -0.5155  0.9676
 9065SOL     OW30148   0.858   5.078   2.439 -0.0705  0.0985  0.1805
 9065SOL    HW130149   0.950   5.052   2.451  0.1438  0.6546 -0.2072
 9065SOL    HW230150   0.833   5.115   2.524  0.5577  1.3702 -0.1509
 9066SOL     OW30151   6.180   1.483   6.001 -0.2210  0.3111 -0.8220
 9066SOL    HW130152   6.222   1.450   5.922  1.6954  0.3055  0.1516
 9066SOL    HW230153   6.134   1.408   6.037  1.9953 -0.7416  0.0098
 9067SOL     OW30154   4.212   1.578   5.445  0.1246  0.0730 -0.2953
 9067SOL    HW130155   4.227   1.522   5.521  1.8141  0.5874 -0.2106
 9067SOL    HW230156   4.263   1.657   5.463 -2.9614  2.1635  0.0699
 9068SOL     OW30157   3.014   2.279   6.556 -0.5110 -0.1339 -0.5081
 9068SOL    HW130158   2.967   2.273   6.473 -0.4619  0.3999 -0.5787
 9068SOL    HW230159   3.034   2.188   6.580 -0.3146 -0.2754 -1.2033
 9069SOL     OW30160   6.478   2.199   3.609  0.3705  0.7033 -0.3913
 9069SOL    HW130161   6.428   2.234   3.535  0.2594 -1.4102 -1.3857
 9069SOL    HW230162   6.528   2.127   3.572 -1.0025 -1.5779  1.8931
 9070SOL     OW30163   2.333   1.701   4.817  0.3234 -0.6767 -0.5543
 9070SOL    HW130164   2.418   1.701   4.773  0.1033  2.5051 -1.1765
 9070SOL    HW230165   2.340   1.770   4.883 -2.2528  0.8473 -1.7194
 9071SOL     OW30166   2.106   4.407   3.630 -0.2972 -0.0451  0.6173
 9071SOL    HW130167   2.161   4.356   3.689  0.4964  2.5906  2.3137
 9071SOL    HW230168   2.133   4.497   3.643 -2.0039  0.9412 -1.8262
 9072SOL     OW30169   4.835   3.533   6.040  0.0549 -0.3087  0.3577
 9072SOL    HW130170   4.829   3.489   5.955  0.0143 -0.9515  0.6809
 9072SOL    HW230171   4.923   3.571   6.041 -0.5278  1.1309 -0.6286
 9073SOL     OW30172   1.003   6.112   5.280  0.4365  0.7832 -0.5033
 9073SOL    HW130173   1.040   6.080   5.362 -1.0780  0.8719  0.2516
 9073SOL    HW230174   1.026   6.205   5.277  0.8588  0.6828 -0.3898
 9074SOL     OW30175   1.737   4.836   2.397 -0.0112  0.4849 -0.4481
 9074SOL    HW130176   1.679   4.771   2.436  1.8941  0.3990  2.5263
 9074SOL    HW230177   1.729   4.913   2.455  1.3845  1.1472 -1.0928
 9075SOL     OW30178   3.214   2.260   3.872 -0.2555  0.7495 -0.3732
 9075SOL    HW130179   3.177   2.317   3.940  1.8978  1.0673  0.6079
 9075SOL    HW230180   3.146   2.256   3.805 -0.6753  4.1518 -0.3180
 9076SOL     OW30181   1.356   0.305   5.834 -0.8013  0.2807 -0.4640
 9076SOL    HW130182   1.440   0.345   5.812  1.0716 -1.7400  2.4890
 9076SOL    HW230183   1.322   0.357   5.907 -0.6190 -0.6829  0.3254
 9077SOL     OW30184   1.476   0.648   6.298 -0.0670  0.2729 -0.0120
 9077SOL    HW130185   1.541   0.711   6.328 -1.2148  0.4544  2.3352
 9077SOL    HW230186   1.466   0.588   6.371 -0.4648 -1.4692 -1.4461
 9078SOL     OW30187   7.272   1.778   5.803  0.2958  0.1980 -0.4705
 9078SOL    HW130188   7.244   1.862   5.839  0.2081 -0.2939  0.6509
 9078SOL    HW230189   7.218   1.766   5.725 -0.3251  0.7715 -0.1358
 9079SOL     OW30190   7.330   5.286   6.652 -0.2736  1.0445 -0.0672
 9079SOL    HW130191   7.421   5.317   6.655  0.0873 -0.0307  0.9767
 9079SOL    HW230192   7.281   5.358   6.611  0.8393  2.1618  0.5021
 9080SOL     OW30193   5.421   7.418   0.910  0.1398  0.6430 -0.0032
 9080SOL    HW130194   5.440   7.485   0.844  0.0870  0.4000 -0.2636
 9080SOL    HW230195   5.482   7.437   0.981  0.8491  0.3306 -0.5139
 9081SOL     OW30196   3.150   6.891   3.371 -0.1138 -0.0126  0.2980
 9081SOL    HW130197   3.217   6.959   3.378 -0.0209 -0.2024  1.4929
 9081SOL    HW230198   3.150   6.849   3.457  0.6593 -2.3131 -0.7337
 9082SOL     OW30199   0.055   4.000   3.360  0.0932 -0.4849 -0.6200
 9082SOL    HW130200   0.007   4.076   3.328 -0.4035 -0.9055 -0.8983
 9082SOL    HW230201   0.107   4.033   3.434 -2.9074 -0.5800  1.7341
 9083SOL     OW30202   7.917   0.915   3.607 -0.2915 -0.6777 -0.2340
 9083SOL    HW130203   7.899   0.821   3.610  0.0507 -0.7237  0.9391
 9083SOL    HW230204   7.860   0.953   3.674  1.0966 -0.3400  0.7990
 9084SOL     OW30205   0.885   1.531   7.910  0.2555 -0.0623 -0.4405
 9084SOL    HW130206   0.929   1.481   7.979 -0.2434  0.5724  0.3633
 9084SOL    HW230207   0.833   1.466   7.863  1.8202 -0.7840 -1.2540
 9085SOL     OW30208   5.827   3.832   4.365 -0.2754  0.3082  0.7014
 9085SOL    HW130209   5.846   3.781   4.444 -0.0309  1.0975  1.1600
 9085SOL    HW230210   5.905   3.887   4.353 -0.8399  1.1034  0.6303
 9086SOL     OW30211   1.636   4.528   7.574 -0.2809 -0.7138  0.6092
 9086SOL    HW130212   1.641   4.453   7.516 -0.3686 -0.5137  0.3397
 9086SOL    HW230213   1.603   4.599   7.519  0.0799 -0.4034  0.7856
 9087SOL     OW30214   2.391   4.144   2.377 -0.0198  0.2071 -0.1659
 9087SOL    HW130215   2.343   4.138   2.460  2.1866 -0.2275  1.1744
 9087SOL    HW230216   2.393   4.054   2.344  1.1273 -0.0519  0.5688
 9088SOL     OW30217   4.707   3.184   6.256  0.1599 -0.3352 -0.2275
 9088SOL    HW130218   4.782   3.223   6.301  1.1472 -0.1897 -1.9165
 9088SOL    HW230219   4.641   3.254   6.253  0.2185 -0.2367  0.6349
 9089SOL     OW30220   3.601   3.318   5.139 -0.4070 -0.2181 -0.6826
 9089SOL    HW130221   3.660   3.353   5.206 -0.7875 -1.3664  0.2923
 9089SOL    HW230222   3.527   3.379   5.137 -0.3190 -0.0872 -0.1616
 9090SOL     OW30223   1.736   0.257   4.258  0.6183  0.3053 -0.0791
 9090SOL    HW130224   1.815   0.232   4.306 -0.0991  0.3281  1.1357
 9090SOL    HW230225   1.755   0.347   4.228  1.6509 -0.2373 -1.1481
 9091SOL     OW30226   3.599   4.958   7.260 -0.2079 -0.1793 -0.5680
 9091SOL    HW130227   3.518   4.922   7.296 -0.3881  0.5272 -0.2589
 9091SOL    HW230228   3.573   5.043   7.224  0.2064 -0.3667 -1.3219
 9092SOL     OW30229   4.281   3.470   6.785  0.6056  0.2535 -0.4847
 9092SOL    HW130230   4.281   3.474   6.690 -1.0372  2.6909 -0.4528
 9092SOL    HW230231   4.316   3.555   6.813  0.1338 -0.0396  1.0817
 9093SOL     OW30232   0.176   4.865   0.202 -0.4425  0.4659 -0.2014
 9093SOL    HW130233   0.141   4.944   0.245 -1.1451  0.2259 -0.3077
 9093SOL    HW230234   0.099   4.826   0.160 -0.9206 -2.1710  2.6959
 9094SOL     OW30235   5.198   4.394   0.051  0.8210 -0.3971  0.0679
 9094SOL    HW130236   5.142   4.462   0.012  0.2799 -0.0735  1.3586
 9094SOL    HW230237   5.219   4.428   0.138  1.2302 -1.5186  0.4182
 9095SOL     OW30238   2.576   5.864   2.946  0.5161 -0.0101  0.4202
 9095SOL    HW130239   2.596   5.847   2.854  1.9300  0.1962  0.6793
 9095SOL    HW230240   2.657   5.899   2.983  1.1947 -3.3404  2.5730
 9096SOL     OW30241   7.277   6.599   5.474 -0.3809 -0.2221  0.3750
 9096SOL    HW130242   7.350   6.641   5.519  0.6003 -2.1159  0.6590
 9096SOL    HW230243   7.238   6.668   5.421  0.2375  1.3542  1.9189
 9097SOL     OW30244   0.153   3.297   7.574 -0.1300  0.3080  0.1366
 9097SOL    HW130245   0.100   3.303   7.654 -2.1310  0.5922 -1.1382
 9097SOL    HW230246   0.126   3.372   7.522 -1.3535 -1.5785 -2.1825
 9098SOL     OW30247   7.325   7.455   0.193 -0.2995 -0.6678 -1.0342
 9098SOL    HW130248   7.324   7.423   0.283 -1.3723 -0.9829 -1.1388
 9098SOL    HW230249   7.331   7.550   0.200  0.4886 -0.7386 -0.6594
 9099SOL     OW30250   6.587   2.699   1.074 -0.1451 -0.6316 -0.3221
 9099SOL    HW130251   6.537   2.625   1.109 -1.7337  0.9161  0.8315
 9099SOL    HW230252   6.521   2.755   1.033  0.6374  1.2784  0.8870
 9100SOL     OW30253   4.812   3.919   4.881  0.2069  0.2516  0.1471
 9100SOL    HW130254   4.841   3.992   4.826 -0.4445  0.7093  0.3894
 9100SOL    HW230255   4.831   3.841   4.829 -1.5962  0.7207 -1.3369
 9101SOL     OW30256   3.172   0.566   8.126  0.4696  0.2048 -0.1999
 9101SOL    HW130257   3.266   0.571   8.110  0.3926 -1.2042 -1.3630
 9101SOL    HW230258   3.144   0.488   8.078 -0.9177 -0.7314  1.9944
 9102SOL     OW30259   1.676   3.294   7.616 -0.3383  0.5092 -0.0241
 9102SOL    HW130260   1.620   3.343   7.675 -0.0527  0.4879  0.2701
 9102SOL    HW230261   1.702   3.217   7.667  1.1629  1.2525  0.4020
 9103SOL     OW30262   4.835   4.958   6.380 -0.0835  0.0183  0.0884
 9103SOL    HW130263   4.747   4.939   6.348 -0.1935  1.6399 -0.6589
 9103SOL    HW230264   4.872   4.872   6.401 -0.4950 -1.0612 -3.0633
 9104SOL     OW30265   1.077   3.016   2.097 -0.2190 -0.3177  0.3648
 9104SOL    HW130266   1.121   3.057   2.023 -0.3868 -0.0475  0.4139
 9104SOL    HW230267   1.009   2.962   2.058 -1.1589  0.8272  0.3640
 9105SOL     OW30268   4.438   3.337   5.382  1.0111 -0.2744  0.3958
 9105SOL    HW130269   4.467   3.370   5.297  2.9946  0.5035  1.3139
 9105SOL    HW230270   4.423   3.244   5.367  0.4841  0.0076 -0.9981
 9106SOL     OW30271   3.955   7.726   7.260  0.2612  1.0763  0.1646
 9106SOL    HW130272   4.017   7.684   7.200 -1.4643 -0.8588 -0.3709
 9106SOL    HW230273   3.948   7.665   7.333 -1.7651  0.7156 -0.2778
 9107SOL     OW30274   5.589   6.767   5.955 -0.4288 -0.5962  0.1024
 9107SOL    HW130275   5.601   6.673   5.967  0.0781 -0.3720  1.5354
 9107SOL    HW230276   5.665   6.806   5.997 -0.5274  0.4579 -0.6600
 9108SOL     OW30277   0.345   7.552   6.286 -0.1050 -0.5637 -0.2082
 9108SOL    HW130278   0.347   7.545   6.191 -0.0582  1.2040 -0.3688
 9108SOL    HW230279   0.413   7.493   6.316 -0.3912 -1.4475 -1.2437
 9109SOL     OW30280   0.613   7.394   0.602  0.0056  0.2365  0.7319
 9109SOL    HW130281   0.672   7.448   0.654  0.9265 -0.0541  0.0103
 9109SOL    HW230282   0.668   7.355   0.535 -1.2895  1.2414 -0.9915
 9110SOL     OW30283   1.076   4.696   4.397 -0.1876  0.0432 -0.3825
 9110SOL    HW130284   1.166   4.675   4.371  0.4605  2.9208 -0.7310
 9110SOL    HW230285   1.075   4.680   4.492 -0.1116 -2.3953 -0.7274
 9111SOL     OW30286   5.657   7.238   3.361  0.1718  0.3374  0.5432
 9111SOL    HW130287   5.660   7.253   3.266 -0.1564 -0.7935  0.3457
 9111SOL    HW230288   5.575   7.191   3.375 -0.2386  1.3153  1.5190
 9112SOL     OW30289   7.271   2.291   6.197 -0.4099 -0.0475 -0.0028
 9112SOL    HW130290   7.363   2.314   6.180 -0.5234  1.6178  1.3640
 9112SOL    HW230291   7.221   2.353   6.145 -0.7275  1.0362  1.5231
 9113SOL     OW30292   3.556   6.452   3.502  0.6308 -0.1912 -0.8430
 9113SOL    HW130293   3.503   6.400   3.563  1.1628 -2.8746 -2.5076
 9113SOL    HW230294   3.492   6.499   3.448  0.1524  1.9293  1.4093
 9114SOL     OW30295   6.760   2.151   0.812  0.2706  0.0062  0.0763
 9114SOL    HW130296   6.702   2.225   0.792  0.3163  0.2298  0.7281
 9114SOL    HW230297   6.741   2.086   0.744  0.8249  0.9419 -1.0062
 9115SOL     OW30298   4.539   4.904   4.824  0.4002 -0.3491  0.3094
 9115SOL    HW130299   4.525   4.851   4.746 -0.5637  0.0022  0.2378
 9115SOL    HW230300   4.459   4.893   4.875  0.3167  0.7808  0.4483
 9116SOL     OW30301   4.637   4.875   5.868 -0.2090  0.0357  0.0948
 9116SOL    HW130302   4.698   4.803   5.887 -0.6557 -0.0955  1.0999
 9116SOL    HW230303   4.674   4.950   5.914 -0.9070 -0.0965  0.8917
 9117SOL     OW30304   4.487   0.124   2.679 -0.0291 -0.1466  0.1703
 9117SOL    HW130305   4.583   0.125   2.679 -0.0170  0.7000 -1.3116
 9117SOL    HW230306   4.462   0.169   2.760  0.8020 -0.6993  0.7517
 9118SOL     OW30307   2.585   4.670   4.301  0.5256  0.2598  0.2072
 9118SOL    HW130308   2.548   4.737   4.245 -0.4730 -0.5627 -0.1544
 9118SOL    HW230309   2.600   4.713   4.385  1.5369  1.3606 -0.5137
 9119SOL     OW30310   7.661   8.001   8.117  0.1720 -0.0047 -0.5469
 9119SOL    HW130311   7.745   8.011   8.072 -1.0459 -0.1029 -3.0409
 9119SOL    HW230312   7.659   7.910   8.144  1.5517  0.4177  1.1323
 9120SOL     OW30313   7.007   2.550   1.185  0.1932  0.2224  0.1850
 9120SOL    HW130314   6.916   2.576   1.168  0.0911  0.7419  1.3422
 9120SOL    HW230315   7.059   2.606   1.127 -0.2459 -0.7753 -1.2144
 9121SOL     OW30316   5.920   0.479   6.093  0.0126 -0.1552 -0.0079
 9121SOL    HW130317   5.966   0.445   6.016  0.9922 -1.9448  1.3005
 9121SOL    HW230318   5.918   0.406   6.155 -2.8762  0.4574  0.7954
 9122SOL     OW30319   0.662   3.659   3.165 -0.0630 -0.1978 -0.0287
 9122SOL    HW130320   0.664   3.739   3.112 -1.4298  0.8135  1.3469
 9122SOL    HW230321   0.609   3.683   3.241 -0.4524 -2.4065  0.4483
 9123SOL     OW30322   5.157   3.623   2.400  0.0553  0.0851  0.4124
 9123SOL    HW130323   5.224   3.682   2.435 -0.3584  1.0729 -0.4162
 9123SOL    HW230324   5.203   3.541   2.382  0.8597  0.4954  0.5936
 9124SOL     OW30325   1.257   0.846   5.548  0.0336  0.4513  0.2593
 9124SOL    HW130326   1.184   0.807   5.501 -1.1253  2.5069  0.2326
 9124SOL    HW230327   1.224   0.859   5.637  1.1669 -0.6074  0.8775
 9125SOL     OW30328   7.351   7.897   0.735  0.0497 -0.3605 -0.0883
 9125SOL    HW130329   7.359   7.978   0.786  1.9053 -1.0034  0.7385
 9125SOL    HW230330   7.265   7.861   0.760  0.7235 -0.4467  2.3531
 9126SOL     OW30331   7.976   0.685   6.498  0.3087  0.1968  0.2012
 9126SOL    HW130332   7.899   0.710   6.549  0.0447 -0.7057  0.2645
 9126SOL    HW230333   7.972   0.740   6.420 -0.7397 -0.2543 -0.0825
 9127SOL     OW30334   3.373   0.573   7.529 -0.4099  0.1564 -0.4518
 9127SOL    HW130335   3.362   0.546   7.438  0.9085  1.8896 -1.1933
 9127SOL    HW230336   3.370   0.669   7.526  0.8782  0.2904  1.1449
 9128SOL     OW30337   2.640   8.041   5.836 -0.2627 -0.2085 -0.2187
 9128SOL    HW130338   2.691   7.989   5.898  2.5750  2.6290  0.0718
 9128SOL    HW230339   2.588   8.099   5.892 -1.8728 -1.2466 -0.5592
 9129SOL     OW30340   2.143   5.362   0.700  0.6735  0.3144 -0.3275
 9129SOL    HW130341   2.138   5.429   0.769 -0.9082 -0.1644  0.0749
 9129SOL    HW230342   2.064   5.309   0.713  1.5497 -1.2249 -1.0604
 9130SOL     OW30343   3.877   6.841   1.099  0.2089 -0.3182  0.4183
 9130SOL    HW130344   3.880   6.901   1.025 -2.4761 -0.1422  0.3503
 9130SOL    HW230345   3.804   6.782   1.079  0.5545 -1.3944  2.1064
 9131SOL     OW30346   5.877   0.933   3.495  0.3708  0.0890  0.0263
 9131SOL    HW130347   5.830   0.971   3.421 -0.5464 -0.0622  0.5244
 9131SOL    HW230348   5.908   0.848   3.463  0.6248  0.3443 -0.4150
 9132SOL     OW30349   7.423   5.556   5.414  0.0934 -0.0242  1.1419
 9132SOL    HW130350   7.397   5.568   5.322  0.9730  0.8292  0.9777
 9132SOL    HW230351   7.352   5.505   5.453  0.0418 -1.0241 -0.1848
 9133SOL     OW30352   0.873   7.252   0.773 -0.1353 -0.6132 -0.2526
 9133SOL    HW130353   0.860   7.344   0.797  2.4462 -0.4756  0.9214
 9133SOL    HW230354   0.784   7.219   0.760 -1.1816  1.8570 -0.0573
 9134SOL     OW30355   7.332   4.556   5.052 -0.4178  0.2762 -0.0484
 9134SOL    HW130356   7.358   4.611   4.978 -1.5666  1.2171  0.2099
 9134SOL    HW230357   7.358   4.606   5.129 -0.2023 -0.1994  0.1876
 9135SOL     OW30358   1.045   1.007   6.051  0.1666  0.1556 -0.0346
 9135SOL    HW130359   0.983   0.998   6.123 -0.6994  0.0462 -0.7838
 9135SOL    HW230360   1.121   1.050   6.090 -0.6525  0.9428  0.7428
 9136SOL     OW30361   1.724   7.483   4.983 -0.1155  0.0786  0.4429
 9136SOL    HW130362   1.726   7.484   4.888 -1.8746  0.2932  0.3728
 9136SOL    HW230363   1.636   7.453   5.005  0.4334 -0.4741  2.0076
 9137SOL     OW30364   1.139   4.541   5.134  0.2205 -0.0676 -0.2213
 9137SOL    HW130365   1.156   4.592   5.055 -0.1948  1.9838  0.9328
 9137SOL    HW230366   1.161   4.601   5.206 -0.5615 -1.4347  1.2218
 9138SOL     OW30367   1.757   1.491   3.138  0.4473 -0.2819 -0.2537
 9138SOL    HW130368   1.772   1.503   3.044  0.1031 -1.0395 -0.4123
 9138SOL    HW230369   1.699   1.564   3.163  0.5002 -0.1069 -0.6358
 9139SOL     OW30370   4.729   1.989   6.608  0.6852 -0.6847 -0.0160
 9139SOL    HW130371   4.803   2.020   6.554  0.1306 -0.2663 -0.5482
 9139SOL    HW230372   4.676   1.937   6.547  0.2257 -0.4792  0.2062
 9140SOL     OW30373   4.967   4.297   6.939 -0.2904  0.3552  0.1936
 9140SOL    HW130374   4.936   4.212   6.971  1.1225 -0.8279 -1.3492
 9140SOL    HW230375   4.987   4.282   6.847  0.7301  2.1667  0.0664
 9141SOL     OW30376   7.611   2.202   6.637 -0.2150 -0.5690 -0.2081
 9141SOL    HW130377   7.525   2.177   6.603 -0.3320  0.3008 -0.5537
 9141SOL    HW230378   7.673   2.160   6.577 -0.3848 -1.4643  0.2268
 9142SOL     OW30379   2.115   0.862   4.645  0.0663 -0.2658  0.3052
 9142SOL    HW130380   2.120   0.906   4.560  0.2082  1.0604  0.9712
 9142SOL    HW230381   2.035   0.810   4.641 -0.1685  0.1392 -0.4796
 9143SOL     OW30382   4.628   1.347   3.504  0.0748 -0.1004 -0.7989
 9143SOL    HW130383   4.692   1.412   3.472  1.2372 -0.2634  1.0357
 9143SOL    HW230384   4.673   1.263   3.496  1.8157  0.0672  3.9286
 9144SOL     OW30385   5.689   6.123   6.049  0.4581  0.1385  0.1108
 9144SOL    HW130386   5.600   6.088   6.050  0.8520 -0.8690  0.2565
 9144SOL    HW230387   5.697   6.169   6.133  0.6891 -1.3545  0.9381
 9145SOL     OW30388   1.334   3.707   4.684 -0.5004 -0.5535 -0.3749
 9145SOL    HW130389   1.386   3.648   4.739 -0.1737  0.2304  0.1723
 9145SOL    HW230390   1.328   3.788   4.735 -0.9422 -0.1128 -1.1182
 9146SOL     OW30391   2.358   6.241   6.732  0.1457 -0.1931 -0.0961
 9146SOL    HW130392   2.425   6.264   6.668  1.5452 -1.2989  0.9127
 9146SOL    HW230393   2.279   6.286   6.701  0.8649 -0.3397 -2.3455
 9147SOL     OW30394   5.720   0.865   1.113  0.1141 -0.1163  0.0286
 9147SOL    HW130395   5.704   0.898   1.202 -3.2207  1.6800 -1.0649
 9147SOL    HW230396   5.656   0.795   1.102  0.7438 -0.5640 -0.8492
 9148SOL     OW30397   7.829   6.634   1.635  0.6225 -0.0126 -0.0336
 9148SOL    HW130398   7.748   6.602   1.598  0.2121  1.3835 -0.4030
 9148SOL    HW230399   7.898   6.594   1.582  0.1306 -0.1136 -0.5996
 9149SOL     OW30400   4.293   2.144   6.685 -0.2860 -0.2677  0.3289
 9149SOL    HW130401   4.368   2.172   6.632  0.2105 -0.4024  0.9499
 9149SOL    HW230402   4.294   2.049   6.678  0.1805 -0.3270  1.1054
 9150SOL     OW30403   5.604   7.312   1.506 -0.2204 -0.3039  0.3973
 9150SOL    HW130404   5.684   7.284   1.463 -1.2470  0.7167 -2.4422
 9150SOL    HW230405   5.632   7.344   1.591  2.0776 -1.7597  0.2658
 9151SOL     OW30406   0.016   1.375   1.701 -0.3956  0.1111  0.7774
 9151SOL    HW130407  -0.037   1.441   1.746 -0.1245  0.8386  0.0506
 9151SOL    HW230408   0.064   1.424   1.635  0.3414 -0.7152  0.6836
 9152SOL     OW30409   5.397   0.606   0.560  0.2987  0.7135  0.0557
 9152SOL    HW130410   5.470   0.551   0.528 -0.0590 -0.3097  0.9313
 9152SOL    HW230411   5.440   0.677   0.606  0.7734  1.0633 -0.8935
 9153SOL     OW30412   4.425   4.291   6.504  0.4503  0.0316 -0.2698
 9153SOL    HW130413   4.359   4.230   6.473 -0.4118  0.1147  1.2811
 9153SOL    HW230414   4.500   4.237   6.527  0.7252 -0.1252 -1.4879
 9154SOL     OW30415   2.013   0.585   3.859  0.6245 -0.8932 -0.7451
 9154SOL    HW130416   2.005   0.620   3.770  1.8389  0.6288 -0.2952
 9154SOL    HW230417   2.083   0.637   3.899 -0.1525 -1.2945  1.2353
 9155SOL     OW30418   1.178   3.079   2.384 -0.7358  0.2341 -0.3973
 9155SOL    HW130419   1.156   3.076   2.291  2.2312 -0.0551 -1.1742
 9155SOL    HW230420   1.173   3.172   2.406 -1.0417  0.3543 -0.9343
 9156SOL     OW30421   4.607   6.727   3.404  0.3924  0.1145 -0.0753
 9156SOL    HW130422   4.582   6.652   3.458 -1.5662 -0.1937 -1.3163
 9156SOL    HW230423   4.576   6.706   3.316  1.2775  1.6728 -0.8098
 9157SOL     OW30424   1.769   7.132   5.970 -0.4724 -0.2777  0.3631
 9157SOL    HW130425   1.741   7.067   5.906  0.2313  1.2610 -1.5954
 9157SOL    HW230426   1.710   7.206   5.957  0.3613  0.4728  0.7457
 9158SOL     OW30427   0.348   1.049   1.945 -0.0031  0.2501  0.0320
 9158SOL    HW130428   0.407   0.977   1.966 -0.9220 -0.3159  0.7964
 9158SOL    HW230429   0.403   1.115   1.903  0.8548 -0.8911 -0.6762
 9159SOL     OW30430   6.664   2.728   4.764  0.4127 -0.0982 -0.3599
 9159SOL    HW130431   6.741   2.759   4.813  0.4109  1.2702 -1.1577
 9159SOL    HW230432   6.598   2.795   4.779 -0.3403 -0.8249 -0.3995
 9160SOL     OW30433   1.963   7.376   5.647 -0.7696 -0.5160 -0.3489
 9160SOL    HW130434   1.902   7.409   5.713 -0.3837  0.4380 -0.4523
 9160SOL    HW230435   1.913   7.311   5.598 -0.5298 -2.6190  2.0024
 9161SOL     OW30436   5.584   5.172   7.604  0.5284 -0.0382  0.0129
 9161SOL    HW130437   5.670   5.144   7.636  0.8030 -0.9404 -1.4246
 9161SOL    HW230438   5.534   5.090   7.595 -1.2313  0.5963  2.7092
 9162SOL     OW30439   4.247   5.106   0.447  0.1710 -0.1524 -0.2821
 9162SOL    HW130440   4.205   5.028   0.409 -0.5436  0.2127 -0.2683
 9162SOL    HW230441   4.322   5.072   0.495 -0.7644 -0.9618  0.6663
 9163SOL     OW30442   3.105   6.536   6.992 -0.4535  0.2639  0.5238
 9163SOL    HW130443   3.049   6.613   6.982 -1.1684 -0.1386  1.3337
 9163SOL    HW230444   3.189   6.571   7.024 -1.3167  0.5758  2.6264
 9164SOL     OW30445   2.699   2.491   6.435  0.2510 -0.0889 -0.4524
 9164SOL    HW130446   2.740   2.514   6.351 -1.9596  0.6331 -1.4192
 9164SOL    HW230447   2.606   2.509   6.421 -0.1540  0.2417  2.2480
 9165SOL     OW30448   5.029   1.069   5.757 -0.3936 -0.2415  0.1060
 9165SOL    HW130449   4.934   1.056   5.755 -0.7618  1.6021  2.0127
 9165SOL    HW230450   5.063   0.990   5.800 -0.9108 -1.3425 -1.4273
 9166SOL     OW30451   5.071   7.499   4.859  0.0073  0.7137  0.2140
 9166SOL    HW130452   4.998   7.457   4.904 -1.0459  0.9245 -1.2212
 9166SOL    HW230453   5.131   7.428   4.838 -0.9240  0.1518 -0.6464
 9167SOL     OW30454   4.126   7.824   6.354 -0.1967 -0.3005 -0.1869
 9167SOL    HW130455   4.217   7.802   6.333 -0.0392  0.9037 -0.9083
 9167SOL    HW230456   4.112   7.788   6.441  0.6512 -1.3762 -0.4702
 9168SOL     OW30457   5.337   3.850   2.477  0.0144 -0.0902  0.3963
 9168SOL    HW130458   5.417   3.831   2.526  0.0754  2.1828  1.3309
 9168SOL    HW230459   5.291   3.915   2.531 -1.9548 -0.5532 -0.6248
 9169SOL     OW30460   1.366   3.139   6.486  0.1275  0.6033  0.2961
 9169SOL    HW130461   1.294   3.178   6.437 -0.3211  0.3235  0.7213
 9169SOL    HW230462   1.324   3.083   6.551  0.7417  0.1198  0.2908
 9170SOL     OW30463   0.415   3.333   3.291 -0.3130  0.4807  0.4052
 9170SOL    HW130464   0.479   3.270   3.323  0.7041  0.9586 -0.5904
 9170SOL    HW230465   0.440   3.416   3.332  0.6349  0.9709 -1.0641
 9171SOL     OW30466   1.499   0.084   5.156  0.1081 -0.1166  0.2033
 9171SOL    HW130467   1.508   0.033   5.076 -0.9919 -0.7255  0.4405
 9171SOL    HW230468   1.468   0.020   5.221 -1.4763  0.8550  0.4661
 9172SOL     OW30469   7.542   7.457   7.941  0.7315  0.3532  0.9332
 9172SOL    HW130470   7.587   7.514   7.879  0.9900 -0.6613  0.1679
 9172SOL    HW230471   7.449   7.464   7.918  0.6096  1.3971  1.6452
 9173SOL     OW30472   0.649   4.682   3.103  0.5900 -0.3471 -0.1112
 9173SOL    HW130473   0.554   4.682   3.112  0.5196  3.3081  1.1701
 9173SOL    HW230474   0.681   4.705   3.191  2.5605 -0.3102 -0.7849
 9174SOL     OW30475   0.991   4.424   7.727 -0.2795  0.6628 -0.2133
 9174SOL    HW130476   0.919   4.462   7.777  0.5826  1.8588  0.1509
 9174SOL    HW230477   1.005   4.338   7.766  0.1133  1.4091  1.3573
 9175SOL     OW30478   2.745   3.481   1.579  0.0707 -0.1157  0.0031
 9175SOL    HW130479   2.717   3.423   1.650  1.4329  0.3608  0.9665
 9175SOL    HW230480   2.688   3.557   1.586  0.9917  0.4924  1.4413
 9176SOL     OW30481   1.805   1.282   2.850  0.5503 -0.3118  0.0472
 9176SOL    HW130482   1.884   1.301   2.799  0.6084  1.0349  0.6043
 9176SOL    HW230483   1.815   1.190   2.876  1.3537 -0.5040 -0.8759
 9177SOL     OW30484   4.019   4.187   7.510 -0.0157  0.3996  0.0455
 9177SOL    HW130485   3.992   4.261   7.565  0.5415 -0.7697  2.0084
 9177SOL    HW230486   3.937   4.150   7.478 -0.3977  0.7643  0.5753
 9178SOL     OW30487   5.100   2.589   1.635  0.6147  0.3009  0.7355
 9178SOL    HW130488   5.161   2.662   1.647  1.4487 -0.3649  0.6397
 9178SOL    HW230489   5.127   2.524   1.700  1.1222 -0.7103 -0.4403
 9179SOL     OW30490   3.635   2.316   6.025 -0.5513  0.1345  0.3357
 9179SOL    HW130491   3.595   2.281   6.104  1.2666 -2.3565  0.2538
 9179SOL    HW230492   3.636   2.243   5.963  0.2406  1.3367 -1.1486
 9180SOL     OW30493   2.822   7.055   6.384 -0.7439  0.3717  0.2028
 9180SOL    HW130494   2.739   7.061   6.430 -1.0949  2.1971 -0.5715
 9180SOL    HW230495   2.802   7.007   6.304 -0.7064 -0.5058  0.7141
 9181SOL     OW30496   1.669   6.779   1.890 -0.3258  0.1832  0.8698
 9181SOL    HW130497   1.607   6.773   1.817  0.4099 -0.5440  0.2897
 9181SOL    HW230498   1.697   6.871   1.891  0.7176 -0.0946 -0.6709
 9182SOL     OW30499   3.770   4.728   0.461  0.1880 -0.3871  0.0201
 9182SOL    HW130500   3.820   4.700   0.538  0.5588 -0.7420 -0.3477
 9182SOL    HW230501   3.773   4.654   0.401 -0.1038 -0.1166 -0.3355
 9183SOL     OW30502   1.395   4.308   1.877  0.2133 -0.1726 -0.1010
 9183SOL    HW130503   1.401   4.224   1.924  1.1433 -0.3295 -0.4785
 9183SOL    HW230504   1.372   4.284   1.787  0.3926 -0.0128 -0.1888
 9184SOL     OW30505   1.688   1.573   2.557  0.0207  0.3593  0.4986
 9184SOL    HW130506   1.752   1.616   2.500  1.8372  1.0420  2.8962
 9184SOL    HW230507   1.641   1.645   2.599  0.5883 -0.0024  1.8239
 9185SOL     OW30508   2.626   2.125   6.445  0.2165 -0.3914  0.4863
 9185SOL    HW130509   2.684   2.195   6.417 -1.1844  0.2082 -1.0764
 9185SOL    HW230510   2.660   2.047   6.402  2.3141 -0.9503  2.9371
 9186SOL     OW30511   5.187   7.892   6.778  0.0935 -0.2478  0.3781
 9186SOL    HW130512   5.093   7.890   6.760  0.0409  2.0137  0.1540
 9186SOL    HW230513   5.194   7.931   6.865  0.8492  0.0942  0.1711
 9187SOL     OW30514   2.243   1.845   3.983 -0.7163  0.0086 -0.1616
 9187SOL    HW130515   2.183   1.774   4.006 -2.2089  1.0317 -0.7652
 9187SOL    HW230516   2.197   1.924   4.007 -0.2652  0.9093 -2.0425
 9188SOL     OW30517   1.413   2.742   4.954  0.1108 -0.2161  0.0807
 9188SOL    HW130518   1.493   2.719   5.001  1.6897 -1.5640 -2.9328
 9188SOL    HW230519   1.355   2.667   4.967 -0.5619  0.5588  1.8850
 9189SOL     OW30520   7.300   3.415   7.477 -0.4841  0.1447  0.0754
 9189SOL    HW130521   7.277   3.506   7.496 -0.2747  0.3480 -0.6004
 9189SOL    HW230522   7.244   3.392   7.402 -0.2242 -0.1365 -0.0350
 9190SOL     OW30523   4.348   7.793   5.729 -0.0054  0.3916 -0.4922
 9190SOL    HW130524   4.406   7.810   5.804  0.2939 -1.3590 -0.2887
 9190SOL    HW230525   4.295   7.718   5.757 -0.7906  0.5327 -1.5565
 9191SOL     OW30526   3.844   2.700   1.825 -0.0599  0.7583 -0.5141
 9191SOL    HW130527   3.940   2.698   1.831 -0.0746  0.1318 -0.4047
 9191SOL    HW230528   3.814   2.670   1.910 -0.3487  0.4124 -0.7364
 9192SOL     OW30529   5.616   4.006   3.186  1.2522 -0.3447  0.1888
 9192SOL    HW130530   5.575   4.074   3.238  3.1027 -0.7072  2.2677
 9192SOL    HW230531   5.707   4.035   3.177  1.3015 -0.9635 -1.7546
 9193SOL     OW30532   5.231   4.874   4.522 -0.0258 -0.4053 -0.0429
 9193SOL    HW130533   5.146   4.857   4.562 -0.4708 -1.5186 -1.3682
 9193SOL    HW230534   5.283   4.914   4.592 -1.1432 -1.1390  1.2572
 9194SOL     OW30535   7.874   3.747   5.339 -0.1733  0.1080  0.5959
 9194SOL    HW130536   7.889   3.655   5.359 -0.6930 -0.7091 -2.2557
 9194SOL    HW230537   7.960   3.782   5.318  0.1086  0.4787  2.2520
 9195SOL     OW30538   1.977   8.130   2.031  0.2561  0.2695  0.8080
 9195SOL    HW130539   1.921   8.128   1.954 -1.3058 -1.1150  1.9182
 9195SOL    HW230540   1.947   8.207   2.080  0.4169  0.4412  0.6392
 9196SOL     OW30541   0.971   4.985   2.030 -0.0896  0.0843  0.3042
 9196SOL    HW130542   0.908   5.057   2.033  0.2368  0.3394  1.7794
 9196SOL    HW230543   0.996   4.972   2.122  0.1816 -1.6274  0.0119
 9197SOL     OW30544   6.280   2.492   1.483  0.4857  0.6301 -0.4985
 9197SOL    HW130545   6.187   2.488   1.502  0.9303  0.2210  1.8637
 9197SOL    HW230546   6.297   2.414   1.430 -0.4911  0.6999 -0.9281
 9198SOL     OW30547   0.948   6.084   7.771 -0.0495 -0.4685 -0.1096
 9198SOL    HW130548   1.000   6.153   7.811 -0.6006  0.2979 -0.6731
 9198SOL    HW230549   0.970   6.089   7.678 -1.8249  0.5300 -0.5215
 9199SOL     OW30550   4.126   1.208   3.318 -0.2129  0.1543  0.5289
 9199SOL    HW130551   4.054   1.269   3.304 -0.2723 -0.0427 -0.0673
 9199SOL    HW230552   4.205   1.258   3.298 -0.3318 -0.2963 -1.1924
 9200SOL     OW30553   5.500   2.703   0.168  0.4129  0.4304  0.1681
 9200SOL    HW130554   5.587   2.733   0.195  0.5180  1.2853 -1.0494
 9200SOL    HW230555   5.478   2.758   0.093 -0.8126 -0.3713 -0.0818
 9201SOL     OW30556   1.193   2.373   4.465 -0.3370 -0.2917  0.1426
 9201SOL    HW130557   1.197   2.297   4.407  1.2103  0.3824 -0.6927
 9201SOL    HW230558   1.251   2.352   4.538 -3.0131 -1.5475  2.0870
 9202SOL     OW30559   5.114   7.227   7.437 -0.5545 -0.2108 -0.0099
 9202SOL    HW130560   5.155   7.142   7.453 -1.0241 -0.7639 -1.5862
 9202SOL    HW230561   5.185   7.281   7.401 -0.3736 -0.0696  0.5460
 9203SOL     OW30562   3.376   3.589   4.643 -0.3212 -0.0131  0.0427
 9203SOL    HW130563   3.472   3.592   4.648 -0.0340  0.1817 -3.3359
 9203SOL    HW230564   3.354   3.499   4.667  0.4518  0.3923  2.6262
 9204SOL     OW30565   7.142   5.648   5.272 -0.0424  0.4787  0.3366
 9204SOL    HW130566   7.223   5.620   5.229  1.6931  0.1663  3.4841
 9204SOL    HW230567   7.078   5.580   5.249  1.3891 -0.8209 -0.0069
 9205SOL     OW30568   0.345   5.886   4.033 -0.3495 -0.4300  0.2341
 9205SOL    HW130569   0.415   5.856   3.974  1.2158  2.7869  0.2424
 9205SOL    HW230570   0.380   5.872   4.121  0.1073  0.6170  0.2424
 9206SOL     OW30571   4.085   5.137   3.933 -0.4167  0.0444 -0.0624
 9206SOL    HW130572   4.153   5.094   3.881  0.9701  1.6360  0.3098
 9206SOL    HW230573   4.130   5.163   4.014 -1.3640  1.4511  0.0530
 9207SOL     OW30574   1.053   0.671   1.957  0.9282  0.3923 -0.1698
 9207SOL    HW130575   1.027   0.729   2.028 -0.9799 -1.5087  0.8300
 9207SOL    HW230576   1.066   0.586   2.000  0.9790 -0.5147 -1.9028
 9208SOL     OW30577   6.836   7.287   1.795 -0.1299 -0.6639  0.2588
 9208SOL    HW130578   6.889   7.345   1.740 -1.2526  2.2519  2.0888
 9208SOL    HW230579   6.746   7.301   1.766 -0.4034 -1.9468  0.4032
 9209SOL     OW30580   4.097   2.217   6.511 -0.0656 -0.2189 -0.1230
 9209SOL    HW130581   4.164   2.215   6.579  0.1111 -1.0713 -0.3129
 9209SOL    HW230582   4.050   2.134   6.522  0.2262 -0.5538 -1.2985
 9210SOL     OW30583   3.583   3.179   2.186 -0.2536  0.3957 -0.1032
 9210SOL    HW130584   3.617   3.178   2.097 -1.1353  1.0553 -0.4723
 9210SOL    HW230585   3.541   3.094   2.196  2.4474 -0.9356  0.7905
 9211SOL     OW30586   1.963   5.224   4.721  0.5171  0.5012 -0.2905
 9211SOL    HW130587   1.874   5.192   4.734  0.6688  0.3387  0.3986
 9211SOL    HW230588   1.973   5.293   4.787  1.2037 -0.0942  0.2323
 9212SOL     OW30589   2.170   2.994   0.099 -0.0076  0.6060  0.1295
 9212SOL    HW130590   2.169   2.942   0.179 -1.2255 -0.1384 -0.3431
 9212SOL    HW230591   2.187   2.931   0.030 -2.9955  0.4922 -0.6250
 9213SOL     OW30592   2.659   7.258   6.892 -0.3117  0.0900  0.1038
 9213SOL    HW130593   2.688   7.339   6.850 -2.3138 -0.5330 -2.7608
 9213SOL    HW230594   2.696   7.189   6.838 -0.7983 -0.8469  0.9435
 9214SOL     OW30595   5.051   1.454   2.478 -0.0969 -0.0025 -0.3080
 9214SOL    HW130596   5.131   1.410   2.506  0.0189 -0.0241 -0.6722
 9214SOL    HW230597   5.055   1.453   2.382  0.1468  1.2371 -0.3230
 9215SOL     OW30598   2.624   6.786   6.715 -0.8463  0.2370  0.2354
 9215SOL    HW130599   2.606   6.718   6.650 -1.8729  0.1718  0.5675
 9215SOL    HW230600   2.638   6.737   6.796 -0.8251  0.3785  0.3167
 9216SOL     OW30601   1.335   4.947   1.911 -0.4039  0.2721  0.4554
 9216SOL    HW130602   1.369   4.858   1.910  2.2658  1.2039 -0.4122
 9216SOL    HW230603   1.295   4.957   1.997 -0.5402 -1.6496  0.6504
 9217SOL     OW30604   1.911   0.682   4.587 -0.1404 -0.0906  0.5644
 9217SOL    HW130605   1.825   0.644   4.602 -0.4212  1.1966  2.8111
 9217SOL    HW230606   1.969   0.631   4.644  0.7529 -1.3517 -1.3951
 9218SOL     OW30607   1.915   3.661   3.705  0.1988 -0.9169 -0.5565
 9218SOL    HW130608   1.829   3.693   3.735  0.0854 -0.7794 -1.0137
 9218SOL    HW230609   1.968   3.655   3.785 -0.8288 -2.9212  0.0554
 9219SOL     OW30610   4.027   7.278   5.939  0.4421 -0.2128 -0.4854
 9219SOL    HW130611   4.064   7.293   5.852 -0.4540  0.4587 -0.7564
 9219SOL    HW230612   3.978   7.357   5.959 -0.0750 -0.7095  0.2738
 9220SOL     OW30613   2.465   7.705   7.976  0.4577  0.2354 -0.7580
 9220SOL    HW130614   2.385   7.655   7.963  0.6142 -0.4357  0.6842
 9220SOL    HW230615   2.436   7.797   7.975 -0.5692 -0.0164  0.9651
 9221SOL     OW30616   2.940   0.370   4.352  0.2686 -0.2682  0.6117
 9221SOL    HW130617   2.911   0.280   4.366 -2.0473  0.6922  2.5620
 9221SOL    HW230618   2.881   0.404   4.286  0.9190 -0.0304  0.1375
 9222SOL     OW30619   0.500   7.081   2.625 -0.6517 -0.2290 -0.3514
 9222SOL    HW130620   0.591   7.095   2.652 -0.8938  0.4807  0.1345
 9222SOL    HW230621   0.500   7.093   2.530 -0.3860  0.6439 -0.2514
 9223SOL     OW30622   5.163   6.941   1.870 -0.2500 -0.2447  0.2312
 9223SOL    HW130623   5.249   6.957   1.831 -0.2640  1.0301  0.6996
 9223SOL    HW230624   5.181   6.923   1.962 -0.4937  0.3004  0.3910
 9224SOL     OW30625   6.883   2.539   5.780  0.0864  0.0388 -0.0556
 9224SOL    HW130626   6.868   2.481   5.706  2.0561  1.1000 -1.3814
 9224SOL    HW230627   6.820   2.510   5.846 -1.2067 -1.4578 -1.8226
 9225SOL     OW30628   1.205   6.650   5.993 -0.8339 -0.2713  0.1155
 9225SOL    HW130629   1.252   6.733   5.981 -1.4184 -0.1204 -1.2713
 9225SOL    HW230630   1.127   6.658   5.938 -1.0174 -1.6504  0.1403
 9226SOL     OW30631   7.441   0.306   0.101 -0.1509  0.2963  0.2450
 9226SOL    HW130632   7.423   0.241   0.169  0.1799 -0.2841 -0.2189
 9226SOL    HW230633   7.501   0.263   0.041 -0.8584  0.6006 -0.7192
 9227SOL     OW30634   0.860   0.022   7.624 -0.0753 -0.1760  0.1997
 9227SOL    HW130635   0.822   0.007   7.711 -0.0643 -0.7484  0.1129
 9227SOL    HW230636   0.838  -0.057   7.575  1.9394 -0.9316  0.4160
 9228SOL     OW30637   1.385   3.349   1.065 -0.1680 -0.1341  0.6935
 9228SOL    HW130638   1.353   3.399   0.991 -1.1400  1.4329  2.1204
 9228SOL    HW230639   1.462   3.303   1.031 -1.5005 -0.7619 -1.6977
 9229SOL     OW30640   3.778   7.980   4.508 -0.2420  0.2411 -1.0928
 9229SOL    HW130641   3.697   7.936   4.533  0.6657 -1.6531 -1.3157
 9229SOL    HW230642   3.775   8.063   4.556 -1.1146 -0.8886  0.9771
 9230SOL     OW30643   6.804   0.970   5.921  0.9513  0.4390  0.3386
 9230SOL    HW130644   6.741   0.898   5.915  0.2542  0.9785  0.8913
 9230SOL    HW230645   6.792   1.004   6.010  1.7531  0.8051  0.3145
 9231SOL     OW30646   6.618   1.263   2.304 -0.5427 -0.3648  0.3988
 9231SOL    HW130647   6.543   1.321   2.289 -0.4039 -0.3022 -0.0514
 9231SOL    HW230648   6.600   1.223   2.389 -1.1452 -0.4381  0.2415
 9232SOL     OW30649   2.782   6.808   0.220  0.2643  0.0164 -0.1005
 9232SOL    HW130650   2.728   6.880   0.254  2.5148  0.9102  1.8791
 9232SOL    HW230651   2.815   6.840   0.136 -0.2029  0.5178 -0.0980
 9233SOL     OW30652   1.212   5.651   6.907 -0.2529 -0.7761 -0.4721
 9233SOL    HW130653   1.205   5.577   6.968 -2.0864 -0.2151  0.0781
 9233SOL    HW230654   1.277   5.708   6.947 -0.2377 -1.1871  0.1100
 9234SOL     OW30655   4.815   7.239   0.767  0.4609  0.0019  0.4323
 9234SOL    HW130656   4.741   7.224   0.826 -0.5076  2.3360 -0.0756
 9234SOL    HW230657   4.806   7.172   0.699 -1.8855  0.9081 -0.2308
 9235SOL     OW30658   3.492   3.047   7.077 -0.0918  0.1805  0.4362
 9235SOL    HW130659   3.573   3.071   7.121  0.4413  0.2132 -0.5249
 9235SOL    HW230660   3.494   2.951   7.073  0.2933  0.2075 -0.2689
 9236SOL     OW30661   7.032   6.982   1.314  0.3475 -0.2976  0.6912
 9236SOL    HW130662   6.945   6.986   1.276  0.3640  0.9177  0.7460
 9236SOL    HW230663   7.044   6.890   1.337  0.0561 -0.9378 -1.5518
 9237SOL     OW30664   6.260   3.230   2.717 -0.0116  0.7145 -0.1943
 9237SOL    HW130665   6.212   3.240   2.635  0.0957  0.2565 -0.3123
 9237SOL    HW230666   6.212   3.284   2.780  0.4961  1.9100 -0.7966
 9238SOL     OW30667   6.709   6.150   4.341 -0.3376 -0.1396 -0.1742
 9238SOL    HW130668   6.633   6.151   4.284 -0.1867 -0.8543 -0.3974
 9238SOL    HW230669   6.733   6.058   4.348  1.3031  0.1670 -1.1973
 9239SOL     OW30670   4.344   5.283   2.696 -0.1563 -0.5281  0.8765
 9239SOL    HW130671   4.328   5.190   2.707  0.1830 -0.6751  0.2015
 9239SOL    HW230672   4.439   5.291   2.695 -0.1599 -0.3555 -0.3571
 9240SOL     OW30673   5.155   7.433   4.225  0.2318  0.2331 -0.1601
 9240SOL    HW130674   5.093   7.363   4.245  0.2845  0.2578  0.0873
 9240SOL    HW230675   5.157   7.487   4.304  1.0343 -0.1148  0.0701
 9241SOL     OW30676   6.675   6.053   0.137  0.0148  0.2247  0.3079
 9241SOL    HW130677   6.696   5.966   0.171  0.0921  0.1096 -0.0299
 9241SOL    HW230678   6.740   6.111   0.177  1.0812 -0.1460 -0.8177
 9242SOL     OW30679   6.202   3.899   2.922  0.2035  0.2110 -0.6592
 9242SOL    HW130680   6.115   3.938   2.928  0.1552  0.0278 -0.0683
 9242SOL    HW230681   6.190   3.820   2.868  0.1861  0.6719 -1.3426
 9243SOL     OW30682   4.215   6.550   6.772  0.0070  0.4255 -0.5154
 9243SOL    HW130683   4.281   6.496   6.817 -0.1920  0.2952 -0.3797
 9243SOL    HW230684   4.256   6.571   6.688  0.8461  1.6113  0.1567
 9244SOL     OW30685   0.375   3.259   2.797 -1.1332  0.3326 -0.3098
 9244SOL    HW130686   0.371   3.275   2.891  1.0601  0.0161 -0.1248
 9244SOL    HW230687   0.365   3.346   2.757  0.2174  0.7818  0.3079
 9245SOL     OW30688   7.633   5.390   5.950 -0.2198 -0.1516  0.0503
 9245SOL    HW130689   7.607   5.391   5.858 -2.4039  2.4546  0.5955
 9245SOL    HW230690   7.720   5.429   5.951 -0.2142 -0.1285 -0.8841
 9246SOL     OW30691   0.665   3.045   3.870 -0.3925 -0.5216  0.0212
 9246SOL    HW130692   0.596   3.078   3.813 -0.4241  0.5079  0.6351
 9246SOL    HW230693   0.746   3.061   3.821 -0.4254  0.2776  0.2182
 9247SOL     OW30694   1.393   5.833   1.922  0.3455 -0.5869  0.6546
 9247SOL    HW130695   1.455   5.906   1.924  0.3435 -0.5971  2.3453
 9247SOL    HW230696   1.386   5.810   1.829 -0.2543  2.0618 -0.0365
 9248SOL     OW30697   4.153   5.694   2.809 -0.1285  0.4208 -0.4131
 9248SOL    HW130698   4.221   5.754   2.841  1.3818 -0.1428 -2.3608
 9248SOL    HW230699   4.184   5.607   2.834 -1.4150  0.2852  0.8349
 9249SOL     OW30700   1.654   2.257   3.052  0.1740  0.0195  0.5740
 9249SOL    HW130701   1.708   2.179   3.051  1.2957  0.7694 -0.2961
 9249SOL    HW230702   1.590   2.242   3.122  2.7107 -0.1177  3.0281
 9250SOL     OW30703   4.645   2.775   3.050  0.1150 -0.3100 -0.6751
 9250SOL    HW130704   4.719   2.730   3.092  0.6539  0.9802 -0.2045
 9250SOL    HW230705   4.675   2.865   3.038 -1.4764  0.3099 -0.2181
 9251SOL     OW30706   4.823   5.835   1.908  0.4095  0.0920  0.0817
 9251SOL    HW130707   4.890   5.815   1.844  1.2261  0.1534  0.8971
 9251SOL    HW230708   4.830   5.930   1.921 -0.3392  0.2186 -0.3716
 9252SOL     OW30709   7.968   2.021   5.947 -0.5908 -0.3979 -0.3307
 9252SOL    HW130710   8.052   1.977   5.965  0.2932  1.5849  0.7420
 9252SOL    HW230711   7.954   2.008   5.853 -0.0138 -2.2761 -0.1999
 9253SOL     OW30712   6.184   5.382   3.426  0.4751 -0.7029 -0.3194
 9253SOL    HW130713   6.156   5.471   3.404 -1.8078 -0.9369  1.2559
 9253SOL    HW230714   6.171   5.375   3.520  0.4563 -2.7551 -0.4242
 9254SOL     OW30715   7.530   5.682   4.692  0.1506  0.3634  1.2382
 9254SOL    HW130716   7.618   5.698   4.659  0.3722  3.0257  2.8122
 9254SOL    HW230717   7.507   5.763   4.738 -3.1713 -0.2036  0.8071
 9255SOL     OW30718   0.076   5.715   4.417  0.2475  0.6866 -0.2484
 9255SOL    HW130719   0.036   5.780   4.475  1.3003  0.4552  0.7761
 9255SOL    HW230720   0.040   5.734   4.330 -1.4904  0.9570  0.4834
 9256SOL     OW30721   6.504   5.001   4.342  0.2492 -0.2672  0.7589
 9256SOL    HW130722   6.526   5.090   4.314 -1.6975 -0.1219 -0.4955
 9256SOL    HW230723   6.571   4.946   4.301 -0.0751  0.3860 -0.7250
 9257SOL     OW30724   5.946   4.593   1.933  0.1523 -0.1559  0.2967
 9257SOL    HW130725   5.934   4.501   1.957 -0.2752  0.2235  1.6234
 9257SOL    HW230726   5.926   4.596   1.840  0.4684 -1.4605  0.1673
 9258SOL     OW30727   6.366   5.582   7.009  0.4020 -0.0696  0.0981
 9258SOL    HW130728   6.393   5.569   7.100  0.7855 -0.9431 -0.1316
 9258SOL    HW230729   6.352   5.494   6.975 -0.2107  0.2692 -0.5554
 9259SOL     OW30730   7.444   6.341   0.815  0.1996 -0.0143 -0.0256
 9259SOL    HW130731   7.482   6.358   0.901 -2.9301 -3.9159  2.4456
 9259SOL    HW230732   7.400   6.423   0.791  1.5882  1.3301  1.7573
 9260SOL     OW30733   3.306   1.487   7.490 -0.2311 -0.0030 -0.2631
 9260SOL    HW130734   3.370   1.481   7.419  1.9927  1.2871  1.4855
 9260SOL    HW230735   3.358   1.514   7.566 -2.2900 -2.4441  2.1798
 9261SOL     OW30736   2.934   2.335   1.511 -0.3328  0.6348  0.6000
 9261SOL    HW130737   2.996   2.266   1.488 -2.0390 -0.0439 -2.6113
 9261SOL    HW230738   2.848   2.294   1.504 -1.3468  2.6500  0.2258
 9262SOL     OW30739   2.900   5.929   2.580 -0.6824  0.2489 -0.5078
 9262SOL    HW130740   2.889   5.834   2.590  2.6372 -0.0020  3.4487
 9262SOL    HW230741   2.948   5.939   2.498  1.8181 -1.9933  0.5138
 9263SOL     OW30742   6.712   6.078   7.184  0.2191  0.3015 -0.6005
 9263SOL    HW130743   6.710   5.988   7.153  1.2556  0.1517 -0.2390
 9263SOL    HW230744   6.690   6.131   7.107  0.3287 -0.2094 -0.9788
 9264SOL     OW30745   5.535   5.727   4.780 -0.5394  0.0567  0.5264
 9264SOL    HW130746   5.499   5.736   4.692  0.2512 -2.3952 -0.1377
 9264SOL    HW230747   5.611   5.785   4.781 -0.1992 -0.3495 -0.6370
 9265SOL     OW30748   1.918   5.834   4.222 -0.3265 -0.0288  0.2102
 9265SOL    HW130749   1.906   5.918   4.178  2.5587  0.2959 -0.2106
 9265SOL    HW230750   1.953   5.857   4.308 -0.6573 -0.7785  0.5483
 9266SOL     OW30751   7.860   2.171   4.689 -0.1060  0.3779  0.1654
 9266SOL    HW130752   7.891   2.086   4.719 -0.0380 -0.1994 -1.4452
 9266SOL    HW230753   7.939   2.222   4.673 -0.0625  0.0074 -0.8690
 9267SOL     OW30754   2.489   6.311   4.809 -0.2296  0.6612  0.8415
 9267SOL    HW130755   2.526   6.301   4.897 -0.7373  0.7717  1.0679
 9267SOL    HW230756   2.482   6.222   4.775  3.1506  0.7143 -0.4356
 9268SOL     OW30757   6.709   4.435   7.258  0.1772  0.2994 -0.1822
 9268SOL    HW130758   6.636   4.377   7.236 -0.2715  0.1812  1.4413
 9268SOL    HW230759   6.710   4.436   7.354  3.2437 -0.8945 -0.0874
 9269SOL     OW30760   6.199   0.838   3.558  0.7699 -0.2359 -0.2111
 9269SOL    HW130761   6.195   0.775   3.486  1.8406 -1.0238  0.4050
 9269SOL    HW230762   6.141   0.802   3.625  1.9086 -0.9497  0.4175
 9270SOL     OW30763   5.260   0.086   0.233  0.2028  0.1629 -0.5951
 9270SOL    HW130764   5.179   0.036   0.229 -0.0679  0.5858 -0.4667
 9270SOL    HW230765   5.243   0.164   0.180  0.4081  0.4148 -0.2979
 9271SOL     OW30766   0.077   2.618   7.419  0.1486  0.0793  0.6818
 9271SOL    HW130767   0.004   2.587   7.473 -1.0277 -0.8509 -1.3417
 9271SOL    HW230768   0.075   2.713   7.430 -0.9960  0.0239  1.1497
 9272SOL     OW30769   5.685   0.267   1.174 -0.3552 -0.7575 -0.4581
 9272SOL    HW130770   5.594   0.248   1.198 -0.3956  1.3222  1.2626
 9272SOL    HW230771   5.737   0.214   1.235 -0.4087 -0.9899 -0.6119
 9273SOL     OW30772   6.310   7.810   0.531  0.2451  0.1938 -0.7279
 9273SOL    HW130773   6.397   7.789   0.497 -1.5186 -0.4872 -5.5443
 9273SOL    HW230774   6.295   7.900   0.503 -0.6116  0.2963  0.0362
 9274SOL     OW30775   4.178   6.650   5.208 -0.6417  0.8765 -0.2074
 9274SOL    HW130776   4.119   6.707   5.258  0.0964  1.5097 -0.0466
 9274SOL    HW230777   4.126   6.625   5.131 -1.0879  1.5096 -0.1244
 9275SOL     OW30778   4.256   6.024   2.685  1.0426  0.1718  0.3023
 9275SOL    HW130779   4.343   5.995   2.658  1.7408  1.8863  0.6024
 9275SOL    HW230780   4.268   6.057   2.774  0.1717  0.7683  0.2135
 9276SOL     OW30781   1.740   6.516   6.239 -0.4411 -0.1645 -0.2196
 9276SOL    HW130782   1.716   6.522   6.332  1.4982 -0.6745  0.3593
 9276SOL    HW230783   1.835   6.514   6.239 -0.3607  1.1024 -2.3393
 9277SOL     OW30784   5.083   0.279   4.412  0.4383  0.0140 -0.3091
 9277SOL    HW130785   4.994   0.259   4.384 -0.7787  2.6472  1.3127
 9277SOL    HW230786   5.090   0.241   4.500  1.0965 -0.5905 -0.6162
 9278SOL     OW30787   6.015   0.202   4.597 -0.1056  0.4080  0.0070
 9278SOL    HW130788   5.950   0.132   4.610  0.1557  0.0478 -0.5674
 9278SOL    HW230789   5.972   0.280   4.630 -1.1033  0.2886 -0.9410
 9279SOL     OW30790   4.640   7.839   0.501 -0.6289 -0.4850  0.3407
 9279SOL    HW130791   4.643   7.851   0.596  1.4501 -1.4050  0.4573
 9279SOL    HW230792   4.613   7.748   0.489  0.3765 -0.7692  0.1260
 9280SOL     OW30793   2.306   3.056   4.413 -0.5124  0.1950  0.3027
 9280SOL    HW130794   2.398   3.072   4.430 -0.5690  0.2254  0.5772
 9280SOL    HW230795   2.290   2.968   4.447 -0.4946  0.0330 -0.0940
 9281SOL     OW30796   6.460   3.185   5.982  0.4611  0.2682  0.3411
 9281SOL    HW130797   6.461   3.155   5.891  0.0633 -0.9971  0.7430
 9281SOL    HW230798   6.488   3.277   5.976  0.4706  0.2067 -1.0489
 9282SOL     OW30799   2.969   6.852   2.725 -0.0166 -0.2132 -0.3112
 9282SOL    HW130800   2.959   6.936   2.680  0.3370  0.1609  0.2929
 9282SOL    HW230801   2.965   6.874   2.818 -1.7247 -1.0837 -0.1285
 9283SOL     OW30802   2.066   3.545   2.056 -0.5473  0.1668 -0.4625
 9283SOL    HW130803   2.089   3.453   2.070 -1.5099  0.1012  0.8244
 9283SOL    HW230804   2.052   3.552   1.961 -0.1894 -0.9362 -0.6078
 9284SOL     OW30805   3.454   1.883   0.283  0.1982  0.4791 -0.0053
 9284SOL    HW130806   3.365   1.865   0.254  0.4481 -1.4795  0.2886
 9284SOL    HW230807   3.490   1.797   0.304  1.8803  1.3066  0.7021
 9285SOL     OW30808   5.299   7.587   6.257  0.3242  0.1744  0.1580
 9285SOL    HW130809   5.274   7.648   6.187  1.7281  0.4762 -0.1145
 9285SOL    HW230810   5.230   7.597   6.323  0.3438  1.8169 -0.0306
 9286SOL     OW30811   6.963   8.114   4.462 -0.2892  0.2970 -0.2485
 9286SOL    HW130812   6.908   8.074   4.395  0.3932  2.6128 -2.3482
 9286SOL    HW230813   6.919   8.196   4.484 -0.2535 -0.2013  1.8527
 9287SOL     OW30814   8.130   4.792   5.519  0.0095 -0.3109  0.1685
 9287SOL    HW130815   8.198   4.846   5.558 -0.8774  1.0508 -0.0714
 9287SOL    HW230816   8.155   4.785   5.426  0.7378 -1.3431  0.4198
 9288SOL     OW30817   7.973   1.603   4.758 -0.5155 -0.0945  0.0465
 9288SOL    HW130818   8.066   1.580   4.767 -0.2567  0.5600 -0.8883
 9288SOL    HW230819   7.929   1.549   4.825  0.4919 -0.6347  0.2968
 9289SOL     OW30820   2.481   0.735   2.966 -0.0630  0.2522 -0.1888
 9289SOL    HW130821   2.535   0.808   2.998  1.2271 -0.9893  0.6051
 9289SOL    HW230822   2.515   0.717   2.878  1.6407 -1.2155  0.7081
 9290SOL     OW30823   3.983   5.041   5.365  0.5161  0.1261 -0.3434
 9290SOL    HW130824   3.963   5.135   5.365  1.1286  0.2790 -1.5611
 9290SOL    HW230825   4.079   5.038   5.364  0.5983 -0.5570  2.4752
 9291SOL     OW30826   2.467   0.988   3.775  0.0306  0.2993  0.0612
 9291SOL    HW130827   2.467   1.022   3.864  0.2347  0.7701 -0.1152
 9291SOL    HW230828   2.534   1.039   3.730  1.5227 -1.4345  0.2009
 9292SOL     OW30829   1.122   1.401   0.248  0.1905 -1.0560 -0.3163
 9292SOL    HW130830   1.185   1.458   0.292 -1.4387  0.4226  0.1872
 9292SOL    HW230831   1.141   1.413   0.155 -1.4086  1.9932 -0.3610
 9293SOL     OW30832   5.666   6.516   3.375 -0.3307 -0.1327  0.2981
 9293SOL    HW130833   5.652   6.456   3.449 -1.8900 -1.7488 -1.2115
 9293SOL    HW230834   5.578   6.541   3.347  0.2664  1.6067 -0.1567
 9294SOL     OW30835   2.285   6.439   5.490 -0.1834 -0.4160 -0.0641
 9294SOL    HW130836   2.354   6.400   5.436  0.4866 -0.0785  0.5345
 9294SOL    HW230837   2.320   6.438   5.579  0.1422  2.1387 -0.0949
 9295SOL     OW30838   3.878   7.789   1.332 -0.7906 -0.0156  0.6736
 9295SOL    HW130839   3.786   7.762   1.322 -1.4277  1.9776  0.7846
 9295SOL    HW230840   3.875   7.861   1.394  1.1480 -1.2724  2.3373
 9296SOL     OW30841   3.145   6.436   5.120  0.6481  0.2477 -0.1549
 9296SOL    HW130842   3.097   6.504   5.167  0.0621  0.1760 -0.6436
 9296SOL    HW230843   3.088   6.359   5.125  1.6068 -0.4260  0.9999
 9297SOL     OW30844   6.695   6.329   6.288  0.1381  0.4595  0.0142
 9297SOL    HW130845   6.660   6.333   6.377 -1.2101  1.5599 -0.5460
 9297SOL    HW230846   6.629   6.282   6.238  0.6782  0.2516 -0.5170
 9298SOL     OW30847   8.003   7.287   4.026  0.1423  0.6826 -0.5023
 9298SOL    HW130848   7.935   7.275   4.093  0.8537  1.0322  0.2906
 9298SOL    HW230849   8.073   7.335   4.070  0.2264  1.7651 -1.7682
 9299SOL     OW30850   5.400   7.308   1.945 -0.3284  0.4770  0.0850
 9299SOL    HW130851   5.312   7.340   1.969 -0.8009  0.0372 -1.0120
 9299SOL    HW230852   5.383   7.231   1.891  0.7741 -1.5681  2.4532
 9300SOL     OW30853   1.241   4.763   7.814 -0.0862 -0.2304  0.2534
 9300SOL    HW130854   1.229   4.703   7.741  1.1354  0.8520 -0.8717
 9300SOL    HW230855   1.157   4.809   7.820 -1.8506 -3.3074  2.4602
 9301SOL     OW30856   6.205   5.931   4.489  0.2785 -0.3636  0.0247
 9301SOL    HW130857   6.252   5.923   4.405  2.4913 -0.5067  1.1987
 9301SOL    HW230858   6.184   5.841   4.513  1.6153 -0.5497  0.6206
 9302SOL     OW30859   1.207   6.724   7.665 -0.4646  0.0646 -0.3132
 9302SOL    HW130860   1.251   6.673   7.733  0.0727  0.8938 -0.0371
 9302SOL    HW230861   1.132   6.763   7.709  0.0701  0.8720 -0.1061
 9303SOL     OW30862   8.032   4.965   4.907  0.2628 -0.2039 -0.1998
 9303SOL    HW130863   7.962   4.912   4.944  0.6774 -0.3656  0.3774
 9303SOL    HW230864   8.090   4.901   4.865 -0.8214  0.0737 -2.2422
 9304SOL     OW30865   6.742   6.822   0.572  0.9637  0.4722 -0.3703
 9304SOL    HW130866   6.785   6.847   0.654 -0.1206 -1.5089  0.8620
 9304SOL    HW230867   6.805   6.848   0.504  1.9495  2.0390  1.0436
 9305SOL     OW30868   6.995   2.331   1.395 -0.6491  0.0512 -0.5297
 9305SOL    HW130869   7.019   2.387   1.320  0.9544  0.1787  0.0520
 9305SOL    HW230870   6.952   2.255   1.355 -1.6690  1.0412 -1.4221
 9306SOL     OW30871   3.377   0.511   3.698  0.0673  0.0484 -0.5679
 9306SOL    HW130872   3.428   0.550   3.769  0.5517 -0.9878 -0.3370
 9306SOL    HW230873   3.289   0.500   3.735 -0.3771  1.8411 -0.9692
 9307SOL     OW30874   1.582   3.531   6.445  0.5697 -0.1517  0.0835
 9307SOL    HW130875   1.606   3.569   6.361  0.1344  0.9928  0.4677
 9307SOL    HW230876   1.659   3.543   6.500  0.4858  0.0316  0.1603
 9308SOL     OW30877   6.666   5.640   0.710  0.2791 -0.4979 -0.1176
 9308SOL    HW130878   6.681   5.602   0.796  0.5595 -0.9112 -0.3466
 9308SOL    HW230879   6.639   5.566   0.655 -0.1274 -0.1968 -0.3288
 9309SOL     OW30880   1.277   1.112   0.700 -0.2844  0.3963  0.2549
 9309SOL    HW130881   1.231   1.028   0.696 -0.7207  0.5573  1.4755
 9309SOL    HW230882   1.363   1.091   0.738 -0.0882  0.3972 -0.1747
 9310SOL     OW30883   5.369   5.725   2.338  0.1022 -0.0651 -0.3700
 9310SOL    HW130884   5.398   5.775   2.262 -1.1302  3.4200  1.2017
 9310SOL    HW230885   5.275   5.740   2.342  0.3157  1.3157  2.6153
 9311SOL     OW30886   4.232   6.278   2.460 -0.3886  0.2236  0.2432
 9311SOL    HW130887   4.174   6.204   2.445 -1.1925  0.6603  1.0825
 9311SOL    HW230888   4.248   6.277   2.555  1.7538 -0.4537 -0.0811
 9312SOL     OW30889   4.346   6.857   1.220 -0.6881 -0.0818 -0.1039
 9312SOL    HW130890   4.264   6.906   1.231 -0.3991  0.3983 -0.0585
 9312SOL    HW230891   4.322   6.784   1.163 -0.9089  0.6951 -1.0392
 9313SOL     OW30892   2.514   5.022   3.467  0.1785 -0.0507  0.2906
 9313SOL    HW130893   2.555   4.952   3.417 -1.0629 -0.5373 -0.0656
 9313SOL    HW230894   2.489   4.982   3.550 -2.1882 -0.5743 -0.6015
 9314SOL     OW30895   2.709   0.471   6.680  0.3479 -0.2687  0.1055
 9314SOL    HW130896   2.747   0.514   6.603 -1.2168 -0.8228 -1.0340
 9314SOL    HW230897   2.723   0.377   6.664 -0.8901 -0.4469 -0.0428
 9315SOL     OW30898   3.459   2.651   0.742  0.1250  0.2535  0.4520
 9315SOL    HW130899   3.481   2.682   0.830  1.5798  1.0666 -0.1631
 9315SOL    HW230900   3.436   2.559   0.755  2.3323 -0.2281  1.4437
 9316SOL     OW30901   3.805   4.817   3.293  0.4926  0.0538 -0.7425
 9316SOL    HW130902   3.890   4.828   3.251  2.1644 -0.6174  2.1586
 9316SOL    HW230903   3.819   4.749   3.359 -1.7340  1.2405  1.1481
 9317SOL     OW30904   0.454   1.914   5.734 -0.0048  0.0951 -0.7806
 9317SOL    HW130905   0.430   2.001   5.704 -1.4877  0.3278  0.9421
 9317SOL    HW230906   0.397   1.897   5.809  2.4669 -1.0208  0.9909
 9318SOL     OW30907   6.826   1.723   4.606  0.0056  0.4196  0.3646
 9318SOL    HW130908   6.891   1.735   4.674  0.2407  2.0011 -0.1050
 9318SOL    HW230909   6.788   1.637   4.624  1.0293  0.2084  1.6414
 9319SOL     OW30910   7.033   3.822   1.824  0.0393 -0.0768  0.4325
 9319SOL    HW130911   6.947   3.783   1.835 -0.2481 -0.6231 -2.7431
 9319SOL    HW230912   7.025   3.874   1.744  2.1919  1.3383  1.0539
 9320SOL     OW30913   0.106   6.328   6.642  0.4294  0.0328 -0.0903
 9320SOL    HW130914   0.185   6.276   6.626 -0.2751 -1.7406  1.7484
 9320SOL    HW230915   0.034   6.270   6.617 -0.3564  1.3067 -0.9166
 9321SOL     OW30916   0.558   1.559   5.593  0.2122 -0.1647 -0.1294
 9321SOL    HW130917   0.612   1.483   5.571 -1.0395 -1.5212  1.2115
 9321SOL    HW230918   0.615   1.615   5.645  1.4318  0.2900 -1.8986
 9322SOL     OW30919   5.086   0.936   4.080 -0.4337  0.4047  0.4282
 9322SOL    HW130920   5.056   0.913   3.992  0.1266  0.2698  0.2719
 9322SOL    HW230921   5.180   0.951   4.070 -0.4790  1.0024  0.8835
 9323SOL     OW30922   1.273   3.389   1.830 -0.3082 -0.0228 -0.7857
 9323SOL    HW130923   1.208   3.456   1.808 -1.5241 -1.0441 -0.3997
 9323SOL    HW230924   1.317   3.371   1.747 -1.1641  0.0272 -1.2682
 9324SOL     OW30925   3.645   1.092   4.182  0.6930 -0.4439  0.3354
 9324SOL    HW130926   3.621   1.032   4.111  0.2610 -0.7636  0.7458
 9324SOL    HW230927   3.601   1.174   4.159  0.3109 -0.6316  0.3767
 9325SOL     OW30928   4.016   2.371   4.091  0.0781 -0.0806 -0.6209
 9325SOL    HW130929   4.013   2.421   4.172 -0.9266  0.3323 -0.9014
 9325SOL    HW230930   3.991   2.282   4.117 -0.1654  0.0336 -0.4648
 9326SOL     OW30931   4.896   0.371   5.352 -0.9616 -0.0147  0.6204
 9326SOL    HW130932   4.813   0.416   5.368 -0.9648 -0.4056  1.7254
 9326SOL    HW230933   4.936   0.421   5.280 -1.2185  1.4324  1.4350
 9327SOL     OW30934   1.750   5.508   6.290  0.9455  0.1698  0.5053
 9327SOL    HW130935   1.736   5.428   6.341 -1.3998  0.0349 -0.2288
 9327SOL    HW230936   1.818   5.485   6.228  0.7488 -1.0657  0.7225
 9328SOL     OW30937   7.844   1.847   7.655  0.2927  0.3470  0.3892
 9328SOL    HW130938   7.908   1.822   7.721  1.1701 -0.9837 -0.9111
 9328SOL    HW230939   7.897   1.872   7.579 -0.7194  0.7991 -0.1833
 9329SOL     OW30940   0.021   3.601   5.199  0.7044  0.2116 -0.3861
 9329SOL    HW130941   0.009   3.593   5.104 -0.2917  0.0276 -0.2565
 9329SOL    HW230942   0.021   3.695   5.216  0.4516  0.2331 -0.5130
 9330SOL     OW30943   3.091   6.621   7.963  0.0094 -0.7662 -0.1221
 9330SOL    HW130944   3.120   6.537   7.997 -1.7598 -1.4243 -0.1366
 9330SOL    HW230945   3.148   6.638   7.889  1.9652 -0.7588  1.3024
 9331SOL     OW30946   5.035   0.645   6.370  0.4219  0.1588 -0.2780
 9331SOL    HW130947   5.120   0.630   6.329  0.3325 -0.7052 -0.1663
 9331SOL    HW230948   5.015   0.564   6.416 -0.4652  0.3449 -0.2982
 9332SOL     OW30949   1.007   3.745   3.611 -0.2018  0.2421  0.1653
 9332SOL    HW130950   0.924   3.717   3.573  0.4227  1.7604 -2.5982
 9332SOL    HW230951   1.004   3.841   3.607  0.5340  0.4352  2.7961
 9333SOL     OW30952   0.219   3.535   1.871 -0.2435  0.3920  0.3798
 9333SOL    HW130953   0.237   3.441   1.873  0.2721  0.4850  0.2138
 9333SOL    HW230954   0.304   3.576   1.855 -0.6235  0.8344 -0.6418
 9334SOL     OW30955   4.153   1.566   6.468  0.1757 -0.2074  0.5510
 9334SOL    HW130956   4.177   1.627   6.399 -0.4015  1.0629  1.4396
 9334SOL    HW230957   4.214   1.493   6.457  3.3499  2.0457  1.5850
 9335SOL     OW30958   1.929   1.174   6.955 -0.5740 -0.0134  0.8240
 9335SOL    HW130959   1.994   1.146   6.890 -0.6572 -1.9084  1.5078
 9335SOL    HW230960   1.859   1.214   6.903  0.4648  0.7640 -0.0314
 9336SOL     OW30961   4.023   2.290   4.959  0.0337  0.4458 -0.1603
 9336SOL    HW130962   4.001   2.286   5.052  1.7527  0.8206  0.2857
 9336SOL    HW230963   4.097   2.351   4.954 -0.8264  1.4322 -1.9367
 9337SOL     OW30964   4.371   7.878   0.898 -0.1312  0.2028 -0.0810
 9337SOL    HW130965   4.275   7.881   0.902 -0.1290 -0.7111  1.1172
 9337SOL    HW230966   4.391   7.788   0.873  0.4469 -0.6565  3.0849
 9338SOL     OW30967   3.698   0.641   0.763 -0.0477  0.3982 -1.0981
 9338SOL    HW130968   3.755   0.686   0.825  0.0010  0.8226 -1.4437
 9338SOL    HW230969   3.751   0.634   0.684 -0.9727  2.1935 -1.9473
 9339SOL     OW30970   2.975   7.480   5.246  0.1178  0.0539 -0.0319
 9339SOL    HW130971   2.899   7.489   5.303 -0.1150  2.8838 -0.6608
 9339SOL    HW230972   2.999   7.388   5.254 -3.8641 -1.2328 -0.4397
 9340SOL     OW30973   0.369   5.079   8.106 -0.0103 -0.1302  0.0827
 9340SOL    HW130974   0.345   4.987   8.089  1.6073 -0.6816  0.6616
 9340SOL    HW230975   0.285   5.123   8.119 -0.8125 -1.5730  0.0208
 9341SOL     OW30976   3.400   6.067   4.599 -0.3204 -0.2287 -0.8999
 9341SOL    HW130977   3.463   6.013   4.646  1.1249  0.8774 -1.4615
 9341SOL    HW230978   3.321   6.066   4.653  0.7946 -0.1649  0.7876
 9342SOL     OW30979   1.373   5.968   6.765 -0.8686  0.2147  0.6325
 9342SOL    HW130980   1.359   5.929   6.851  0.9129 -0.1088  0.8209
 9342SOL    HW230981   1.367   5.895   6.704 -3.5665  0.6471  0.2378
 9343SOL     OW30982   6.564   4.554   3.136  0.4445 -0.4812  0.4023
 9343SOL    HW130983   6.637   4.572   3.195  0.3007 -2.2262  1.1795
 9343SOL    HW230984   6.490   4.600   3.175  1.0953  1.2869 -0.3854
 9344SOL     OW30985   6.503   6.781   1.701 -0.2035  0.1715 -0.0016
 9344SOL    HW130986   6.429   6.732   1.738 -1.3248  2.1314  0.4408
 9344SOL    HW230987   6.483   6.788   1.608 -0.4689  0.5311  0.0837
 9345SOL     OW30988   2.737   5.912   7.918  0.1891 -0.1629 -0.1152
 9345SOL    HW130989   2.738   5.825   7.880  1.1876 -0.3280  0.2668
 9345SOL    HW230990   2.816   5.955   7.883  1.4437 -0.5034  2.1343
 9346SOL     OW30991   0.424   0.415   7.756  0.7796  0.4732  0.0337
 9346SOL    HW130992   0.396   0.504   7.778  1.3744  0.6388  0.1417
 9346SOL    HW230993   0.375   0.393   7.677 -1.0314  0.0542  1.1861
 9347SOL     OW30994   7.912   3.611   1.607  0.6852  0.2335 -0.1526
 9347SOL    HW130995   7.933   3.521   1.633  0.9849  0.0582 -0.9903
 9347SOL    HW230996   7.990   3.641   1.560  0.2161  0.6091 -0.6968
 9348SOL     OW30997   1.037   6.070   6.918  0.1402 -0.0434 -0.1035
 9348SOL    HW130998   0.974   6.142   6.920 -1.0484 -1.0241 -0.5634
 9348SOL    HW230999   1.046   6.044   7.010 -0.1756  0.0668 -0.0400
 9349SOL     OW31000   0.130   0.842   0.397 -0.1269  0.2813  0.5251
 9349SOL    HW131001   0.100   0.933   0.395 -2.0854 -0.3121 -1.5118
 9349SOL    HW231002   0.060   0.795   0.442 -1.2398 -0.7802 -2.1436
 9350SOL     OW31003   6.915   5.304   7.251  0.5168  0.0004  0.1421
 9350SOL    HW131004   6.905   5.361   7.175  0.2026  0.2838  0.3933
 9350SOL    HW231005   6.992   5.250   7.231 -0.7986 -1.4243 -1.3323
 9351SOL     OW31006   7.020   3.734   6.927  0.0662 -0.0830  0.7974
 9351SOL    HW131007   6.937   3.752   6.972  1.0721  0.0425  2.7190
 9351SOL    HW231008   7.061   3.665   6.980  0.9650 -0.4991 -0.4080
 9352SOL     OW31009   2.343   0.126   6.268  0.2502 -0.3598  0.4464
 9352SOL    HW131010   2.295   0.052   6.232 -0.3828  1.3592 -2.6067
 9352SOL    HW231011   2.278   0.175   6.318  0.0368 -0.4837  0.2875
 9353SOL     OW31012   3.841   6.169   3.066  0.6531  0.2797 -0.6244
 9353SOL    HW131013   3.919   6.223   3.057  1.0002  0.0303  0.6418
 9353SOL    HW231014   3.779   6.223   3.116  0.6502 -0.1265 -0.1776
 9354SOL     OW31015   0.839   6.421   4.060  0.0732  0.2349  0.4846
 9354SOL    HW131016   0.756   6.468   4.065 -0.8154 -1.0763 -1.0158
 9354SOL    HW231017   0.878   6.451   3.978 -0.0504 -0.8642  0.0057
 9355SOL     OW31018   2.504   3.581   0.069  0.5099 -0.2827 -0.1316
 9355SOL    HW131019   2.456   3.650   0.114  1.0670 -0.7232  1.1784
 9355SOL    HW231020   2.595   3.593   0.097  0.9136 -0.4267 -1.3354
 9356SOL     OW31021   2.734   4.469   2.765 -0.2588 -0.5084 -0.4828
 9356SOL    HW131022   2.794   4.484   2.693 -0.6761  0.1542 -0.6965
 9356SOL    HW231023   2.720   4.556   2.803  2.0362 -1.1287  2.0994
 9357SOL     OW31024   5.268   4.368   2.167 -0.3394  0.4002 -0.6117
 9357SOL    HW131025   5.293   4.337   2.254  0.4258 -2.3204 -1.7132
 9357SOL    HW231026   5.272   4.463   2.174  1.3660  0.2499  1.8655
 9358SOL     OW31027   4.008   5.983   6.984 -0.4267 -0.0919  0.2953
 9358SOL    HW131028   3.991   6.015   7.073  0.1325  0.4672  0.2110
 9358SOL    HW231029   4.081   6.037   6.953  0.7992 -1.6923  0.2756
 9359SOL     OW31030   4.864   6.584   2.841 -0.0659  0.0190  0.2350
 9359SOL    HW131031   4.897   6.500   2.811  0.9827  0.7407 -0.6831
 9359SOL    HW231032   4.864   6.640   2.764  0.7891  1.3332  1.1531
 9360SOL     OW31033   5.825   6.789   6.816  0.4578  0.0630 -0.1052
 9360SOL    HW131034   5.759   6.843   6.860  1.1979  0.7075  0.2251
 9360SOL    HW231035   5.905   6.802   6.867  0.9035 -0.5385 -0.6350
 9361SOL     OW31036   3.822   4.769   4.599  0.0721  0.4047  0.4829
 9361SOL    HW131037   3.832   4.684   4.558 -1.3470  0.2868  0.3334
 9361SOL    HW231038   3.777   4.751   4.682 -1.2958  1.0841 -0.0664
 9362SOL     OW31039   7.850   5.152   5.148  0.2692 -0.2884  0.6448
 9362SOL    HW131040   7.872   5.070   5.192 -0.0065 -0.5835  0.2463
 9362SOL    HW231041   7.928   5.173   5.097 -0.8239 -2.1848 -2.0416
 9363SOL     OW31042   0.650   6.363   7.781  0.5450  0.0971 -0.2495
 9363SOL    HW131043   0.705   6.363   7.859 -0.0853  0.3548  0.1991
 9363SOL    HW231044   0.708   6.333   7.711  1.3085  0.5679  0.1723
 9364SOL     OW31045   5.660   5.931   2.397 -0.1877 -0.4120  0.0929
 9364SOL    HW131046   5.570   5.939   2.430  0.6374  1.2433  2.1375
 9364SOL    HW231047   5.714   5.975   2.463  2.0059 -0.2031 -1.7270
 9365SOL     OW31048   4.488   4.089   0.983 -0.1153  0.4899 -0.7173
 9365SOL    HW131049   4.551   4.087   0.911 -0.4170  0.9113 -1.0000
 9365SOL    HW231050   4.538   4.121   1.058  1.1644 -3.3062  0.2671
 9366SOL     OW31051   7.130   8.084   2.179  0.4148  0.1491 -0.8404
 9366SOL    HW131052   7.055   8.088   2.238 -1.0575  0.2418 -2.6172
 9366SOL    HW231053   7.200   8.130   2.225 -0.5830  0.0355  0.8847
 9367SOL     OW31054   0.596   5.602   5.754  0.0654 -0.5094  0.0651
 9367SOL    HW131055   0.617   5.510   5.735 -0.2715 -0.4584 -0.5571
 9367SOL    HW231056   0.504   5.611   5.731 -0.0108 -0.1143  0.5110
 9368SOL     OW31057   0.757   0.378   1.803 -0.0347 -0.1745  0.0872
 9368SOL    HW131058   0.839   0.329   1.811  0.1742  0.2469  0.6571
 9368SOL    HW231059   0.777   0.464   1.841 -0.1932  0.6120 -1.5105
 9369SOL     OW31060   5.825   5.746   1.150 -0.0342 -0.0773 -0.0971
 9369SOL    HW131061   5.784   5.660   1.158 -0.1787 -0.1276 -1.2454
 9369SOL    HW231062   5.755   5.808   1.169  0.2066 -0.1998  1.3043
 9370SOL     OW31063   7.174   5.953   8.076  0.5664 -0.1180 -0.4893
 9370SOL    HW131064   7.134   6.037   8.099 -0.2770 -0.3957 -0.8989
 9370SOL    HW231065   7.261   5.956   8.115  0.5187  0.9191 -0.4398
 9371SOL     OW31066   0.270   3.711   6.147  0.6855 -0.0218 -0.1034
 9371SOL    HW131067   0.181   3.692   6.118  0.6466 -2.5806  1.4301
 9371SOL    HW231068   0.271   3.806   6.160 -1.0079  0.4069 -2.5904
 9372SOL     OW31069   2.890   1.004   1.218 -0.1242  0.0142 -0.0996
 9372SOL    HW131070   2.976   1.031   1.186 -0.0986 -1.1859 -1.1473
 9372SOL    HW231071   2.840   1.085   1.223  0.6524  0.5653 -0.8082
 9373SOL     OW31072   7.111   7.774   0.842 -0.1500  0.0804 -0.2517
 9373SOL    HW131073   7.097   7.823   0.923  0.0963  1.4280 -0.9920
 9373SOL    HW231074   7.066   7.691   0.856 -2.7381  1.4325  0.1768
 9374SOL     OW31075   6.098   0.204   8.039  0.0332 -0.2988  0.2510
 9374SOL    HW131076   6.073   0.286   8.080  2.6815 -0.0022  1.4697
 9374SOL    HW231077   6.091   0.221   7.945 -0.1597  1.0842  0.4978
 9375SOL     OW31078   7.171   5.821   6.801  0.2624  0.1098  0.5409
 9375SOL    HW131079   7.201   5.860   6.719 -1.3641  1.0853  0.3777
 9375SOL    HW231080   7.217   5.870   6.869  0.6368  0.1627  0.2518
 9376SOL     OW31081   7.682   4.266   3.350 -0.4470 -0.5601  0.2852
 9376SOL    HW131082   7.756   4.272   3.410 -1.9178 -0.9126  2.2685
 9376SOL    HW231083   7.658   4.357   3.332 -0.0702 -0.4463  0.3626
 9377SOL     OW31084   2.358   6.634   1.212 -0.2946 -0.3979 -0.0693
 9377SOL    HW131085   2.382   6.556   1.161  1.2830  0.4114 -0.6157
 9377SOL    HW231086   2.338   6.700   1.146  0.9028  0.4034  0.3536
 9378SOL     OW31087   3.959   6.772   4.576 -0.4286  0.1357  0.2177
 9378SOL    HW131088   3.920   6.829   4.510  0.0842 -0.0359 -0.2406
 9378SOL    HW231089   3.893   6.766   4.645 -1.8944 -1.3891 -1.2079
 9379SOL     OW31090   7.293   5.726   7.948 -0.0235  0.4110  0.3288
 9379SOL    HW131091   7.228   5.795   7.964 -1.0674 -0.2452 -0.8373
 9379SOL    HW231092   7.360   5.769   7.895 -1.3226  0.2784 -1.5286
 9380SOL     OW31093   3.062   6.143   6.115 -0.4524  0.6202 -0.0456
 9380SOL    HW131094   2.995   6.127   6.048 -0.1466 -0.1010 -0.1780
 9380SOL    HW231095   3.076   6.238   6.111  0.0630  0.5128 -1.4951
 9381SOL     OW31096   7.617   1.715   4.893  0.4141  0.3737  0.0491
 9381SOL    HW131097   7.616   1.678   4.805  2.1190 -0.1101  0.1962
 9381SOL    HW231098   7.598   1.808   4.880 -2.3323 -0.1826 -0.4847
 9382SOL     OW31099   1.659   6.795   6.280 -0.0751 -0.1525 -0.0843
 9382SOL    HW131100   1.736   6.834   6.238  0.6763  0.3098  1.6182
 9382SOL    HW231101   1.677   6.701   6.279  0.6411 -0.0318  0.5071
 9383SOL     OW31102   2.179   6.467   8.072 -0.8584  0.5080 -0.3065
 9383SOL    HW131103   2.252   6.528   8.079 -1.1414  1.1130 -2.0318
 9383SOL    HW231104   2.195   6.402   8.140  1.0341  0.8979 -0.3222
 9384SOL     OW31105   6.529   5.550   1.308  0.3101 -0.2422  0.2863
 9384SOL    HW131106   6.588   5.622   1.285  0.8156 -0.5944  0.4664
 9384SOL    HW231107   6.460   5.553   1.242  0.9023 -0.2612 -0.3424
 9385SOL     OW31108   6.837   1.004   2.366 -0.2890  0.1595  0.1200
 9385SOL    HW131109   6.840   0.957   2.450  0.9851 -0.3861 -0.2070
 9385SOL    HW231110   6.861   1.094   2.389  0.9705 -0.1915  0.2204
 9386SOL     OW31111   2.650   6.418   7.336 -0.1209  0.3193  0.1877
 9386SOL    HW131112   2.587   6.373   7.278  0.1728  0.3733 -0.1781
 9386SOL    HW231113   2.729   6.425   7.283  0.3866 -0.2808  0.8623
 9387SOL     OW31114   1.399   4.366   7.651  0.2574 -0.0483  0.1067
 9387SOL    HW131115   1.455   4.439   7.627  1.0440 -0.3305  0.9860
 9387SOL    HW231116   1.359   4.392   7.734  0.6025 -0.6205  0.4681
 9388SOL     OW31117   3.960   7.455   5.244 -0.1619  0.4807  0.2027
 9388SOL    HW131118   3.881   7.503   5.267  0.7461  1.7538  0.7953
 9388SOL    HW231119   4.029   7.495   5.296  0.7759 -1.0382  0.2026
 9389SOL     OW31120   4.381   5.455   5.561  0.1818  0.1783  0.6680
 9389SOL    HW131121   4.403   5.465   5.468 -0.5291  3.0414  0.6982
 9389SOL    HW231122   4.429   5.525   5.604 -0.2952 -0.4778  2.3329
 9390SOL     OW31123   2.131   3.866   8.115 -0.2106 -0.0668  0.0765
 9390SOL    HW131124   2.144   3.809   8.191  1.6521 -0.1596 -0.2499
 9390SOL    HW231125   2.053   3.832   8.072 -0.3418 -1.0401  1.0426
 9391SOL     OW31126   7.909   5.434   5.980  0.0378 -0.6432 -0.2266
 9391SOL    HW131127   7.992   5.475   6.003 -0.7593  0.6212  0.5265
 9391SOL    HW231128   7.933   5.365   5.919  1.6277 -0.2397 -0.1141
 9392SOL     OW31129   5.168   0.081   3.872 -0.0993  0.6200  0.2617
 9392SOL    HW131130   5.261   0.083   3.851 -0.0925  1.6808  0.3711
 9392SOL    HW231131   5.160   0.127   3.955 -0.5960 -0.3947  0.7873
 9393SOL     OW31132   8.078   6.681   5.153  0.4383 -0.3232  0.0580
 9393SOL    HW131133   8.024   6.745   5.106  0.7354  0.2910  0.5369
 9393SOL    HW231134   8.085   6.607   5.093 -0.4867 -0.1950 -0.2255
 9394SOL     OW31135   7.082   7.447   4.435  0.7276  0.1482  0.1737
 9394SOL    HW131136   7.057   7.527   4.481 -1.2329 -0.2609 -0.1157
 9394SOL    HW231137   7.042   7.376   4.485 -0.0337 -0.4284 -1.1914
 9395SOL     OW31138   3.675   0.917   5.551  0.1619 -0.1049 -0.1150
 9395SOL    HW131139   3.756   0.893   5.597 -0.7374 -0.9980  1.0987
 9395SOL    HW231140   3.634   0.982   5.608 -0.7578 -0.8863  0.1319
 9396SOL     OW31141   1.925   3.768   5.973 -0.1924  0.0603 -0.2953
 9396SOL    HW131142   1.973   3.769   6.056 -0.6589  0.0032 -0.0213
 9396SOL    HW231143   1.878   3.851   5.972  0.9926  0.7408 -1.2095
 9397SOL     OW31144   6.148   2.542   1.821  0.4412 -0.3328 -0.6450
 9397SOL    HW131145   6.143   2.614   1.884 -1.2818  1.0185 -2.1853
 9397SOL    HW231146   6.099   2.471   1.861  0.5776  0.0067  0.1400
 9398SOL     OW31147   6.136   7.096   2.312  0.1204 -0.4233 -0.0825
 9398SOL    HW131148   6.043   7.088   2.290  0.1351  1.0830 -0.8059
 9398SOL    HW231149   6.139   7.158   2.384  0.3472 -3.0597  2.3821
 9399SOL     OW31150   3.161   6.782   0.288  0.0235  0.6586 -0.2035
 9399SOL    HW131151   3.117   6.850   0.339  0.3839 -0.1013  1.1522
 9399SOL    HW231152   3.252   6.812   0.282  0.2755  0.1211  0.7470
 9400SOL     OW31153   4.214   4.052   3.677 -0.4220 -0.1336  0.5361
 9400SOL    HW131154   4.184   3.984   3.737  1.4998  0.3854  2.1849
 9400SOL    HW231155   4.216   4.132   3.730  2.4183  0.1140  0.1806
 9401SOL     OW31156   1.749   0.486   2.784  0.2956  0.9147  0.0639
 9401SOL    HW131157   1.813   0.558   2.786  0.4749  0.9305 -2.6992
 9401SOL    HW231158   1.686   0.513   2.717 -1.3558 -0.1606  1.1315
 9402SOL     OW31159   4.909   1.300   5.067 -0.1989 -0.5648 -0.0604
 9402SOL    HW131160   4.938   1.376   5.118  2.4767 -1.5332  0.0021
 9402SOL    HW231161   4.984   1.240   5.069 -1.4982 -2.3464 -1.8053
 9403SOL     OW31162   6.250   5.849   4.790  0.2468  0.3118  0.4491
 9403SOL    HW131163   6.194   5.870   4.865 -0.0622  1.5641 -0.0949
 9403SOL    HW231164   6.204   5.779   4.745 -0.7776  1.1263  0.1704
 9404SOL     OW31165   1.376   1.018   1.442 -0.6053  0.6659 -0.2515
 9404SOL    HW131166   1.460   1.061   1.459  0.6485 -1.7945  0.3615
 9404SOL    HW231167   1.310   1.077   1.478  1.1295  1.1201  2.4923
 9405SOL     OW31168   2.751   1.288   0.418  0.3863  0.0190 -0.0411
 9405SOL    HW131169   2.765   1.271   0.325  0.4749  2.1130 -0.4480
 9405SOL    HW231170   2.730   1.381   0.423 -0.4166 -0.2163  1.9586
 9406SOL     OW31171   6.228   4.124   4.541 -0.4893  0.2012  0.0208
 9406SOL    HW131172   6.317   4.127   4.507 -0.2732  0.9534  0.6164
 9406SOL    HW231173   6.225   4.193   4.607 -0.9018 -1.1618  1.4946
 9407SOL     OW31174   3.990   4.106   4.943 -0.5174  0.1176 -0.2941
 9407SOL    HW131175   3.969   4.152   4.862 -1.3208  0.5331  0.1388
 9407SOL    HW231176   3.941   4.023   4.937 -1.8492  0.8157  0.4352
 9408SOL     OW31177   3.440   6.092   1.464  0.1699  0.2958  0.2076
 9408SOL    HW131178   3.427   6.186   1.452  0.9221  0.1463 -2.3772
 9408SOL    HW231179   3.526   6.084   1.504  0.0552  0.6980  0.5428
 9409SOL     OW31180   6.116   7.286   4.885  0.2201  0.3235 -0.1871
 9409SOL    HW131181   6.126   7.237   4.803  1.5749  1.1394 -0.5463
 9409SOL    HW231182   6.178   7.244   4.946 -0.3500  0.0940  0.2387
 9410SOL     OW31183   2.626   7.501   6.306  0.1195  0.7958 -0.4818
 9410SOL    HW131184   2.712   7.462   6.317 -0.1452  0.1685 -0.5977
 9410SOL    HW231185   2.643   7.595   6.297  0.7540  0.7193 -0.1162
 9411SOL     OW31186   5.632   2.929   3.329  0.9288  0.0742  0.6762
 9411SOL    HW131187   5.611   2.836   3.323  0.4676  0.2779 -1.7463
 9411SOL    HW231188   5.700   2.934   3.397  1.7590 -2.1642  0.0906
 9412SOL     OW31189   2.139   6.167   3.185 -0.0134  0.1456  0.4050
 9412SOL    HW131190   2.079   6.111   3.235 -0.3064 -0.2977 -0.4371
 9412SOL    HW231191   2.219   6.116   3.178 -0.1734 -0.0438 -0.0866
 9413SOL     OW31192   3.727   2.231   2.318  0.4637 -0.0679 -0.8425
 9413SOL    HW131193   3.798   2.234   2.253 -0.1033  0.8125 -1.4471
 9413SOL    HW231194   3.772   2.224   2.402  1.2642  0.1740 -1.2353
 9414SOL     OW31195   0.113   6.193   6.975  0.0875 -0.5586  0.8658
 9414SOL    HW131196   0.117   6.099   6.991 -2.6419 -0.8975  0.1141
 9414SOL    HW231197   0.022   6.209   6.949  0.8891  1.9959 -0.8091
 9415SOL     OW31198   3.641   0.869   2.179  0.0933 -0.1645 -0.0265
 9415SOL    HW131199   3.590   0.853   2.258  1.6410 -2.2659  0.6186
 9415SOL    HW231200   3.722   0.909   2.210 -0.5804  2.1123 -0.9393
 9416SOL     OW31201   5.802   2.153   2.882 -0.0696 -0.1195 -0.3114
 9416SOL    HW131202   5.864   2.172   2.952  0.7394 -0.1837 -1.0074
 9416SOL    HW231203   5.722   2.198   2.908  0.2959  0.0429  0.5403
 9417SOL     OW31204   6.801   4.134   5.651 -0.0525 -0.1812 -0.1901
 9417SOL    HW131205   6.733   4.078   5.614 -0.7251 -0.0520  0.8253
 9417SOL    HW231206   6.835   4.086   5.726 -0.4622  0.6506  0.5387
 9418SOL     OW31207   3.385   4.040   1.025 -0.0736 -0.0494  0.3724
 9418SOL    HW131208   3.415   4.060   1.113 -1.2446  0.6294  0.6460
 9418SOL    HW231209   3.289   4.050   1.030 -0.3832 -2.2201 -0.4036
 9419SOL     OW31210   1.939   7.693   2.695  0.7117  0.0249  1.0219
 9419SOL    HW131211   2.013   7.638   2.722  0.2678 -0.7187  0.7383
 9419SOL    HW231212   1.896   7.643   2.626  0.6000  0.9648  0.3951
 9420SOL     OW31213   1.423   5.696   7.293  0.0922 -0.5340  0.1999
 9420SOL    HW131214   1.354   5.630   7.300  0.5480 -1.0990 -0.5046
 9420SOL    HW231215   1.388   5.759   7.229  0.3648 -1.0109 -0.4326
 9421SOL     OW31216   3.238   5.420   6.884 -0.4931 -0.1661 -0.1439
 9421SOL    HW131217   3.296   5.359   6.840 -0.6679  0.0123 -0.6244
 9421SOL    HW231218   3.171   5.441   6.819 -0.4838  0.4680  0.0467
 9422SOL     OW31219   6.920   6.232   7.637 -0.1298  0.2146 -0.2646
 9422SOL    HW131220   6.849   6.253   7.576 -3.0262 -0.4641  2.5833
 9422SOL    HW231221   6.936   6.138   7.624  0.6516  0.4689 -1.2463
 9423SOL     OW31222   2.979   4.843   0.005 -0.4855  0.3206  0.5194
 9423SOL    HW131223   3.023   4.771  -0.041 -0.9547  1.0602 -1.1812
 9423SOL    HW231224   2.922   4.800   0.069 -1.1036 -0.8773 -0.7801
 9424SOL     OW31225   8.060   6.355   1.376  0.6545  1.1478 -0.5450
 9424SOL    HW131226   8.074   6.391   1.289  1.5880 -0.7583 -1.2370
 9424SOL    HW231227   8.000   6.282   1.363  0.4430  1.1193  0.4727
 9425SOL     OW31228   6.524   6.774   7.947  0.3321 -0.1789  0.2067
 9425SOL    HW131229   6.580   6.700   7.922 -0.6833 -0.7628 -0.3851
 9425SOL    HW231230   6.436   6.736   7.954 -0.3153  1.1005 -0.7276
 9426SOL     OW31231   3.333   2.611   6.885  0.4660  0.4559  0.0536
 9426SOL    HW131232   3.371   2.533   6.926 -0.0698  0.9389  1.5580
 9426SOL    HW231233   3.269   2.576   6.822 -0.8016 -0.3746  1.7201
 9427SOL     OW31234   4.599   4.803   4.579  0.1870 -0.5663  0.4492
 9427SOL    HW131235   4.659   4.863   4.536 -0.9180 -0.0537 -0.4366
 9427SOL    HW231236   4.573   4.742   4.511  0.1412 -1.1279  0.9645
 9428SOL     OW31237   1.464   2.187   0.751 -0.2892 -0.1036 -0.5909
 9428SOL    HW131238   1.382   2.203   0.704  0.0321  1.4230 -0.6925
 9428SOL    HW231239   1.455   2.238   0.832  0.6055  0.2107 -0.6781
 9429SOL     OW31240   4.635   0.733   6.158  0.2428  0.2447 -0.0486
 9429SOL    HW131241   4.731   0.741   6.155  0.3975 -1.0511  0.5390
 9429SOL    HW231242   4.608   0.729   6.067  0.8211 -0.0433 -0.2083
 9430SOL     OW31243   3.717   7.462   2.620  0.2320  0.0055 -0.3663
 9430SOL    HW131244   3.740   7.538   2.673 -2.4999  1.5614 -1.1833
 9430SOL    HW231245   3.664   7.407   2.677 -0.1953  0.1870 -0.5786
 9431SOL     OW31246   7.187   7.144   4.766 -0.1983 -0.0535 -0.2159
 9431SOL    HW131247   7.277   7.134   4.734  0.0153  1.0941 -0.0219
 9431SOL    HW231248   7.197   7.191   4.849 -0.8160 -2.0243  1.0425
 9432SOL     OW31249   1.943   4.030   6.560 -0.5355  0.0840 -0.2780
 9432SOL    HW131250   1.920   3.945   6.522 -1.9653 -0.7464  2.1838
 9432SOL    HW231251   2.013   4.010   6.622  1.3784  1.3157 -1.9154
 9433SOL     OW31252   7.992   4.551   5.190 -0.3281 -0.9925  0.4212
 9433SOL    HW131253   7.949   4.471   5.219 -2.6988 -0.3859 -1.1254
 9433SOL    HW231254   8.010   4.536   5.097  1.0465 -0.4415  0.5691
 9434SOL     OW31255   3.598   4.334   6.364 -0.4574  0.2464  0.4312
 9434SOL    HW131256   3.513   4.315   6.324 -0.3013 -0.0783  0.2438
 9434SOL    HW231257   3.609   4.428   6.356  0.2584  0.0461 -1.7126
 9435SOL     OW31258   0.083   7.282   4.683 -0.1082  0.3492 -0.4677
 9435SOL    HW131259   0.075   7.233   4.765  0.5259 -0.0479 -0.6356
 9435SOL    HW231260   0.153   7.238   4.635 -0.4759  0.5723 -1.2318
 9436SOL     OW31261   6.280   3.129   1.002 -0.3400 -0.0584  0.2255
 9436SOL    HW131262   6.276   3.046   0.955  1.7006 -0.6918  1.0575
 9436SOL    HW231263   6.305   3.193   0.935  0.4435 -0.5554  0.0360
 9437SOL     OW31264   2.991   5.216   0.890 -0.3359 -0.8381 -0.4248
 9437SOL    HW131265   2.918   5.212   0.952 -0.3864  1.1721 -0.2861
 9437SOL    HW231266   3.063   5.170   0.933 -0.1762  1.0443  1.4773
 9438SOL     OW31267   4.766   6.332   1.536  0.9680 -0.3111 -0.4133
 9438SOL    HW131268   4.688   6.387   1.528  0.8169 -0.6827 -1.8746
 9438SOL    HW231269   4.751   6.260   1.475  1.2800 -1.8572  1.2412
 9439SOL     OW31270   0.399   6.503   4.543  0.1151  0.3805  0.7082
 9439SOL    HW131271   0.438   6.575   4.592 -1.5630  2.1554 -0.3940
 9439SOL    HW231272   0.329   6.470   4.599 -2.0725  2.6763 -0.4620
 9440SOL     OW31273   3.094   7.571   2.015 -0.4647 -0.2585  0.6292
 9440SOL    HW131274   3.061   7.511   2.082 -1.2813 -1.7352 -1.0284
 9440SOL    HW231275   3.019   7.586   1.957 -0.4554  2.8135  1.2235
 9441SOL     OW31276   0.771   3.860   5.845 -0.1489  0.4985 -0.0732
 9441SOL    HW131277   0.724   3.870   5.762 -0.0487  1.9947  0.0304
 9441SOL    HW231278   0.793   3.949   5.871  1.8010 -0.0706  0.4207
 9442SOL     OW31279   4.643   0.874   7.831 -0.8273 -1.2949  0.2145
 9442SOL    HW131280   4.685   0.788   7.835  0.5141 -0.7225 -0.8208
 9442SOL    HW231281   4.596   0.873   7.748  0.1128 -0.6456 -0.3412
 9443SOL     OW31282   0.802   7.026   5.104 -0.4760  0.2437 -0.1025
 9443SOL    HW131283   0.896   7.043   5.113  0.0356 -1.1335 -2.1437
 9443SOL    HW231284   0.787   7.023   5.009 -3.0211  2.4723  0.1025
 9444SOL     OW31285   7.365   4.931   6.988 -0.2132  0.9180 -0.5617
 9444SOL    HW131286   7.312   4.853   7.009  2.2354 -1.0088 -1.0619
 9444SOL    HW231287   7.450   4.895   6.962  0.7040  3.7668 -1.8094
 9445SOL     OW31288   3.224   1.418   4.432  0.5570  0.3038  0.2984
 9445SOL    HW131289   3.263   1.332   4.416 -0.2509  0.3215 -2.1842
 9445SOL    HW231290   3.242   1.435   4.525  1.5687 -2.0919  0.6325
 9446SOL     OW31291   3.984   3.380   3.416  0.0212  0.0542 -0.5896
 9446SOL    HW131292   4.032   3.461   3.405 -0.6518  0.6039  0.3031
 9446SOL    HW231293   4.048   3.311   3.401  1.9320  0.7022  3.2893
 9447SOL     OW31294   5.848   4.356   0.768 -0.2137 -0.2007  0.8619
 9447SOL    HW131295   5.880   4.326   0.683 -0.2677 -0.1868  0.8368
 9447SOL    HW231296   5.925   4.353   0.825  0.0382  0.6708  0.5876
 9448SOL     OW31297   5.942   6.036   4.813  0.0461 -0.3723  0.0471
 9448SOL    HW131298   5.999   6.004   4.883  2.2283 -0.3890 -1.6095
 9448SOL    HW231299   5.885   5.962   4.792 -0.0426 -0.6454  1.1921
 9449SOL     OW31300   4.467   4.495   0.490 -0.1145  0.8607  0.1378
 9449SOL    HW131301   4.456   4.590   0.488  3.6681  1.6123  2.7651
 9449SOL    HW231302   4.445   4.470   0.580 -0.5500 -0.6903 -0.3619
 9450SOL     OW31303   3.301   0.118   1.984  0.1816 -0.0643 -0.1108
 9450SOL    HW131304   3.261   0.031   1.993 -0.3727 -0.0092 -1.6547
 9450SOL    HW231305   3.256   0.156   1.909  1.4121  1.0059 -0.3224
 9451SOL     OW31306   6.408   0.780   7.525  0.4069 -0.2205 -0.3685
 9451SOL    HW131307   6.345   0.723   7.568 -0.3266  1.2319  0.5492
 9451SOL    HW231308   6.457   0.722   7.467  0.2348 -1.9257  1.1078
 9452SOL     OW31309   1.152   2.520   0.901  0.4179 -0.0980  0.1653
 9452SOL    HW131310   1.084   2.478   0.954  0.9861 -0.4761  0.6039
 9452SOL    HW231311   1.213   2.557   0.965  0.0793  1.1690 -0.2162
 9453SOL     OW31312   2.526   2.014   6.692 -0.5924 -0.0602  0.4671
 9453SOL    HW131313   2.447   1.976   6.655  2.3305 -5.0913 -1.6537
 9453SOL    HW231314   2.564   2.065   6.621 -0.2145 -0.7001  0.2017
 9454SOL     OW31315   7.104   1.639   4.078  0.0630  0.3314 -0.0911
 9454SOL    HW131316   7.131   1.676   4.162 -1.1766  0.0191  0.4725
 9454SOL    HW231317   7.096   1.545   4.095  2.2028 -0.1137 -1.2398
 9455SOL     OW31318   4.621   6.700   6.171  0.1949 -0.3087 -0.0659
 9455SOL    HW131319   4.709   6.704   6.133  0.7141  0.0036  1.0955
 9455SOL    HW231320   4.596   6.792   6.183  0.2495 -0.3852  0.7343
 9456SOL     OW31321   0.712   4.546   5.745  0.3100  0.2530  0.3576
 9456SOL    HW131322   0.750   4.617   5.692  2.5658 -0.4641  0.8962
 9456SOL    HW231323   0.679   4.591   5.823 -0.0774  0.9352 -0.1860
 9457SOL     OW31324   2.685   3.108   2.300  0.2234 -0.0895  0.1571
 9457SOL    HW131325   2.606   3.088   2.251 -0.0053 -0.5021  0.6899
 9457SOL    HW231326   2.723   3.183   2.254  0.3073 -0.7994 -0.9768
 9458SOL     OW31327   0.548   4.492   1.669  0.5349 -0.2769  0.1537
 9458SOL    HW131328   0.520   4.446   1.589  1.1800  0.3185 -0.4279
 9458SOL    HW231329   0.604   4.563   1.637 -0.2578  0.7785  1.0515
 9459SOL     OW31330   4.011   1.935   6.576 -0.2603  0.1678  0.0672
 9459SOL    HW131331   4.097   1.906   6.547 -0.6534 -0.1496 -0.8119
 9459SOL    HW231332   3.990   1.879   6.651 -1.1729 -2.1939 -1.8334
 9460SOL     OW31333   3.907   2.336   2.859 -0.5882 -0.1955  0.0238
 9460SOL    HW131334   3.969   2.397   2.820 -1.6316  0.7200 -0.2759
 9460SOL    HW231335   3.910   2.259   2.801  0.9137 -0.5631  0.5462
 9461SOL     OW31336   7.255   3.062   3.002  0.1309  0.2878 -0.1122
 9461SOL    HW131337   7.184   3.025   3.055 -0.2804 -0.4371 -1.1425
 9461SOL    HW231338   7.244   3.022   2.916  1.7705  0.1975 -0.3047
 9462SOL     OW31339   5.507   4.714   6.644 -0.4566  0.8505  0.2476
 9462SOL    HW131340   5.559   4.684   6.570 -0.4509  1.0104  0.1873
 9462SOL    HW231341   5.570   4.754   6.703 -0.4312  0.5387  0.4351
 9463SOL     OW31342   5.579   1.376   1.990  0.2594  0.7115  0.2044
 9463SOL    HW131343   5.534   1.362   2.073  1.8023 -1.7705  0.7371
 9463SOL    HW231344   5.670   1.396   2.015  0.5513  0.8018 -0.8771
 9464SOL     OW31345   2.273   4.381   6.350  0.1158  0.8018 -0.4967
 9464SOL    HW131346   2.343   4.380   6.415 -0.3683 -0.1351  0.0244
 9464SOL    HW231347   2.232   4.467   6.361 -0.6945  0.2411  1.2758
 9465SOL     OW31348   1.188   0.085   1.849 -0.1219  0.1073  0.5286
 9465SOL    HW131349   1.204   0.131   1.767  1.6490  0.0827  0.8367
 9465SOL    HW231350   1.176  -0.007   1.823  0.5234  0.0838  0.3071
 9466SOL     OW31351   7.490   7.261   1.423 -0.4885  0.4650 -0.5813
 9466SOL    HW131352   7.565   7.264   1.365 -0.4588  0.2757 -0.5541
 9466SOL    HW231353   7.431   7.329   1.391  1.0914  2.9048  1.3198
 9467SOL     OW31354   2.999   5.904   1.196 -0.1907 -0.3520 -0.0079
 9467SOL    HW131355   2.934   5.949   1.250  1.5935 -0.0899  2.0637
 9467SOL    HW231356   3.014   5.820   1.240  2.2759  0.4074  0.8035
 9468SOL     OW31357   6.882   5.386   3.421  0.7532 -0.2098  0.1600
 9468SOL    HW131358   6.893   5.363   3.329 -1.5877 -0.7758 -0.0245
 9468SOL    HW231359   6.874   5.481   3.421 -2.3170 -0.3612 -0.6899
 9469SOL     OW31360   7.871   4.583   0.423  0.7847  0.2165  0.0805
 9469SOL    HW131361   7.806   4.611   0.359  2.3110 -3.4662 -3.5403
 9469SOL    HW231362   7.944   4.643   0.411  0.3870  0.6128 -0.3871
 9470SOL     OW31363   6.931   5.146   4.678  0.3556 -0.3337 -0.0047
 9470SOL    HW131364   6.880   5.200   4.739  0.5913  1.4359 -1.2987
 9470SOL    HW231365   6.911   5.182   4.592  1.9121 -1.2108 -0.7747
 9471SOL     OW31366   3.675   3.595   4.556  0.1755  0.4289  0.6792
 9471SOL    HW131367   3.738   3.568   4.489 -1.4972  0.0424 -0.8001
 9471SOL    HW231368   3.639   3.677   4.523 -0.6764  0.2331  1.1044
 9472SOL     OW31369   4.563   2.002   7.218  0.9128  0.2308  0.1386
 9472SOL    HW131370   4.616   2.064   7.169  1.0975 -0.3920 -0.4629
 9472SOL    HW231371   4.504   2.057   7.270  2.2165  0.9398  0.9274
 9473SOL     OW31372   5.862   4.537   1.690  0.3003 -0.1183 -0.1671
 9473SOL    HW131373   5.933   4.525   1.628  0.9084 -0.2958  0.5419
 9473SOL    HW231374   5.834   4.449   1.713  1.3606 -0.1344  1.2175
 9474SOL     OW31375   3.922   3.271   2.960 -0.4300  0.0389 -0.1274
 9474SOL    HW131376   3.914   3.242   3.051  4.4249  0.5592  0.7212
 9474SOL    HW231377   3.962   3.196   2.915  0.4973  1.0142 -0.9603
 9475SOL     OW31378   8.017   0.781   1.977  0.5676 -0.2668 -0.1560
 9475SOL    HW131379   7.952   0.795   1.908  0.3591 -0.7873 -0.0682
 9475SOL    HW231380   8.101   0.785   1.931  0.4626  0.0975 -0.3209
 9476SOL     OW31381   5.623   7.201   5.527  0.6613  0.2332  0.4646
 9476SOL    HW131382   5.620   7.154   5.444  1.4127  1.7526 -0.4586
 9476SOL    HW231383   5.698   7.163   5.573  0.1149 -0.7583  0.5596
 9477SOL     OW31384   1.500   5.192   2.577 -0.3726 -0.1563  0.1048
 9477SOL    HW131385   1.520   5.102   2.603  0.1676  0.5483  2.2707
 9477SOL    HW231386   1.458   5.231   2.653 -1.1414  1.2829 -1.0020
 9478SOL     OW31387   1.130   2.036   7.233 -0.1280 -0.2532 -0.6382
 9478SOL    HW131388   1.103   2.074   7.316 -1.8117 -0.1089 -1.2136
 9478SOL    HW231389   1.191   2.100   7.196  0.8380 -0.4454  0.5809
 9479SOL     OW31390   5.524   7.095   2.778  0.2106  0.1572 -0.3009
 9479SOL    HW131391   5.599   7.078   2.722  0.4204  1.7562 -0.5711
 9479SOL    HW231392   5.554   7.163   2.838 -0.9195  0.6298 -0.2283
 9480SOL     OW31393   4.492   6.490   2.938  0.8967 -0.0020  0.0422
 9480SOL    HW131394   4.403   6.513   2.966  0.7865 -0.8495  0.4394
 9480SOL    HW231395   4.484   6.473   2.844  0.9054  1.1412 -0.1798
 9481SOL     OW31396   2.008   3.824   5.582 -0.0715 -0.3289 -0.6916
 9481SOL    HW131397   2.046   3.749   5.627  1.5623 -0.6605 -2.5433
 9481SOL    HW231398   2.080   3.886   5.573 -1.4179  1.6271  0.9538
 9482SOL     OW31399   5.319   4.941   1.428  0.0250 -0.1710  0.1215
 9482SOL    HW131400   5.390   5.003   1.416  1.1162 -1.5995 -1.2031
 9482SOL    HW231401   5.242   4.995   1.446  1.4855  1.4107  2.0305
 9483SOL     OW31402   6.651   4.648   6.217 -0.6504 -0.2570  0.3627
 9483SOL    HW131403   6.692   4.676   6.299  1.9689 -1.6237 -0.3732
 9483SOL    HW231404   6.719   4.598   6.172 -3.2064 -2.8232 -0.9470
 9484SOL     OW31405   6.112   0.075   3.853 -0.3255  0.5099  0.1447
 9484SOL    HW131406   6.042   0.119   3.901  0.8785  0.5775  1.9183
 9484SOL    HW231407   6.107  -0.016   3.883 -0.3817  0.2508 -0.6270
 9485SOL     OW31408   7.268   1.086   7.632  0.0515 -0.1755  0.0527
 9485SOL    HW131409   7.322   1.147   7.683 -0.3258  0.6430 -0.5040
 9485SOL    HW231410   7.268   1.122   7.543 -0.4544 -0.8058 -0.2101
 9486SOL     OW31411   2.476   6.946   1.221 -0.4366 -0.3103 -0.4487
 9486SOL    HW131412   2.385   6.967   1.241 -0.3511 -0.4269  0.0876
 9486SOL    HW231413   2.497   6.997   1.143 -1.1458 -0.7429 -0.9331
 9487SOL     OW31414   3.620   2.867   1.842 -0.0233 -0.1468 -0.4634
 9487SOL    HW131415   3.644   2.957   1.818  0.2208  0.1376  0.7471
 9487SOL    HW231416   3.703   2.819   1.839  0.3986  0.3302  1.5529
 9488SOL     OW31417   7.731   3.956   5.376 -0.4075  0.0090  0.3418
 9488SOL    HW131418   7.791   3.886   5.349 -1.4055 -1.0267  0.7003
 9488SOL    HW231419   7.749   4.028   5.316  0.3397 -0.7217 -0.3408
 9489SOL     OW31420   5.245   1.597   6.610  0.1227  0.2927  0.6238
 9489SOL    HW131421   5.319   1.618   6.553 -0.0314  0.2447  0.4039
 9489SOL    HW231422   5.252   1.659   6.682 -0.0411  0.7655  0.2380
 9490SOL     OW31423   1.955   4.602   7.383 -0.0639  0.3269 -0.5006
 9490SOL    HW131424   1.956   4.543   7.458 -0.4303  0.6704 -0.2249
 9490SOL    HW231425   1.906   4.555   7.316  3.0731 -1.4550 -1.7531
 9491SOL     OW31426   8.106   1.779   4.578 -0.1013 -0.2021  0.1296
 9491SOL    HW131427   8.121   1.818   4.492  1.4951 -0.4748  0.2389
 9491SOL    HW231428   8.145   1.841   4.640 -1.3529  0.0574  0.6844
 9492SOL     OW31429   1.199   4.811   2.715 -0.5927  0.4396  0.5429
 9492SOL    HW131430   1.243   4.727   2.728  1.7249  1.0465 -2.3714
 9492SOL    HW231431   1.110   4.788   2.691 -0.4109 -1.0893  1.1880
 9493SOL     OW31432   5.327   6.827   5.901 -0.5049 -0.3765  0.7788
 9493SOL    HW131433   5.422   6.822   5.890 -0.8534 -0.6568 -4.2255
 9493SOL    HW231434   5.307   6.920   5.888 -0.9835 -0.4953  0.6798
 9494SOL     OW31435   0.322   2.872   0.366  0.0315 -0.1848  0.1490
 9494SOL    HW131436   0.271   2.870   0.446 -2.0267 -1.9815 -1.0989
 9494SOL    HW231437   0.350   2.782   0.353  1.6216  0.3423 -0.4441
 9495SOL     OW31438   3.010   4.237   2.861 -0.2431  0.1246 -0.1911
 9495SOL    HW131439   2.960   4.309   2.898  2.1877  0.6686  2.3434
 9495SOL    HW231440   2.987   4.161   2.914 -1.0319 -0.4731 -1.3447
 9496SOL     OW31441   4.436   2.474   6.366  0.0752  0.2352 -0.1185
 9496SOL    HW131442   4.458   2.564   6.389 -0.3895  0.1159  0.8446
 9496SOL    HW231443   4.510   2.445   6.313  0.4531  1.0333 -0.0551
 9497SOL     OW31444   3.902   2.051   3.906  0.5016  0.4039  0.1643
 9497SOL    HW131445   3.890   1.977   3.847 -2.9580 -0.2805  1.5149
 9497SOL    HW231446   3.914   2.126   3.848  2.2300 -0.8542 -1.2466
 9498SOL     OW31447   6.306   0.835   0.957  0.6980  0.7389  0.0240
 9498SOL    HW131448   6.269   0.776   1.023  3.2808 -1.7499 -0.5648
 9498SOL    HW231449   6.240   0.903   0.945 -1.3097 -0.5918  2.6773
 9499SOL     OW31450   2.498   3.803   0.548 -0.6347  0.2194  0.1049
 9499SOL    HW131451   2.570   3.789   0.610 -0.7663  0.5893  0.3423
 9499SOL    HW231452   2.496   3.722   0.496  0.7028  0.6761 -0.6999
 9500SOL     OW31453   4.825   7.817   6.517 -0.0295 -0.3069 -0.1128
 9500SOL    HW131454   4.777   7.736   6.535 -2.6991  0.6925 -2.0870
 9500SOL    HW231455   4.902   7.788   6.467 -1.5362 -1.5932 -1.8235
 9501SOL     OW31456   2.086   7.047   7.760  0.4388  0.5231 -0.0772
 9501SOL    HW131457   1.992   7.050   7.779  0.1879  0.7996 -1.2922
 9501SOL    HW231458   2.127   7.032   7.845 -0.7424 -0.3491  0.3619
 9502SOL     OW31459   1.566   0.310   4.969  0.5247 -0.6869  0.4050
 9502SOL    HW131460   1.659   0.320   4.990  0.1368 -1.2953  2.6356
 9502SOL    HW231461   1.524   0.294   5.053 -1.8956  1.4089 -0.2939
 9503SOL     OW31462   2.664   0.905   1.362  0.0372 -0.2917  0.2363
 9503SOL    HW131463   2.706   0.868   1.440  0.5061  0.8600  0.5641
 9503SOL    HW231464   2.734   0.957   1.321 -0.6496  0.3983 -0.0726
 9504SOL     OW31465   6.661   2.049   6.517  0.1242 -0.0114  0.7016
 9504SOL    HW131466   6.690   1.963   6.547  1.0572  0.3601  0.9131
 9504SOL    HW231467   6.599   2.078   6.584  0.7670  0.0097  1.3094
 9505SOL     OW31468   6.870   7.649   2.319 -0.2482  0.0711 -0.4221
 9505SOL    HW131469   6.825   7.733   2.306  1.1332  0.7871 -0.8363
 9505SOL    HW231470   6.952   7.673   2.362  0.2615 -1.0467 -0.7392
 9506SOL     OW31471   5.856   7.105   5.677 -0.5780 -0.4557  0.3538
 9506SOL    HW131472   5.860   7.182   5.735 -1.4091  2.3130 -2.9343
 9506SOL    HW231473   5.821   7.036   5.732  1.7974  0.9022  4.0119
 9507SOL     OW31474   7.073   2.179   0.314 -0.1962 -0.4414  0.1305
 9507SOL    HW131475   6.978   2.188   0.308 -0.2161  0.0262  0.9767
 9507SOL    HW231476   7.102   2.168   0.224 -1.0540 -0.6130 -0.1334
 9508SOL     OW31477   4.116   1.215   7.781 -0.3722 -0.0016 -0.9730
 9508SOL    HW131478   4.155   1.221   7.868 -0.8085  0.8196 -0.8147
 9508SOL    HW231479   4.045   1.151   7.791 -1.3176  1.0863 -0.3410
 9509SOL     OW31480   7.295   6.537   4.472 -0.1234 -0.1651  0.3938
 9509SOL    HW131481   7.244   6.461   4.501 -2.3561  1.2830  0.5120
 9509SOL    HW231482   7.375   6.534   4.524  0.5288 -3.1401 -0.5421
 9510SOL     OW31483   5.468   5.973   7.358  0.2398 -0.0036 -0.4454
 9510SOL    HW131484   5.538   5.927   7.313  0.9315 -0.1006  0.7016
 9510SOL    HW231485   5.491   5.968   7.451 -0.2866  1.6194 -0.1932
 9511SOL     OW31486   5.591   0.216   5.503 -0.0050  0.6105 -0.3169
 9511SOL    HW131487   5.680   0.183   5.485 -0.5500 -0.4453 -1.2156
 9511SOL    HW231488   5.577   0.196   5.596 -0.0898 -1.2514 -0.6842
 9512SOL     OW31489   1.631   7.752   6.304 -0.2367  0.6183  0.8907
 9512SOL    HW131490   1.543   7.787   6.319 -0.2287 -0.0957  2.9746
 9512SOL    HW231491   1.675   7.762   6.389  0.2885 -2.8684  1.1754
 9513SOL     OW31492   6.788   2.164   6.790 -0.6517 -0.3543  0.6652
 9513SOL    HW131493   6.776   2.199   6.702  1.4530 -0.9465  0.0899
 9513SOL    HW231494   6.811   2.072   6.775  0.7171 -0.2114  1.7617
 9514SOL     OW31495   7.342   2.397   1.808  0.0190  0.1251 -0.2837
 9514SOL    HW131496   7.349   2.323   1.749  0.3813  1.6340 -2.2267
 9514SOL    HW231497   7.432   2.421   1.829 -0.0298  1.0956 -1.1211
 9515SOL     OW31498   0.837   4.519   4.381  0.0005 -0.0016 -0.0079
 9515SOL    HW131499   0.876   4.435   4.403 -0.9746 -0.0731  1.6548
 9515SOL    HW231500   0.896   4.585   4.418 -0.2248 -0.0429  0.4429
 9516SOL     OW31501   7.042   2.942   3.519  0.3107  0.7412 -0.0668
 9516SOL    HW131502   7.022   2.924   3.427 -0.6021 -0.7063  0.3817
 9516SOL    HW231503   7.047   3.037   3.525  2.8703  0.8484 -2.1061
 9517SOL     OW31504   4.314   7.166   5.112 -0.1916  0.1707 -0.1275
 9517SOL    HW131505   4.312   7.231   5.042  1.4580 -0.4725 -0.8298
 9517SOL    HW231506   4.270   7.090   5.076 -2.4987  0.9374  0.8407
 9518SOL     OW31507   5.054   3.016   4.808 -0.0100  0.1928  0.6074
 9518SOL    HW131508   5.004   2.939   4.835 -0.2856  0.7151  1.6389
 9518SOL    HW231509   5.101   3.043   4.887  3.0221 -1.0500 -0.6146
 9519SOL     OW31510   3.769   1.355   6.664  0.5675 -0.0901  0.2357
 9519SOL    HW131511   3.676   1.372   6.648  0.7368  1.2065  0.4645
 9519SOL    HW231512   3.814   1.431   6.626  1.2670  1.0700  3.0494
 9520SOL     OW31513   3.403   4.388   2.583 -0.1917 -0.1297  0.0459
 9520SOL    HW131514   3.479   4.423   2.536  0.4237 -1.0741  0.3080
 9520SOL    HW231515   3.425   4.296   2.598 -1.4914 -0.4696 -0.0713
 9521SOL     OW31516   0.370   7.858   3.183  0.3144 -0.1737 -0.2743
 9521SOL    HW131517   0.458   7.886   3.207 -0.4259  2.7276 -0.5597
 9521SOL    HW231518   0.354   7.781   3.236  3.2272 -1.1950 -0.6989
 9522SOL     OW31519   6.218   7.074   1.097  0.1518  0.3371 -0.2691
 9522SOL    HW131520   6.190   7.021   1.022 -1.7911 -1.9984  1.9370
 9522SOL    HW231521   6.299   7.032   1.127  0.5227  0.8093 -0.6004
 9523SOL     OW31522   6.818   3.086   5.472 -0.7968 -0.0340 -0.1512
 9523SOL    HW131523   6.889   3.026   5.450  0.8483  2.1569 -1.3665
 9523SOL    HW231524   6.823   3.095   5.567  0.0257 -0.5593 -0.1319
 9524SOL     OW31525   3.750   1.472   1.114 -0.1816  0.0684  0.1054
 9524SOL    HW131526   3.789   1.388   1.092 -2.1072 -0.2575 -2.5372
 9524SOL    HW231527   3.823   1.533   1.114  0.8821 -1.1599 -0.5839
 9525SOL     OW31528   0.705   3.288   4.022 -1.0444 -0.4343  0.0581
 9525SOL    HW131529   0.705   3.200   3.983 -2.7432  1.1147 -3.9495
 9525SOL    HW231530   0.790   3.325   3.998 -0.6018 -0.6750  1.1695
 9526SOL     OW31531   7.663   3.061   4.854 -0.3184 -0.2770  0.1915
 9526SOL    HW131532   7.591   3.005   4.884  0.3717 -0.0480  2.4814
 9526SOL    HW231533   7.740   3.004   4.856  0.0188  0.1833  0.4489
 9527SOL     OW31534   0.888   5.506   7.140 -0.7844  0.0012  0.6881
 9527SOL    HW131535   0.833   5.465   7.074 -0.2123  1.6538 -0.9129
 9527SOL    HW231536   0.976   5.506   7.101 -0.4752  1.2492  1.3288
 9528SOL     OW31537   5.518   0.122   7.000 -0.1841 -0.1253  0.4403
 9528SOL    HW131538   5.448   0.187   6.995  0.3564  0.4063 -1.4838
 9528SOL    HW231539   5.565   0.143   7.080 -2.0468 -0.3446  1.6472
 9529SOL     OW31540   6.514   4.506   6.617  0.2369  0.0950 -0.2640
 9529SOL    HW131541   6.444   4.496   6.552  1.4606  1.7640 -1.9621
 9529SOL    HW231542   6.560   4.422   6.615 -1.4740 -0.9122  0.6451
 9530SOL     OW31543   3.132   0.831   1.843 -0.0080  0.3579  0.6004
 9530SOL    HW131544   3.172   0.857   1.760  0.9169 -1.8647  0.3012
 9530SOL    HW231545   3.074   0.759   1.820 -0.8055  0.6169  1.7155
 9531SOL     OW31546   5.833   1.066   2.670 -0.5528  0.3619 -0.4648
 9531SOL    HW131547   5.904   1.066   2.605 -0.9016 -0.0402 -0.8506
 9531SOL    HW231548   5.840   1.151   2.713  0.8559 -0.0886  0.2717
 9532SOL     OW31549   0.267   6.429   6.161  0.2436 -0.5866 -0.1828
 9532SOL    HW131550   0.188   6.479   6.180 -0.4302 -1.0386 -1.6532
 9532SOL    HW231551   0.270   6.363   6.229  0.0577  0.2147  0.6220
 9533SOL     OW31552   4.639   0.748   4.675 -0.0792 -0.5150 -0.0481
 9533SOL    HW131553   4.709   0.742   4.610  0.4981 -0.3570  0.5536
 9533SOL    HW231554   4.655   0.831   4.720 -0.0172 -0.9959  0.8207
 9534SOL     OW31555   0.453   7.570   5.199 -0.3718  0.6584  0.1062
 9534SOL    HW131556   0.527   7.534   5.249 -0.3032 -1.6491 -1.5232
 9534SOL    HW231557   0.387   7.591   5.265  0.0087 -1.5336  1.2651
 9535SOL     OW31558   3.543   3.174   5.578 -0.0339 -0.4344 -1.2008
 9535SOL    HW131559   3.540   3.258   5.624  0.8088 -0.1026 -1.7281
 9535SOL    HW231560   3.629   3.173   5.535  0.3984 -1.9964 -0.3884
 9536SOL     OW31561   0.714   1.372   5.445  0.5880 -0.0407 -0.6166
 9536SOL    HW131562   0.763   1.453   5.458  0.9020 -0.0602 -1.6584
 9536SOL    HW231563   0.762   1.324   5.378 -0.0821 -0.6961 -0.6484
 9537SOL     OW31564   7.371   7.807   1.929  0.4151 -0.3868 -0.4942
 9537SOL    HW131565   7.346   7.846   1.846 -0.9014 -2.2085 -1.0316
 9537SOL    HW231566   7.403   7.880   1.982 -2.1265  1.4761 -1.3033
 9538SOL     OW31567   7.941   3.266   1.055 -0.0612 -0.2412  0.0138
 9538SOL    HW131568   7.890   3.185   1.057 -0.9900  0.3303  1.2132
 9538SOL    HW231569   8.018   3.248   1.110 -0.7081 -0.0566  1.0023
 9539SOL     OW31570   4.905   1.537   6.143 -0.2174 -0.0510 -0.0305
 9539SOL    HW131571   4.877   1.469   6.204  0.1226  0.4112  0.6576
 9539SOL    HW231572   4.982   1.500   6.100  0.6100  0.2813  1.1106
 9540SOL     OW31573   2.259   8.061   0.994  0.0407 -0.1734  0.3500
 9540SOL    HW131574   2.282   7.983   1.046 -0.2919 -1.4473 -1.3369
 9540SOL    HW231575   2.336   8.117   0.999  1.0160 -1.4467  0.0870
 9541SOL     OW31576   7.262   1.110   5.909 -0.1217  0.1088  0.3769
 9541SOL    HW131577   7.239   1.116   5.816 -0.5069 -0.1340  0.4502
 9541SOL    HW231578   7.297   1.196   5.931  1.0180 -0.1757 -0.2612
 9542SOL     OW31579   6.253   0.281   4.052  0.0800  0.0687 -0.2272
 9542SOL    HW131580   6.217   0.222   3.986  1.6527 -0.3454 -0.7566
 9542SOL    HW231581   6.200   0.264   4.130 -1.0902 -0.2340 -1.0683
 9543SOL     OW31582   4.480   3.674   7.171 -0.6612 -0.1572 -0.0313
 9543SOL    HW131583   4.529   3.634   7.243 -0.9174  1.1535  0.9102
 9543SOL    HW231584   4.495   3.615   7.096  1.3391 -0.4399  0.5301
 9544SOL     OW31585   7.964   3.384   0.077  0.1684 -0.1432  1.0277
 9544SOL    HW131586   7.903   3.457   0.080 -1.0791 -1.1579  1.2146
 9544SOL    HW231587   8.039   3.413   0.129 -0.2040  1.0717  0.9171
 9545SOL     OW31588   0.655   7.871   1.756 -0.0502 -1.0498  0.1986
 9545SOL    HW131589   0.721   7.828   1.811  0.2167 -1.4378 -0.4174
 9545SOL    HW231590   0.671   7.965   1.767  0.4110 -1.1387  0.2881
 9546SOL     OW31591   5.735   2.938   3.895 -0.7444  0.3382 -0.8712
 9546SOL    HW131592   5.677   2.863   3.907 -0.3620 -0.0991 -1.6659
 9546SOL    HW231593   5.783   2.946   3.978 -0.2323 -0.7862 -1.0491
 9547SOL     OW31594   0.181   6.350   4.733  0.4958 -0.3793  0.3836
 9547SOL    HW131595   0.134   6.349   4.816 -0.6246 -1.8153 -0.2312
 9547SOL    HW231596   0.268   6.315   4.755  1.4503  2.4424  1.5520
 9548SOL     OW31597   5.788   4.195   6.094  0.4168 -0.0656  0.7950
 9548SOL    HW131598   5.849   4.141   6.044 -0.0529 -0.8835  1.0736
 9548SOL    HW231599   5.842   4.264   6.132  1.7890 -2.3326  3.3846
 9549SOL     OW31600   6.148   7.168   4.630 -0.1442 -0.2674  0.2031
 9549SOL    HW131601   6.131   7.075   4.643 -0.3016 -0.0817  1.4062
 9549SOL    HW231602   6.200   7.172   4.550 -0.8958 -1.3108 -0.3581
 9550SOL     OW31603   3.901   1.176   6.803  0.1224 -0.2166 -0.1862
 9550SOL    HW131604   3.983   1.224   6.814  0.2714 -0.6415  0.6221
 9550SOL    HW231605   3.849   1.232   6.745  1.7862 -0.9728 -2.5691
 9551SOL     OW31606   3.806   6.333   0.548 -0.7341  0.2449  0.7470
 9551SOL    HW131607   3.836   6.424   0.545  1.5779 -0.4812 -0.3237
 9551SOL    HW231608   3.712   6.339   0.535 -0.2341  2.3209 -3.5482
 9552SOL     OW31609   1.472   1.653   6.040 -0.4727  0.6228  0.9940
 9552SOL    HW131610   1.527   1.578   6.019 -2.3022 -0.5503  0.0993
 9552SOL    HW231611   1.530   1.729   6.034  1.2811 -0.6425  1.3164
 9553SOL     OW31612   6.753   5.892   3.596 -0.0215 -0.2304  0.5603
 9553SOL    HW131613   6.807   5.820   3.629  1.3828 -0.5705 -2.2348
 9553SOL    HW231614   6.814   5.964   3.584 -0.2851 -0.3326 -1.7969
 9554SOL     OW31615   2.974   6.376   1.552  0.1400  0.3619 -0.0392
 9554SOL    HW131616   2.973   6.323   1.632 -2.9423  0.1677 -0.0618
 9554SOL    HW231617   3.017   6.322   1.487 -0.4191 -0.9695  0.6570
 9555SOL     OW31618   0.135   2.419   6.483  0.2538 -0.2979  0.1194
 9555SOL    HW131619   0.054   2.457   6.449  0.1075 -0.7493 -0.0331
 9555SOL    HW231620   0.204   2.476   6.448  0.1389 -0.9735 -1.2857
 9556SOL     OW31621   4.002   0.410   6.075  0.2183  0.2614  0.5558
 9556SOL    HW131622   4.070   0.367   6.127  1.0204  0.9652  0.1086
 9556SOL    HW231623   3.988   0.352   6.000 -0.6965 -0.5826  1.3463
 9557SOL     OW31624   5.370   7.231   3.033 -0.3187 -0.9812  0.1058
 9557SOL    HW131625   5.387   7.191   3.118  0.1809  0.2679  0.6314
 9557SOL    HW231626   5.283   7.270   3.041  0.2741  0.2922  0.5300
 9558SOL     OW31627   4.782   1.422   7.233  0.3582 -0.5584  0.3214
 9558SOL    HW131628   4.734   1.382   7.160 -0.3082  1.1066 -0.2200
 9558SOL    HW231629   4.874   1.410   7.210  0.1660 -1.1037 -0.1975
 9559SOL     OW31630   1.414   7.227   2.354 -0.4776  0.1624 -0.2279
 9559SOL    HW131631   1.424   7.150   2.410 -2.4302  1.6568  2.4390
 9559SOL    HW231632   1.327   7.217   2.315 -1.2762  1.5212  1.1192
 9560SOL     OW31633   4.629   3.243   7.141 -0.7101  0.5989  0.3482
 9560SOL    HW131634   4.688   3.273   7.072  0.2244 -1.6070  0.1118
 9560SOL    HW231635   4.621   3.318   7.200  0.9127  1.5325 -0.5567
 9561SOL     OW31636   5.983   0.972   7.744  0.1241  0.6378 -0.3044
 9561SOL    HW131637   6.020   1.059   7.758  0.0584  0.9384 -1.7872
 9561SOL    HW231638   6.056   0.913   7.758 -0.3929  0.6227  3.3617
 9562SOL     OW31639   0.951   3.699   7.285  0.5865  0.3207 -0.4511
 9562SOL    HW131640   0.952   3.740   7.372  1.8670  0.9433 -0.7300
 9562SOL    HW231641   1.031   3.646   7.282 -1.0551 -2.3615 -0.0809
 9563SOL     OW31642   6.539   1.226   6.471 -0.3832  0.1786  0.2664
 9563SOL    HW131643   6.467   1.174   6.506 -0.2924  1.4506  2.5637
 9563SOL    HW231644   6.609   1.162   6.455 -1.5468 -0.8872 -0.7448
 9564SOL     OW31645   5.457   2.058   4.750  0.0910  0.1033  0.3513
 9564SOL    HW131646   5.490   2.004   4.822  1.0260 -0.1142 -0.2206
 9564SOL    HW231647   5.448   1.997   4.677 -0.7876  0.3377  0.2531
 9565SOL     OW31648   3.479   1.014   3.819  0.3423  0.1314 -0.7446
 9565SOL    HW131649   3.543   0.953   3.781  0.1763  0.2896 -1.2930
 9565SOL    HW231650   3.486   1.092   3.764  0.1017  0.3661 -0.4399
 9566SOL     OW31651   3.738   1.916   0.322  0.2157 -0.9609 -0.2310
 9566SOL    HW131652   3.644   1.901   0.308  0.2310  0.2009 -1.8344
 9566SOL    HW231653   3.743   2.001   0.366  0.5618  0.8624 -3.4853
 9567SOL     OW31654   3.783   5.772   1.677  0.0524 -0.1110  0.4179
 9567SOL    HW131655   3.699   5.728   1.677 -0.4548  0.7650 -1.5354
 9567SOL    HW231656   3.846   5.704   1.702 -1.1602 -0.8648  1.5334
 9568SOL     OW31657   5.542   0.948   2.653  0.1811 -0.4673 -0.0244
 9568SOL    HW131658   5.597   0.980   2.725 -1.0602  0.3392  0.5939
 9568SOL    HW231659   5.577   0.861   2.633  0.0230 -1.0955  2.1504
 9569SOL     OW31660   7.971   6.339   5.090  0.4625 -0.4669  0.3260
 9569SOL    HW131661   7.994   6.318   5.180  1.2298 -3.3677 -0.4427
 9569SOL    HW231662   8.042   6.303   5.037 -0.5404  0.0965 -1.5161
 9570SOL     OW31663   0.580   3.960   2.038 -0.2620 -0.0576 -0.4163
 9570SOL    HW131664   0.624   3.919   1.963 -1.8761 -0.8295 -1.0042
 9570SOL    HW231665   0.511   4.013   1.998 -2.1828 -1.7289  0.5171
 9571SOL     OW31666   4.332   2.851   7.329 -0.4636  0.2581  0.1003
 9571SOL    HW131667   4.383   2.922   7.291  1.7888 -1.4747 -0.3456
 9571SOL    HW231668   4.254   2.844   7.273 -0.2444  1.7202 -0.4152
 9572SOL     OW31669   6.443   3.047   1.481 -0.0212  0.2122 -0.1788
 9572SOL    HW131670   6.418   2.957   1.503 -1.2356  0.4155 -0.6164
 9572SOL    HW231671   6.430   3.052   1.386 -0.9455  1.1270 -0.0180
 9573SOL     OW31672   6.836   1.378   1.596  0.2452  0.2784  0.0873
 9573SOL    HW131673   6.804   1.373   1.506 -1.1835  1.2575  0.5129
 9573SOL    HW231674   6.930   1.359   1.589  0.2419  0.7493 -1.6532
 9574SOL     OW31675   6.598   1.590   4.890  0.3045  0.0055  0.3833
 9574SOL    HW131676   6.651   1.595   4.970  0.2235  0.8592  0.3975
 9574SOL    HW231677   6.537   1.664   4.897  0.0391 -0.1423 -0.2861
 9575SOL     OW31678   2.077   4.191   7.131  0.2636  0.1442 -0.2882
 9575SOL    HW131679   2.091   4.285   7.142 -0.3402  0.1063  0.9642
 9575SOL    HW231680   2.014   4.168   7.199  0.4661 -1.1915 -0.5249
 9576SOL     OW31681   1.674   5.828   0.179 -0.0796  0.0042  0.4977
 9576SOL    HW131682   1.634   5.872   0.104 -0.0110  1.5122  1.2961
 9576SOL    HW231683   1.603   5.819   0.243 -0.1174 -1.1828  0.3177
 9577SOL     OW31684   6.112   2.898   0.895  0.0247 -0.2400 -0.7801
 9577SOL    HW131685   6.084   2.936   0.978  0.6475 -0.2602 -0.5532
 9577SOL    HW231686   6.056   2.821   0.883 -0.2965 -0.0423 -0.5490
 9578SOL     OW31687   2.878   5.694   7.676  0.5777 -0.0869  0.3714
 9578SOL    HW131688   2.831   5.623   7.719 -0.4009 -0.9308 -1.9102
 9578SOL    HW231689   2.969   5.667   7.677  0.6451  0.0991  2.1469
 9579SOL     OW31690   2.857   7.855   7.322  0.1882 -0.1646 -0.9067
 9579SOL    HW131691   2.922   7.900   7.268  1.1932 -0.0484  0.3523
 9579SOL    HW231692   2.904   7.780   7.359  0.2213  0.9871  1.5615
 9580SOL     OW31693   3.322   5.120   1.901  0.3939  0.1724 -0.0566
 9580SOL    HW131694   3.393   5.100   1.839 -1.5154 -2.6749 -1.6013
 9580SOL    HW231695   3.309   5.214   1.893  1.8642  0.2767 -2.1942
 9581SOL     OW31696   1.718   7.144   0.394 -0.3340 -0.4223 -0.0371
 9581SOL    HW131697   1.690   7.054   0.376 -0.5614 -0.3471 -0.0683
 9581SOL    HW231698   1.798   7.155   0.344  0.2594 -0.9429  0.7824
 9582SOL     OW31699   0.653   0.522   7.913 -0.0468  0.1382  0.2448
 9582SOL    HW131700   0.633   0.526   8.007 -0.2633 -1.5677  0.2957
 9582SOL    HW231701   0.568   0.511   7.871  0.2615 -2.0879  0.0963
 9583SOL     OW31702   0.164   6.931   1.796 -0.3143 -0.0068 -0.3699
 9583SOL    HW131703   0.091   6.872   1.778 -0.7572 -0.5031  2.6245
 9583SOL    HW231704   0.240   6.873   1.802 -0.4863 -0.1009  1.0522
 9584SOL     OW31705   1.847   2.778   0.315 -0.0307  0.0151 -0.3674
 9584SOL    HW131706   1.864   2.746   0.404 -0.5960  1.4841  0.2965
 9584SOL    HW231707   1.819   2.700   0.267  2.4810 -1.2877  0.0960
 9585SOL     OW31708   2.963   5.544   7.412  0.5106  0.1626  0.1940
 9585SOL    HW131709   3.052   5.568   7.384  1.0946  0.2357  1.9683
 9585SOL    HW231710   2.918   5.628   7.424  0.1807  0.1239 -0.7585
 9586SOL     OW31711   3.427   4.524   1.507 -0.3188  0.1103  0.4137
 9586SOL    HW131712   3.471   4.462   1.448 -0.9764  0.1111 -0.0960
 9586SOL    HW231713   3.435   4.485   1.594  0.4626 -0.0085  0.2969
 9587SOL     OW31714   2.597   6.661   3.573  0.2600 -0.4378  0.6147
 9587SOL    HW131715   2.528   6.624   3.518 -0.1405  0.5905  0.3884
 9587SOL    HW231716   2.648   6.717   3.514  0.8334 -0.6043  0.9416
 9588SOL     OW31717   0.653   4.703   1.522 -0.0399  0.0861 -0.2980
 9588SOL    HW131718   0.716   4.724   1.453  1.2963  2.3561  1.4836
 9588SOL    HW231719   0.575   4.756   1.500  0.3800  0.8057 -0.0690
 9589SOL     OW31720   2.525   4.448   3.637  0.4118 -0.2381 -0.0251
 9589SOL    HW131721   2.617   4.468   3.623  0.5728 -0.8960  0.0372
 9589SOL    HW231722   2.477   4.517   3.591  0.9245  0.9005  1.1195
 9590SOL     OW31723   5.880   5.732   4.214  0.0164 -0.4984 -0.0137
 9590SOL    HW131724   5.806   5.768   4.164 -0.0965 -0.1177  0.4162
 9590SOL    HW231725   5.842   5.659   4.263 -0.4196  0.5806  1.3084
 9591SOL     OW31726   7.120   1.388   3.364 -0.5879  0.1103 -0.2794
 9591SOL    HW131727   7.172   1.349   3.294 -1.5746 -0.0119 -0.9764
 9591SOL    HW231728   7.112   1.480   3.338  0.5971  0.4932  0.6534
 9592SOL     OW31729   3.336   5.829   3.095 -0.1999  0.2326  0.3627
 9592SOL    HW131730   3.386   5.910   3.104 -2.4323  1.5699  1.6613
 9592SOL    HW231731   3.350   5.783   3.177 -1.4603  0.8875  0.9772
 9593SOL     OW31732   4.045   7.602   0.130 -0.3891 -0.1858 -0.0170
 9593SOL    HW131733   3.990   7.552   0.070 -2.0574  0.5359  0.8557
 9593SOL    HW231734   4.117   7.633   0.075 -1.8275  0.4026 -1.6596
 9594SOL     OW31735   3.049   2.783   7.468 -0.3510  0.2785 -0.3516
 9594SOL    HW131736   3.051   2.716   7.537  0.9555 -0.4091 -1.0126
 9594SOL    HW231737   3.074   2.864   7.513 -0.6062  0.0664  0.1904
 9595SOL     OW31738   4.232   0.529   2.327 -0.8125 -0.5695 -0.7616
 9595SOL    HW131739   4.290   0.476   2.273  0.4983 -1.1109  1.0844
 9595SOL    HW231740   4.183   0.466   2.379 -1.7896 -0.0469 -1.0117
 9596SOL     OW31741   6.793   7.582   3.895  0.0191 -0.3902  0.3414
 9596SOL    HW131742   6.837   7.594   3.811 -1.7099  1.1398 -0.4282
 9596SOL    HW231743   6.859   7.606   3.960  0.5391  1.3033 -0.7343
 9597SOL     OW31744   3.516   0.717   4.727  0.0336  0.0763 -0.2729
 9597SOL    HW131745   3.476   0.735   4.643  1.7566  0.4553 -1.0511
 9597SOL    HW231746   3.525   0.621   4.729  0.5494  0.1104 -0.7988
 9598SOL     OW31747   5.484   7.302   6.703 -0.0961  0.0461  0.1571
 9598SOL    HW131748   5.481   7.345   6.618  0.9755  0.5541  0.3601
 9598SOL    HW231749   5.392   7.291   6.727 -0.5285 -2.2197 -2.0849
 9599SOL     OW31750   3.941   2.353   2.188 -0.1865  0.3381  0.3280
 9599SOL    HW131751   3.975   2.422   2.246  0.6543 -0.9514  1.4213
 9599SOL    HW231752   4.006   2.283   2.193 -0.3191  0.0058 -1.8719
 9600SOL     OW31753   5.294   2.885   0.892 -0.3781 -0.4091 -0.8034
 9600SOL    HW131754   5.237   2.829   0.837 -0.2572 -1.6551  0.2945
 9600SOL    HW231755   5.373   2.897   0.839 -0.3708 -1.3633 -1.0308
 9601SOL     OW31756   6.294   6.993   3.845  0.2097  0.6067 -0.8695
 9601SOL    HW131757   6.338   7.066   3.801  1.7046  0.4766  0.3337
 9601SOL    HW231758   6.365   6.939   3.880 -0.8633 -1.4435 -1.6890
 9602SOL     OW31759   5.257   6.827   2.102  0.1083  0.5637  0.2970
 9602SOL    HW131760   5.308   6.747   2.110 -1.5047 -0.4904  0.3081
 9602SOL    HW231761   5.274   6.874   2.183 -1.0157 -1.0338  1.5057
 9603SOL     OW31762   7.449   7.993   5.999  0.4517 -0.0003 -0.0625
 9603SOL    HW131763   7.502   8.066   5.969 -0.5555  1.2213  0.9837
 9603SOL    HW231764   7.432   8.012   6.092 -0.1838 -1.3500  0.1282
 9604SOL     OW31765   1.800   7.845   4.960 -0.0031  0.4389 -0.1982
 9604SOL    HW131766   1.724   7.816   5.011  0.5195  0.3021  0.5228
 9604SOL    HW231767   1.803   7.940   4.974  1.8856  0.0754  2.5638
 9605SOL     OW31768   6.853   4.892   6.816 -0.1612 -0.0052 -0.0088
 9605SOL    HW131769   6.880   4.979   6.847  1.1015 -0.5169  0.3650
 9605SOL    HW231770   6.934   4.848   6.792 -0.7767 -1.1236 -0.1255
 9606SOL     OW31771   5.662   4.140   5.057  0.1071  0.8501  0.6160
 9606SOL    HW131772   5.571   4.137   5.088  0.2360  0.2986  0.9555
 9606SOL    HW231773   5.678   4.233   5.040 -0.3772  1.0070  0.9854
 9607SOL     OW31774   6.088   3.467   2.307  0.1101  0.0501  0.4808
 9607SOL    HW131775   6.112   3.543   2.360  1.6615 -0.5831  0.7375
 9607SOL    HW231776   6.106   3.492   2.217 -0.1711  0.2675  0.4845
 9608SOL     OW31777   7.702   7.557   6.918 -0.3436  0.1712 -0.3278
 9608SOL    HW131778   7.703   7.489   6.851  1.5673  1.5528 -1.8280
 9608SOL    HW231779   7.643   7.624   6.882  2.0219  1.7167 -1.6511
 9609SOL     OW31780   0.821   4.270   7.881 -0.2223  0.2555 -0.4927
 9609SOL    HW131781   0.752   4.228   7.829 -1.3871  1.0038  0.3794
 9609SOL    HW231782   0.850   4.201   7.941 -1.7591  0.4710  0.5793
 9610SOL     OW31783   2.124   3.648   3.500 -0.1042 -0.3034 -0.0895
 9610SOL    HW131784   2.100   3.574   3.444  2.3376 -1.3164  0.0804
 9610SOL    HW231785   2.041   3.676   3.539 -1.2571 -2.2772 -0.9499
 9611SOL     OW31786   3.067   2.803   0.477 -0.0584 -0.3459 -0.1568
 9611SOL    HW131787   2.997   2.858   0.512  0.1492 -0.2505  0.1122
 9611SOL    HW231788   3.127   2.864   0.434  0.0567 -0.3834 -0.0519
 9612SOL     OW31789   7.291   3.417   6.834  0.2610  0.4775 -0.2727
 9612SOL    HW131790   7.368   3.422   6.891  0.4981 -0.2605 -0.5097
 9612SOL    HW231791   7.262   3.326   6.841 -0.4406  0.6919 -0.3793
 9613SOL     OW31792   5.367   5.834   4.571  0.4704 -0.2731  0.5611
 9613SOL    HW131793   5.400   5.922   4.586  1.2533  0.6237 -4.6258
 9613SOL    HW231794   5.272   5.843   4.573  0.4975  1.2326 -1.6003
 9614SOL     OW31795   5.844   7.818   0.304  0.0845  0.1085  0.2564
 9614SOL    HW131796   5.928   7.773   0.302  1.1576  2.0374 -1.3624
 9614SOL    HW231797   5.843   7.866   0.387  0.5080 -0.0315  0.3419
 9615SOL     OW31798   5.529   0.700   1.110  0.2272 -0.7812 -0.2212
 9615SOL    HW131799   5.450   0.754   1.104  1.4512  1.0286 -0.6238
 9615SOL    HW231800   5.527   0.646   1.031 -0.2037 -0.1988 -0.6148
 9616SOL     OW31801   6.494   6.802   3.660 -0.1376  0.7497 -0.6926
 9616SOL    HW131802   6.416   6.750   3.678 -0.3665  1.1726 -0.4664
 9616SOL    HW231803   6.523   6.833   3.745 -0.2849  1.3961 -0.8723
 9617SOL     OW31804   1.591   7.453   7.881  0.2541  0.3199  0.0209
 9617SOL    HW131805   1.507   7.419   7.849  0.2573  0.2990  0.0349
 9617SOL    HW231806   1.643   7.467   7.801  0.4355 -0.1897  0.0447
 9618SOL     OW31807   1.950   7.194   0.255  0.0385 -0.6626  0.1987
 9618SOL    HW131808   2.001   7.184   0.175 -0.0029  0.2013  0.0548
 9618SOL    HW231809   1.995   7.264   0.303  1.0777 -2.2821  1.7468
 9619SOL     OW31810   4.593   4.137   1.220 -0.0965 -0.3176  0.2460
 9619SOL    HW131811   4.631   4.222   1.242 -1.6373  0.1831  1.1474
 9619SOL    HW231812   4.668   4.077   1.217  0.9332  0.9333  0.2815
 9620SOL     OW31813   3.337   7.057   5.823  0.2728 -0.3056 -0.1765
 9620SOL    HW131814   3.327   6.982   5.764 -0.2548 -1.7625  1.6694
 9620SOL    HW231815   3.409   7.033   5.881 -0.0089  0.5375  0.5485
 9621SOL     OW31816   2.048   0.137   0.314  0.9043  0.2633  0.0038
 9621SOL    HW131817   1.957   0.167   0.310  0.8917  0.1669 -0.7165
 9621SOL    HW231818   2.054   0.085   0.394  0.0884 -0.4755 -0.3969
 9622SOL     OW31819   7.639   7.055   5.142  0.1218 -0.5264 -0.0309
 9622SOL    HW131820   7.646   7.086   5.233 -0.2571  0.3444 -0.2822
 9622SOL    HW231821   7.675   6.967   5.144 -0.3835 -0.7325  1.0810
 9623SOL     OW31822   4.155   7.311   8.129  0.1081  0.2137  0.8109
 9623SOL    HW131823   4.173   7.236   8.185  0.5851  0.7718  1.4031
 9623SOL    HW231824   4.226   7.373   8.146  0.5384  0.2134 -0.7435
 9624SOL     OW31825   7.022   0.337   6.816 -0.2793  0.3954 -0.1709
 9624SOL    HW131826   7.013   0.404   6.884  0.7523 -1.4785  1.9304
 9624SOL    HW231827   7.116   0.331   6.801 -0.3575 -0.5237 -0.3524
 9625SOL     OW31828   3.498   4.068   5.332 -0.0473 -0.2286 -0.3591
 9625SOL    HW131829   3.524   4.159   5.319 -2.6840  0.6172 -0.0852
 9625SOL    HW231830   3.509   4.028   5.245  0.9598  0.3409 -0.5150
 9626SOL     OW31831   1.259   4.646   6.615  0.2420  0.1492 -0.2464
 9626SOL    HW131832   1.304   4.663   6.532 -0.0823 -1.1256 -0.7152
 9626SOL    HW231833   1.227   4.731   6.643  1.8329  0.8862 -0.5460
 9627SOL     OW31834   2.177   2.990   4.169  0.0944  0.2351  0.5312
 9627SOL    HW131835   2.226   3.028   4.241 -0.6888 -0.0162  1.2078
 9627SOL    HW231836   2.089   3.027   4.176 -0.5989 -1.3793  1.0094
 9628SOL     OW31837   1.607   6.755   2.745  0.1762  0.2620  0.0146
 9628SOL    HW131838   1.653   6.837   2.761  2.5377 -0.9661 -0.1469
 9628SOL    HW231839   1.617   6.740   2.651 -1.5807  0.4885 -0.2553
 9629SOL     OW31840   2.322   2.550   6.284  0.1987 -0.1656 -0.1596
 9629SOL    HW131841   2.270   2.569   6.362 -1.0407  1.7611 -1.3736
 9629SOL    HW231842   2.262   2.568   6.211  1.9467  0.1078 -1.5902
 9630SOL     OW31843   3.375   3.657   3.777  0.0049  0.1766 -0.3676
 9630SOL    HW131844   3.374   3.566   3.809  1.0983  0.4699  0.5676
 9630SOL    HW231845   3.282   3.681   3.771 -0.2988 -0.9432 -0.4850
 9631SOL     OW31846   0.402   4.775   4.737  0.4054 -0.0107 -0.3809
 9631SOL    HW131847   0.348   4.714   4.788  0.4949  1.4185  1.5679
 9631SOL    HW231848   0.491   4.757   4.766  0.7086 -0.5543 -1.6034
 9632SOL     OW31849   5.651   4.647   2.076 -1.0151 -1.1364 -0.1260
 9632SOL    HW131850   5.593   4.712   2.036 -1.3933 -0.7227  1.0308
 9632SOL    HW231851   5.638   4.567   2.025 -1.8351 -0.7600 -0.5128
 9633SOL     OW31852   0.766   1.866   5.570  0.2990 -0.1749 -0.5995
 9633SOL    HW131853   0.683   1.852   5.524  0.0814  0.1398 -0.3005
 9633SOL    HW231854   0.741   1.890   5.659  0.7009  0.4033 -0.6361
 9634SOL     OW31855   0.171   6.193   5.425 -0.4496  0.2525 -0.0146
 9634SOL    HW131856   0.183   6.099   5.417 -0.0734  0.2894  0.0866
 9634SOL    HW231857   0.153   6.208   5.518 -1.5076  0.1774 -0.1976
 9635SOL     OW31858   5.587   7.032   0.168  0.3718 -0.2369  0.1565
 9635SOL    HW131859   5.607   7.126   0.162 -0.9712  0.2598  2.3933
 9635SOL    HW231860   5.492   7.027   0.154 -0.2709 -0.6904  3.7719
 9636SOL     OW31861   5.241   2.996   6.706 -0.4630  0.4458 -0.3521
 9636SOL    HW131862   5.270   2.905   6.707  0.1071  0.6246  0.6018
 9636SOL    HW231863   5.229   3.019   6.798 -1.0695  1.1919 -0.6003
 9637SOL     OW31864   2.326   0.438   1.770  0.3502  0.3305  0.3547
 9637SOL    HW131865   2.408   0.488   1.772  1.1112 -0.5573 -2.8176
 9637SOL    HW231866   2.260   0.503   1.745  0.8349  0.3808 -0.9058
 9638SOL     OW31867   2.963   8.113   4.205  0.3060 -0.1528 -0.4026
 9638SOL    HW131868   2.912   8.095   4.126  0.1597 -0.1357 -0.3118
 9638SOL    HW231869   3.018   8.188   4.182  0.2094 -0.1012 -0.4633
 9639SOL     OW31870   2.424   5.467   6.106 -0.4565 -0.5750 -0.0101
 9639SOL    HW131871   2.507   5.467   6.153 -1.6563  0.1078  2.2088
 9639SOL    HW231872   2.445   5.506   6.021  0.9434  2.4494  1.5962
 9640SOL     OW31873   4.467   2.618   6.081 -0.3887 -0.0206  0.0094
 9640SOL    HW131874   4.506   2.691   6.033  0.5294  0.3418  1.2605
 9640SOL    HW231875   4.540   2.576   6.125 -1.1253 -0.7086  0.6171
 9641SOL     OW31876   6.649   2.911   0.671 -0.0867  0.4233 -0.1215
 9641SOL    HW131877   6.732   2.873   0.701 -0.3751 -0.2388 -0.1400
 9641SOL    HW231878   6.672   2.999   0.641  0.8183 -0.1720 -1.2517
 9642SOL     OW31879   4.364   2.656   4.000  0.2782  0.0219  0.7568
 9642SOL    HW131880   4.342   2.741   3.961 -0.5993 -1.5075 -2.4197
 9642SOL    HW231881   4.452   2.637   3.968  0.5680 -0.2049  1.6528
 9643SOL     OW31882   2.187   5.354   6.228 -0.2074  0.5921 -0.4674
 9643SOL    HW131883   2.233   5.396   6.155 -1.7012 -0.4857 -2.1101
 9643SOL    HW231884   2.231   5.387   6.306  2.0442  1.1328 -1.8557
 9644SOL     OW31885   1.276   4.097   5.816  0.2930 -0.2378 -0.0149
 9644SOL    HW131886   1.276   4.190   5.793 -1.5199  0.1576  1.3498
 9644SOL    HW231887   1.267   4.096   5.911  0.9460 -1.8221  0.0596
 9645SOL     OW31888   3.882   6.482   1.195  0.0465  0.1129 -0.0826
 9645SOL    HW131889   3.823   6.554   1.176  0.1684  0.3264  0.3257
 9645SOL    HW231890   3.845   6.407   1.148 -0.7783  0.1405  0.5072
 9646SOL     OW31891   6.202   1.587   0.817  0.0908  0.5142  0.4062
 9646SOL    HW131892   6.220   1.512   0.760 -0.6844 -0.2595  1.1460
 9646SOL    HW231893   6.261   1.655   0.787  0.4980 -0.2541 -0.5770
 9647SOL     OW31894   1.562   4.083   7.841  0.0953  0.4281 -0.1413
 9647SOL    HW131895   1.485   4.070   7.785  1.0623  0.1432 -1.4580
 9647SOL    HW231896   1.568   4.178   7.851 -1.5189  0.3931  1.6036
 9648SOL     OW31897   1.722   5.685   4.518  0.0823 -0.0113  0.4397
 9648SOL    HW131898   1.718   5.663   4.611  0.5926  2.5309  1.1351
 9648SOL    HW231899   1.741   5.601   4.475 -1.1394 -1.4371  2.4838
 9649SOL     OW31900   2.598   2.907   7.038  0.1301 -0.3179 -0.0948
 9649SOL    HW131901   2.562   2.843   6.977 -0.8772  0.4625 -0.3435
 9649SOL    HW231902   2.572   2.992   7.002  2.0826  0.2863 -0.1873
 9650SOL     OW31903   4.407   1.773   1.998  0.3082  0.2461  0.3465
 9650SOL    HW131904   4.393   1.679   2.007 -1.0563  0.3304 -0.5714
 9650SOL    HW231905   4.496   1.788   2.030  0.0715 -1.1553  1.7639
 9651SOL     OW31906   6.735   7.447   3.444  0.1633  0.0078 -1.1464
 9651SOL    HW131907   6.805   7.406   3.393  0.2711  0.7561 -1.6194
 9651SOL    HW231908   6.656   7.434   3.392  0.3374  1.1169 -1.7339
 9652SOL     OW31909   4.892   4.882   8.068 -0.0865  0.1743  0.3146
 9652SOL    HW131910   4.938   4.950   8.118 -0.6940  1.0170 -0.2448
 9652SOL    HW231911   4.799   4.905   8.077 -0.2438 -0.0272 -0.6785
 9653SOL     OW31912   3.573   7.917   0.449  0.1835  0.0620  0.4019
 9653SOL    HW131913   3.667   7.929   0.452  0.0426  1.7738 -0.4477
 9653SOL    HW231914   3.540   7.999   0.411 -1.4479 -1.3547 -1.4502
 9654SOL     OW31915   7.960   2.395   0.056  0.2949  0.9101 -0.0453
 9654SOL    HW131916   7.873   2.362   0.032  0.8329 -0.8356  0.2365
 9654SOL    HW231917   7.944   2.485   0.085 -1.4649  0.5335  0.3074
 9655SOL     OW31918   1.922   5.241   3.397 -0.5250 -0.3944  0.0727
 9655SOL    HW131919   1.926   5.175   3.466  0.8231 -1.8048 -1.2607
 9655SOL    HW231920   2.001   5.293   3.410  1.2068 -2.3195 -1.8475
 9656SOL     OW31921   6.734   2.330   7.568  0.6046  0.6051 -0.0523
 9656SOL    HW131922   6.757   2.274   7.494  0.4296 -1.3661  1.3207
 9656SOL    HW231923   6.798   2.309   7.635  0.6438  2.2220  0.4581
 9657SOL     OW31924   4.332   4.429   7.500  0.4474 -0.0609 -0.1909
 9657SOL    HW131925   4.268   4.499   7.484  1.2357  0.2998 -2.0948
 9657SOL    HW231926   4.297   4.381   7.575 -1.6198  0.6101 -0.6533
 9658SOL     OW31927   7.768   3.582   7.848  0.4775 -0.5398  0.0222
 9658SOL    HW131928   7.743   3.653   7.907 -0.3666 -0.8361  0.0268
 9658SOL    HW231929   7.787   3.508   7.906 -0.6111 -0.9099 -0.0790
 9659SOL     OW31930   3.613   2.701   0.188  0.3421 -0.3582  0.0801
 9659SOL    HW131931   3.706   2.717   0.173  0.3590 -0.2340  0.3135
 9659SOL    HW231932   3.606   2.679   0.281  0.1088 -0.1504  0.1132
 9660SOL     OW31933   6.095   7.517   5.472 -0.3017 -0.0377 -0.0149
 9660SOL    HW131934   6.124   7.603   5.441 -0.6613  0.7562  1.7253
 9660SOL    HW231935   6.000   7.517   5.458 -0.3183 -0.1013  0.1021
 9661SOL     OW31936   3.429   5.794   6.773 -0.6411 -0.0029  0.2362
 9661SOL    HW131937   3.523   5.798   6.762 -0.7561  1.8682 -0.3585
 9661SOL    HW231938   3.393   5.829   6.692 -1.8633 -0.7398  0.4286
 9662SOL     OW31939   7.432   6.781   4.986 -0.2055 -0.1393 -0.3872
 9662SOL    HW131940   7.389   6.696   4.992  0.7461 -0.6636 -0.8992
 9662SOL    HW231941   7.407   6.826   5.067 -0.3128 -1.0866  0.1198
 9663SOL     OW31942   1.301   3.205   6.072 -0.0812  0.1948  0.1103
 9663SOL    HW131943   1.240   3.228   6.003  1.2783  2.1342 -0.5377
 9663SOL    HW231944   1.356   3.136   6.034  0.5379  1.1171 -0.7134
 9664SOL     OW31945   2.122   5.071   6.200  0.1228 -0.2150  0.0667
 9664SOL    HW131946   2.154   5.160   6.211 -0.3198 -0.0101 -0.2665
 9664SOL    HW231947   2.038   5.069   6.246  0.1886 -0.4952  0.1787
 9665SOL     OW31948   7.940   2.192   7.894  0.2799  0.4909  0.0494
 9665SOL    HW131949   7.879   2.127   7.859  2.5058 -1.3120 -0.6848
 9665SOL    HW231950   7.921   2.194   7.988 -0.0017 -1.0962  0.0562
 9666SOL     OW31951   3.530   3.862   2.648  0.3040  0.1879  0.1001
 9666SOL    HW131952   3.555   3.788   2.704 -0.6516 -0.8779 -0.8128
 9666SOL    HW231953   3.520   3.823   2.561 -0.4262  1.3513 -0.3548
 9667SOL     OW31954   0.309   2.993   0.091  0.0061 -0.1603 -0.3769
 9667SOL    HW131955   0.244   2.933   0.053 -1.2057  0.6214  0.3891
 9667SOL    HW231956   0.330   2.954   0.175  0.4005 -0.3198 -0.5492
 9668SOL     OW31957   3.007   7.480   4.939 -0.1234 -0.0532  0.3424
 9668SOL    HW131958   3.028   7.452   5.028 -1.5431 -0.9276  0.4341
 9668SOL    HW231959   3.051   7.416   4.882 -0.7476 -0.6123  0.4757
 9669SOL     OW31960   6.711   4.062   4.815 -0.1100  0.2092 -0.0629
 9669SOL    HW131961   6.634   4.007   4.827  0.3365 -0.6607 -1.0129
 9669SOL    HW231962   6.778   4.022   4.870  0.0565  0.1567 -0.3066
 9670SOL     OW31963   6.343   6.869   6.270 -0.1832 -0.2169  0.0345
 9670SOL    HW131964   6.392   6.829   6.342 -2.0527 -0.3498  1.3004
 9670SOL    HW231965   6.295   6.796   6.230 -1.2658  0.2651  0.4239
 9671SOL     OW31966   2.476   1.532   0.969  0.1191  0.1624 -0.4248
 9671SOL    HW131967   2.543   1.467   0.946  0.8397  0.4986  0.6387
 9671SOL    HW231968   2.400   1.480   0.996  0.5968 -0.2512  0.1585
 9672SOL     OW31969   1.725   7.495   6.807  0.5832  0.5497  0.2084
 9672SOL    HW131970   1.781   7.473   6.733  0.2574 -0.5855  0.2780
 9672SOL    HW231971   1.644   7.446   6.791  1.1193 -1.1224  2.1363
 9673SOL     OW31972   4.272   4.010   2.659  0.3225 -0.0207 -0.6539
 9673SOL    HW131973   4.299   3.928   2.701  2.1216  0.2760 -1.1732
 9673SOL    HW231974   4.263   3.988   2.566  2.4772  0.7055 -1.0802
 9674SOL     OW31975   7.501   3.899   5.850  0.3251  0.5165 -0.1668
 9674SOL    HW131976   7.410   3.874   5.860  0.5713  0.1563  1.4375
 9674SOL    HW231977   7.543   3.824   5.807  0.5905 -0.9900  2.5089
 9675SOL     OW31978   1.936   7.097   2.127  0.0083 -0.4101 -0.0532
 9675SOL    HW131979   2.014   7.063   2.084 -0.3550  0.1590 -1.2041
 9675SOL    HW231980   1.883   7.133   2.056 -0.6633  0.4761  0.8667
 9676SOL     OW31981   2.652   3.327   5.366  0.1965  0.2511  0.0755
 9676SOL    HW131982   2.677   3.394   5.430  0.5348  1.0012 -0.8281
 9676SOL    HW231983   2.711   3.341   5.292 -0.3711 -0.4309 -0.5187
 9677SOL     OW31984   1.808   3.636   5.552 -0.3887  0.0009 -0.0458
 9677SOL    HW131985   1.874   3.705   5.552  0.2768 -0.6177  0.2250
 9677SOL    HW231986   1.822   3.590   5.635 -1.1553 -0.1480  0.0081
 9678SOL     OW31987   1.358   0.316   2.024  0.7584  0.1456  0.1322
 9678SOL    HW131988   1.451   0.296   2.036  1.1769  2.0454  0.2762
 9678SOL    HW231989   1.337   0.279   1.938  1.7988  0.1829 -0.1555
 9679SOL     OW31990   3.324   8.110   3.002  0.2696 -0.0812 -0.3173
 9679SOL    HW131991   3.273   8.040   3.043 -1.3325  0.6222 -1.0227
 9679SOL    HW231992   3.406   8.068   2.975  0.1626 -1.2074  1.0064
 9680SOL     OW31993   6.769   0.748   5.486 -0.1380 -0.0504  0.6530
 9680SOL    HW131994   6.777   0.843   5.482 -2.5635  0.3910  3.2804
 9680SOL    HW231995   6.723   0.725   5.405  2.0839  0.7046 -0.9011
 9681SOL     OW31996   7.492   7.313   5.416  0.2649  0.1012 -0.1568
 9681SOL    HW131997   7.473   7.396   5.372  1.6087  0.4297 -0.1686
 9681SOL    HW231998   7.465   7.327   5.507  1.2339  0.8559  0.0330
 9682SOL     OW31999   7.286   6.892   4.507 -0.1902 -0.0763  0.0197
 9682SOL    HW132000   7.365   6.944   4.518  0.0814 -0.5662  0.4248
 9682SOL    HW232001   7.230   6.945   4.451  1.2111 -0.5778 -1.9652
 9683SOL     OW32002   6.355   0.955   0.606  0.4103 -0.5094  0.0358
 9683SOL    HW132003   6.266   0.957   0.573  0.8636  2.0225 -1.2956
 9683SOL    HW232004   6.359   1.026   0.669  1.1621 -1.5029  1.1597
 9684SOL     OW32005   1.939   2.086   2.379  0.0250  0.0453  0.5299
 9684SOL    HW132006   2.007   2.089   2.447 -0.1865 -0.0130  0.7464
 9684SOL    HW232007   1.965   2.013   2.323  0.1623  0.0469  0.5913
 9685SOL     OW32008   3.559   6.889   4.695  0.1281 -0.0129 -0.1830
 9685SOL    HW132009   3.526   6.930   4.775 -1.4153 -1.0007 -0.2811
 9685SOL    HW232010   3.651   6.868   4.715 -0.2048 -0.1917  1.3057
 9686SOL     OW32011   6.482   7.734   1.099  0.1339  0.5571 -0.0415
 9686SOL    HW132012   6.462   7.825   1.079  2.5393  0.6669 -2.6678
 9686SOL    HW232013   6.442   7.685   1.027 -0.0555 -0.3425  0.6582
 9687SOL     OW32014   5.790   0.389   1.817  0.3960  0.3184 -0.0198
 9687SOL    HW132015   5.704   0.428   1.806 -1.3765 -2.8514  1.0809
 9687SOL    HW232016   5.817   0.414   1.906  0.0554  0.4095  0.0586
 9688SOL     OW32017   3.130   5.703   1.664 -0.5420  0.3166  0.0023
 9688SOL    HW132018   3.093   5.790   1.651  0.1354  0.4603 -1.1006
 9688SOL    HW232019   3.224   5.718   1.671 -0.3632 -0.3816 -0.8068
 9689SOL     OW32020   7.148   1.621   7.190  0.6785 -0.5564  0.4943
 9689SOL    HW132021   7.069   1.581   7.153  0.2766  0.7074 -0.0783
 9689SOL    HW232022   7.185   1.672   7.118  1.8859 -0.9154  0.8367
 9690SOL     OW32023   5.795   0.013   3.030  0.5370 -0.1974  0.1059
 9690SOL    HW132024   5.850  -0.019   2.958 -0.8054 -1.0245 -0.5999
 9690SOL    HW232025   5.759  -0.067   3.069  1.3456  0.2349  1.8122
 9691SOL     OW32026   5.665   4.798   0.999 -0.3257 -0.6134 -0.5609
 9691SOL    HW132027   5.758   4.797   0.979 -0.4253 -0.6033 -1.0464
 9691SOL    HW232028   5.658   4.846   1.081  0.1056 -0.7118 -0.4626
 9692SOL     OW32029   4.888   2.626   1.440  0.4362 -0.2128  0.8386
 9692SOL    HW132030   4.937   2.607   1.520 -0.9963 -0.9391  1.5834
 9692SOL    HW232031   4.856   2.540   1.411  0.5621  0.1015 -0.2722
 9693SOL     OW32032   2.413   5.589   5.598  0.0870  0.1764 -0.3919
 9693SOL    HW132033   2.398   5.507   5.550 -0.7974  0.3982 -0.5155
 9693SOL    HW232034   2.462   5.643   5.537  0.6987 -0.2686 -0.3013
 9694SOL     OW32035   6.623   5.606   3.637  0.1307  0.2816  0.2765
 9694SOL    HW132036   6.580   5.542   3.694  2.0204 -1.2904  0.0210
 9694SOL    HW232037   6.658   5.671   3.697 -2.3531  1.5418  0.5024
 9695SOL     OW32038   1.940   0.566   1.916 -0.1761  0.4540 -0.2564
 9695SOL    HW132039   1.848   0.558   1.891 -0.9912  1.6383  2.0560
 9695SOL    HW232040   1.949   0.658   1.941  1.4307  0.1528  0.3379
 9696SOL     OW32041   3.320   4.597   3.595 -0.3727 -0.0314 -0.2886
 9696SOL    HW132042   3.248   4.614   3.534 -1.1589 -0.4064  0.5140
 9696SOL    HW232043   3.281   4.607   3.682  0.4824 -0.5248  0.1692
 9697SOL     OW32044   2.923   1.722   4.182  0.3908  0.2474 -0.0932
 9697SOL    HW132045   2.842   1.728   4.133  1.0076 -0.5233 -1.2526
 9697SOL    HW232046   2.896   1.720   4.274 -0.7199  2.7924 -0.2972
 9698SOL     OW32047   6.568   0.790   4.725 -0.0402 -0.0029  0.6132
 9698SOL    HW132048   6.486   0.803   4.773 -0.9675  1.1971 -1.1701
 9698SOL    HW232049   6.633   0.841   4.774 -0.7918  0.6198  0.9843
 9699SOL     OW32050   0.126   6.638   3.727 -0.4811  0.4055 -0.5176
 9699SOL    HW132051   0.042   6.630   3.772  0.1445 -0.3413  0.5638
 9699SOL    HW232052   0.182   6.687   3.787  0.3356 -0.5017 -0.5110
 9700SOL     OW32053   2.510   1.178   0.744 -0.0268  0.4061  0.3778
 9700SOL    HW132054   2.508   1.122   0.821  0.1082 -0.5055 -0.2602
 9700SOL    HW232055   2.583   1.238   0.759  0.4913 -0.2787  0.6167
 9701SOL     OW32056   7.520   3.155   3.903 -0.3882 -0.1688  0.0255
 9701SOL    HW132057   7.480   3.242   3.912 -0.9171 -0.3984 -0.0504
 9701SOL    HW232058   7.446   3.094   3.909 -0.0093 -0.6190  0.1761
 9702SOL     OW32059   6.251   1.995   2.428  0.3496 -0.0189 -0.0298
 9702SOL    HW132060   6.334   2.009   2.473 -0.2854 -0.0274  1.1984
 9702SOL    HW232061   6.265   1.916   2.376  0.8185 -0.6055  0.9412
 9703SOL     OW32062   7.591   3.183   1.108 -0.0712 -0.0939 -0.2047
 9703SOL    HW132063   7.666   3.123   1.107  0.2686  0.2969  0.9168
 9703SOL    HW232064   7.558   3.180   1.018 -0.0608 -1.9497 -0.1894
 9704SOL     OW32065   0.639   2.904   7.033 -0.4192  0.3344  0.0560
 9704SOL    HW132066   0.688   2.897   7.115 -1.2174 -0.5003  0.4884
 9704SOL    HW232067   0.595   2.988   7.038  0.9983  1.1262 -0.3676
 9705SOL     OW32068   4.284   6.041   6.586  0.2428  0.4275 -0.5609
 9705SOL    HW132069   4.353   5.995   6.537  0.0087 -1.7165  0.9703
 9705SOL    HW232070   4.209   5.982   6.583 -0.5067  1.2971  0.4413
 9706SOL     OW32071   4.205   6.582   4.572  0.1495  0.4395  0.0451
 9706SOL    HW132072   4.182   6.495   4.539  1.2471  0.1258  0.0577
 9706SOL    HW232073   4.128   6.611   4.620 -1.0553  0.4131 -1.7825
 9707SOL     OW32074   2.619   6.119   1.572 -0.3793  0.5654  0.3206
 9707SOL    HW132075   2.607   6.186   1.639  0.2064  1.3120 -0.2988
 9707SOL    HW232076   2.594   6.037   1.615 -0.9760  1.1579  1.1311
 9708SOL     OW32077   2.837   5.631   4.612  0.1641  0.1312  0.2414
 9708SOL    HW132078   2.929   5.645   4.633 -0.2756  1.3809  1.4666
 9708SOL    HW232079   2.789   5.687   4.673 -1.3531  1.1696 -1.7757
 9709SOL     OW32080   5.816   1.992   5.523  0.0065 -0.0734 -0.4725
 9709SOL    HW132081   5.792   2.058   5.587 -0.5920  1.3506 -2.0967
 9709SOL    HW232082   5.874   1.932   5.570 -0.5680  0.7999  1.4157
 9710SOL     OW32083   4.867   7.816   5.316 -0.2281  0.7149  0.0185
 9710SOL    HW132084   4.848   7.904   5.282 -0.2465  1.8626  2.7731
 9710SOL    HW232085   4.953   7.824   5.356 -0.6139 -0.2687  1.0745
 9711SOL     OW32086   3.600   1.282   2.944  0.2841  0.0089  0.4748
 9711SOL    HW132087   3.616   1.318   2.857 -0.0990 -1.0221 -0.0421
 9711SOL    HW232088   3.603   1.187   2.932  0.0495 -0.1542  1.5503
 9712SOL     OW32089   2.053   7.400   6.921 -0.1048  0.3483 -0.2460
 9712SOL    HW132090   2.031   7.353   7.002  0.8834 -0.5610 -0.4785
 9712SOL    HW232091   2.024   7.490   6.937 -2.2581 -0.3675  0.1169
 9713SOL     OW32092   0.889   3.672   1.271 -0.1335  0.3257 -0.1550
 9713SOL    HW132093   0.961   3.733   1.252 -0.2630  0.4888 -0.1189
 9713SOL    HW232094   0.874   3.681   1.365  1.3188 -1.3575  0.3075
 9714SOL     OW32095   1.021   3.188   1.364 -0.7657 -0.2417 -0.8073
 9714SOL    HW132096   1.070   3.234   1.296 -1.1995  0.0999 -0.8922
 9714SOL    HW232097   1.073   3.201   1.443 -1.0927  0.7631 -0.7405
 9715SOL     OW32098   7.220   2.410   3.997  0.0273  1.3851  0.1782
 9715SOL    HW132099   7.138   2.364   4.013 -0.0678  0.3899 -2.6404
 9715SOL    HW232100   7.288   2.347   4.020  0.0429  1.8496  1.5224
 9716SOL     OW32101   0.214   6.364   0.979 -0.1414  0.4142 -0.5098
 9716SOL    HW132102   0.229   6.271   0.959  1.5127  0.2284  1.2258
 9716SOL    HW232103   0.220   6.408   0.895 -0.5296 -1.0092 -1.3142
 9717SOL     OW32104   5.717   6.125   2.602  0.4487 -0.2975 -0.1413
 9717SOL    HW132105   5.774   6.190   2.641 -0.4364  0.2627  0.2410
 9717SOL    HW232106   5.634   6.170   2.589 -0.4461 -1.5627  0.9004
 9718SOL     OW32107   1.925   7.436   2.553  0.0719 -0.3001  0.3776
 9718SOL    HW132108   1.967   7.359   2.592  1.1898 -0.1433 -0.4565
 9718SOL    HW232109   1.869   7.401   2.485 -0.8231 -0.4827  1.1918
 9719SOL     OW32110   2.195   0.794   3.297  0.2806  0.0311  0.4206
 9719SOL    HW132111   2.204   0.719   3.238 -0.7648 -1.7324  2.3677
 9719SOL    HW232112   2.140   0.762   3.368  0.3537  2.4748  1.6834
 9720SOL     OW32113   5.790   7.024   3.494  0.5046 -0.3299 -0.1814
 9720SOL    HW132114   5.760   7.093   3.435  3.1657  1.0612 -0.0614
 9720SOL    HW232115   5.812   6.951   3.437 -2.4221 -1.2535 -0.3038
 9721SOL     OW32116   0.716   1.846   5.153  0.0037  0.0540 -0.4135
 9721SOL    HW132117   0.791   1.787   5.146  1.5904  1.8929  0.2527
 9721SOL    HW232118   0.702   1.854   5.248 -0.0807  0.8651 -0.4920
 9722SOL     OW32119   3.779   7.013   1.651  0.0160 -0.3001 -0.6141
 9722SOL    HW132120   3.694   7.023   1.696  0.1662  0.3154 -0.4581
 9722SOL    HW232121   3.823   6.944   1.699  0.1585  0.3283  0.1866
 9723SOL     OW32122   3.147   7.243   1.815 -0.0768  0.0536  0.1200
 9723SOL    HW132123   3.085   7.265   1.884 -0.8547 -0.3988 -0.4174
 9723SOL    HW232124   3.211   7.186   1.856 -2.0920 -2.5551 -0.1180
 9724SOL     OW32125   6.465   5.909   5.718 -0.0637 -0.4461 -0.0161
 9724SOL    HW132126   6.537   5.870   5.668 -0.3677 -0.3367 -0.5496
 9724SOL    HW232127   6.407   5.947   5.651 -0.8499 -0.9283  0.3695
 9725SOL     OW32128   1.495   5.561   0.178 -0.1272  0.2651  0.5135
 9725SOL    HW132129   1.474   5.621   0.106 -0.8837 -1.0895 -0.4429
 9725SOL    HW232130   1.411   5.543   0.220 -0.0253 -0.6130  0.3728
 9726SOL     OW32131   6.437   1.524   4.183 -0.2225  0.4669  0.5293
 9726SOL    HW132132   6.525   1.559   4.192 -0.0286  0.0782  0.2042
 9726SOL    HW232133   6.400   1.527   4.271 -0.0048  0.9453  0.6056
 9727SOL     OW32134   0.519   7.956   7.311 -0.2153 -0.1331 -0.2244
 9727SOL    HW132135   0.515   7.970   7.216 -1.4932  1.4655  0.0198
 9727SOL    HW232136   0.496   7.864   7.323 -0.4851 -0.2422 -1.4189
 9728SOL     OW32137   6.112   3.365   2.937  0.5834 -0.2408  0.0610
 9728SOL    HW132138   6.031   3.318   2.956  0.0923  0.3694 -0.4291
 9728SOL    HW232139   6.134   3.410   3.019  0.3496 -0.3119  0.1629
 9729SOL     OW32140   4.583   3.760   6.568 -0.0118 -0.9630 -0.3165
 9729SOL    HW132141   4.560   3.852   6.553  0.1643 -0.6370  1.2799
 9729SOL    HW232142   4.678   3.758   6.566 -0.0257 -1.2357 -0.9663
 9730SOL     OW32143   0.950   5.024   3.424 -0.3266 -0.1503  0.6596
 9730SOL    HW132144   0.856   5.029   3.404 -0.2160 -0.1782  0.1140
 9730SOL    HW232145   0.953   4.984   3.511 -0.7532 -2.8385 -0.4399
 9731SOL     OW32146   6.145   4.928   5.482  0.1650  0.1464 -0.6841
 9731SOL    HW132147   6.098   5.011   5.489 -0.5262 -0.2353 -0.7392
 9731SOL    HW232148   6.104   4.882   5.408  0.1597 -0.4797 -0.3038
 9732SOL     OW32149   3.135   0.480   7.055  0.1674  0.5391 -0.2587
 9732SOL    HW132150   3.044   0.510   7.043 -0.3482 -0.2899  1.3060
 9732SOL    HW232151   3.160   0.445   6.970 -0.7449  1.3863 -0.8976
 9733SOL     OW32152   7.055   1.365   2.990  0.2935  0.5587  0.3505
 9733SOL    HW132153   6.962   1.345   3.004  0.7343 -1.7406  0.2820
 9733SOL    HW232154   7.078   1.317   2.911  1.3395  1.9389 -0.2244
 9734SOL     OW32155   2.661   4.536   7.015  0.4635 -0.8651 -0.1640
 9734SOL    HW132156   2.680   4.442   7.016 -0.0049 -0.9619  0.4295
 9734SOL    HW232157   2.745   4.578   6.993  0.5873 -1.4340 -0.8109
 9735SOL     OW32158   4.591   0.003   5.279  0.7723  0.0628 -0.1422
 9735SOL    HW132159   4.497   0.005   5.262  1.0341  0.5518 -1.6558
 9735SOL    HW232160   4.602   0.055   5.359  0.0017  2.2748 -1.3807
 9736SOL     OW32161   4.360   7.702   6.544  0.4096  0.2917  0.2093
 9736SOL    HW132162   4.273   7.674   6.570  0.0959  1.0592  0.0442
 9736SOL    HW232163   4.416   7.682   6.618  0.4767 -1.9407 -0.3923
 9737SOL     OW32164   5.496   4.845   4.027  0.3094  0.1895  0.2760
 9737SOL    HW132165   5.498   4.789   3.949  1.1051  0.6092 -0.0185
 9737SOL    HW232166   5.488   4.934   3.991  1.2100  0.4293  0.6487
 9738SOL     OW32167   6.986   7.901   7.953 -0.2067  0.1008 -0.3225
 9738SOL    HW132168   6.949   7.871   7.870 -2.9110 -2.4408  1.5972
 9738SOL    HW232169   6.926   7.969   7.983 -2.0912 -2.2436  1.6033
 9739SOL     OW32170   3.804   6.945   5.177  0.6530  0.4597  0.1749
 9739SOL    HW132171   3.794   7.006   5.250  0.5242  1.2932 -0.5215
 9739SOL    HW232172   3.894   6.959   5.146  0.9738 -0.4491  0.6499
 9740SOL     OW32173   0.958   5.612   6.143 -0.2565 -0.2975  0.6592
 9740SOL    HW132174   1.047   5.603   6.108 -0.1527  0.4615  0.7080
 9740SOL    HW232175   0.965   5.680   6.209 -0.8457 -0.3462  0.7787
 9741SOL     OW32176   5.583   1.479   1.281  0.3647  0.4210  0.0448
 9741SOL    HW132177   5.513   1.419   1.305  1.6041 -0.2570  2.2581
 9741SOL    HW232178   5.548   1.566   1.301 -0.0768  0.1384  0.5168
 9742SOL     OW32179   1.672   3.957   1.532 -0.0920 -0.1310  0.2488
 9742SOL    HW132180   1.593   3.902   1.540 -0.2506 -0.4190 -2.4127
 9742SOL    HW232181   1.677   4.004   1.616 -3.9946  1.0827 -0.0015
 9743SOL     OW32182   7.101   7.837   2.435  0.2134  0.5759 -0.0105
 9743SOL    HW132183   7.095   7.932   2.430 -2.2005  0.5350  0.9829
 9743SOL    HW232184   7.195   7.819   2.446  0.4751  2.9824  2.5193
 9744SOL     OW32185   2.341   8.070   4.564 -0.1378 -0.3686 -0.2121
 9744SOL    HW132186   2.414   8.062   4.503  0.3963  1.5043  0.1170
 9744SOL    HW232187   2.319   8.163   4.564 -1.2804 -0.5919  1.1292
 9745SOL     OW32188   6.562   4.736   1.485  0.1746  0.2100 -0.4073
 9745SOL    HW132189   6.482   4.736   1.537 -0.0127  1.7991 -0.6214
 9745SOL    HW232190   6.619   4.672   1.526 -1.4302 -1.4426 -0.6269
 9746SOL     OW32191   4.377   7.636   5.198  0.2686 -0.2640  0.4292
 9746SOL    HW132192   4.343   7.601   5.280  0.1171  1.6368  1.2262
 9746SOL    HW232193   4.468   7.659   5.217  0.6282 -0.9851 -0.3314
 9747SOL     OW32194   1.255   2.943   5.024 -0.1768  0.3542 -0.1505
 9747SOL    HW132195   1.205   2.972   4.948  0.9483  1.0456 -0.6442
 9747SOL    HW232196   1.308   2.870   4.992  0.1286  0.4990  0.0174
 9748SOL     OW32197   1.025   8.124   8.087 -0.1207  0.3354  0.8834
 9748SOL    HW132198   1.003   8.139   8.179 -0.7888 -0.1527  0.8120
 9748SOL    HW232199   1.094   8.187   8.068 -1.1063  1.5609  1.2593
 9749SOL     OW32200   3.018   4.939   5.898  0.0978  0.3413  0.1335
 9749SOL    HW132201   2.984   4.944   5.987 -1.8894 -0.4827 -0.5141
 9749SOL    HW232202   3.021   4.845   5.879  1.1735  0.4746 -0.4505
 9750SOL     OW32203   8.044   7.996   5.142  0.2959 -0.6416  0.0453
 9750SOL    HW132204   8.013   8.079   5.178 -1.2993 -0.4077 -1.6968
 9750SOL    HW232205   8.016   7.998   5.050 -0.9200 -3.6557  0.2368
 9751SOL     OW32206   5.412   1.777   0.833  0.1217 -0.6064  0.5253
 9751SOL    HW132207   5.465   1.737   0.902  1.7616  3.0459  1.6415
 9751SOL    HW232208   5.476   1.805   0.767 -0.5551  1.8645  0.8085
 9752SOL     OW32209   6.560   7.264   1.649  0.4280 -0.0464 -0.0252
 9752SOL    HW132210   6.591   7.180   1.684 -0.9588 -0.3876  0.4486
 9752SOL    HW232211   6.520   7.242   1.565 -0.0838  0.0902  0.1739
 9753SOL     OW32212   1.561   6.868   5.208  0.1968 -0.1509 -0.3664
 9753SOL    HW132213   1.614   6.932   5.255  0.9809 -0.2400 -1.1074
 9753SOL    HW232214   1.586   6.784   5.247  1.5665 -0.3343 -1.5349
 9754SOL     OW32215   1.317   7.451   1.249 -1.0598  0.0263 -0.5418
 9754SOL    HW132216   1.286   7.385   1.188 -1.3938  0.8159 -1.2450
 9754SOL    HW232217   1.241   7.468   1.306 -0.1565 -2.1869  1.4754
 9755SOL     OW32218   2.843   0.401   2.469  0.4153 -0.0821 -0.6426
 9755SOL    HW132219   2.809   0.416   2.381 -0.0755 -0.4056 -0.5098
 9755SOL    HW232220   2.922   0.454   2.473 -1.0370  2.2090 -0.3385
 9756SOL     OW32221   4.447   5.353   3.068  0.0021  0.0714  0.1949
 9756SOL    HW132222   4.377   5.344   3.133 -0.5451  1.7284 -0.1211
 9756SOL    HW232223   4.527   5.335   3.117 -0.6002 -1.6385  0.6181
 9757SOL     OW32224   1.034   2.585   6.744  0.4364  0.1688 -0.4707
 9757SOL    HW132225   1.042   2.544   6.830 -1.9686 -0.3655 -0.4231
 9757SOL    HW232226   0.961   2.646   6.754 -0.6181 -0.6923 -2.3731
 9758SOL     OW32227   1.929   4.214   5.741  0.3945  0.7796  0.1237
 9758SOL    HW132228   1.990   4.243   5.809 -0.7606  1.0116  1.0898
 9758SOL    HW232229   1.940   4.119   5.738  1.8156  0.9431 -0.7286
 9759SOL     OW32230   1.961   5.728   3.020 -0.6855  0.0965 -0.0055
 9759SOL    HW132231   2.016   5.691   3.089 -0.0437  0.1967 -0.4516
 9759SOL    HW232232   1.930   5.811   3.056  1.5782  1.3272 -0.6833
 9760SOL     OW32233   4.230   5.618   1.740  0.3791  0.2368 -0.5659
 9760SOL    HW132234   4.172   5.679   1.784  2.0254  2.0177 -0.7226
 9760SOL    HW232235   4.239   5.544   1.800  0.5358  1.4369  0.9349
 9761SOL     OW32236   4.933   4.777   3.144  0.1813 -0.0501  0.0676
 9761SOL    HW132237   4.924   4.695   3.096 -0.5635  1.2436 -2.1756
 9761SOL    HW232238   5.002   4.760   3.208 -0.1034 -2.4554 -0.1682
 9762SOL     OW32239   2.448   0.594   2.602 -0.2295 -0.2662  0.0622
 9762SOL    HW132240   2.533   0.552   2.590 -0.5392 -0.8139 -0.2274
 9762SOL    HW232241   2.413   0.554   2.682 -0.4629 -0.4619 -0.1361
 9763SOL     OW32242   1.292   5.127   1.231 -0.7001  0.1091  0.4493
 9763SOL    HW132243   1.375   5.080   1.238 -1.0318 -0.7423 -0.8108
 9763SOL    HW232244   1.312   5.204   1.179 -0.8951 -0.7286 -0.9290
 9764SOL     OW32245   2.240   6.860   7.929 -0.2638 -0.2971  0.4490
 9764SOL    HW132246   2.253   6.780   7.981 -0.5572  0.4770  1.7631
 9764SOL    HW232247   2.194   6.830   7.850 -0.4683 -1.4098  0.9680
 9765SOL     OW32248   5.254   5.016   6.385  0.2998 -0.0955 -0.7881
 9765SOL    HW132249   5.260   4.959   6.462  2.0712 -0.2886 -1.0299
 9765SOL    HW232250   5.189   4.975   6.329 -1.2953  0.2511  0.7493
 9766SOL     OW32251   1.812   5.266   4.221  0.0235  0.1727 -0.2541
 9766SOL    HW132252   1.787   5.187   4.172  1.9088  0.0366 -1.0665
 9766SOL    HW232253   1.756   5.335   4.185  1.0477 -0.0114 -2.3507
 9767SOL     OW32254   4.878   0.587   0.162  0.2059 -0.6145  0.1673
 9767SOL    HW132255   4.833   0.648   0.103  2.5051  0.1584 -0.9166
 9767SOL    HW232256   4.948   0.639   0.202  2.3174 -2.4577 -0.8626
 9768SOL     OW32257   2.224   6.287   1.968 -0.2527 -0.0023  0.1989
 9768SOL    HW132258   2.192   6.347   2.035  0.0123 -0.4106  0.7013
 9768SOL    HW232259   2.271   6.343   1.906  1.9998  0.0651  1.8758
 9769SOL     OW32260   0.659   0.627   4.975  0.3335  0.0955 -0.2725
 9769SOL    HW132261   0.673   0.714   4.939  2.1008 -0.8353 -2.0961
 9769SOL    HW232262   0.565   0.621   4.990  0.2570  2.5341  0.6305
 9770SOL     OW32263   1.452   5.859   0.332 -0.2974 -0.2566  0.0036
 9770SOL    HW132264   1.459   5.927   0.400  1.7522 -0.7727  0.3910
 9770SOL    HW232265   1.385   5.799   0.365  0.7586 -0.5808  1.7131
 9771SOL     OW32266   4.740   1.984   0.547  0.2348  0.4521 -0.1284
 9771SOL    HW132267   4.742   1.909   0.487  0.6007 -0.3115  0.8085
 9771SOL    HW232268   4.717   1.946   0.631 -2.2687  1.7622 -0.1251
 9772SOL     OW32269   3.835   0.593   7.935  0.0958  0.2013  0.2253
 9772SOL    HW132270   3.835   0.573   7.842 -2.0861  0.8752  0.0158
 9772SOL    HW232271   3.813   0.509   7.977  2.2004 -0.3810  0.2858
 9773SOL     OW32272   3.008   4.420   6.995  0.0238  0.2520 -0.5301
 9773SOL    HW132273   2.976   4.506   6.968  1.7002  0.8799 -0.6287
 9773SOL    HW232274   2.989   4.416   7.089  0.7874  1.1555 -0.3187
 9774SOL     OW32275   7.984   7.237   0.110 -0.1594  0.0195  0.8263
 9774SOL    HW132276   7.942   7.283   0.182  0.0219 -0.7335  1.4174
 9774SOL    HW232277   8.074   7.269   0.111 -0.3814  0.6806  0.3591
 9775SOL     OW32278   3.932   5.023   2.432  0.0670 -0.0542 -0.0087
 9775SOL    HW132279   4.028   5.020   2.443 -0.0767 -1.6715  1.3320
 9775SOL    HW232280   3.902   5.082   2.501  0.0922  0.4415 -0.4202
 9776SOL     OW32281   7.355   2.250   6.496 -0.0326 -0.2895 -0.1737
 9776SOL    HW132282   7.362   2.253   6.400 -0.0307 -1.4003 -0.2293
 9776SOL    HW232283   7.301   2.172   6.513 -0.4047  0.1466  0.7173
 9777SOL     OW32284   1.357   5.890   7.508  0.2835  0.2422  0.2992
 9777SOL    HW132285   1.383   5.826   7.441 -0.7307 -0.4887  0.5780
 9777SOL    HW232286   1.324   5.964   7.458 -1.9444 -0.9093 -0.0846
 9778SOL     OW32287   7.044   0.884   1.425  0.2859  0.2863 -0.4513
 9778SOL    HW132288   7.069   0.977   1.426 -0.8104  0.6100  1.3066
 9778SOL    HW232289   7.016   0.868   1.334  0.4139  1.6973 -0.7650
 9779SOL     OW32290   4.004   3.825   5.161 -0.0317  0.4373 -0.2319
 9779SOL    HW132291   3.956   3.859   5.085  0.3843  0.3762 -0.5206
 9779SOL    HW232292   3.937   3.816   5.229 -0.5682 -0.3133 -0.8468
 9780SOL     OW32293   1.057   3.408   0.374 -0.4853 -0.4320 -0.5723
 9780SOL    HW132294   1.134   3.369   0.331 -0.8088 -0.6753 -0.9312
 9780SOL    HW232295   1.093   3.452   0.451 -0.1363 -1.5697 -0.0783
 9781SOL     OW32296   0.853   4.654   0.806  0.0497 -0.0845  0.0614
 9781SOL    HW132297   0.948   4.653   0.807  0.0679 -2.7037 -0.1242
 9781SOL    HW232298   0.830   4.716   0.736  1.6043 -0.1884 -0.5691
 9782SOL     OW32299   2.577   2.267   7.376 -0.7820 -0.2337 -0.1565
 9782SOL    HW132300   2.601   2.219   7.296 -0.4695  0.1775 -0.3123
 9782SOL    HW232301   2.659   2.304   7.407 -0.6788 -1.4047  1.0515
 9783SOL     OW32302   4.346   3.744   0.504 -0.4335  0.0596 -0.5248
 9783SOL    HW132303   4.426   3.693   0.492 -0.8465 -0.7810  0.1858
 9783SOL    HW232304   4.367   3.807   0.573 -0.3274 -0.0487 -0.4588
 9784SOL     OW32305   1.479   3.754   3.321 -0.0670  0.2207  0.3881
 9784SOL    HW132306   1.398   3.723   3.361  0.7755 -1.6650  0.7199
 9784SOL    HW232307   1.454   3.776   3.231 -1.3253  1.6016  1.0254
 9785SOL     OW32308   6.853   2.646   7.667  0.2146  0.5856  0.2370
 9785SOL    HW132309   6.858   2.656   7.572  0.7162  1.4576  0.3457
 9785SOL    HW232310   6.760   2.635   7.685 -0.0046  1.5235 -0.2597
 9786SOL     OW32311   3.087   6.424   6.118  0.7054  0.5560 -0.7886
 9786SOL    HW132312   3.128   6.474   6.189  0.3255  0.8859 -0.8001
 9786SOL    HW232313   2.995   6.451   6.119  0.1488 -1.1745  0.1192
 9787SOL     OW32314   6.631   1.413   8.129 -0.4071  0.0697 -0.0123
 9787SOL    HW132315   6.591   1.368   8.203 -2.0403  0.7638 -0.4408
 9787SOL    HW232316   6.559   1.428   8.068  0.3598  1.9427 -0.5249
 9788SOL     OW32317   3.346   3.507   2.609  1.1414  0.3873 -0.4518
 9788SOL    HW132318   3.271   3.563   2.592 -0.1163 -1.1621 -0.2419
 9788SOL    HW232319   3.309   3.419   2.618  2.9548 -0.3899 -0.1011
 9789SOL     OW32320   2.568   7.387   4.850  0.2234  0.5890  0.0224
 9789SOL    HW132321   2.653   7.395   4.893 -0.1395 -1.2560  1.2243
 9789SOL    HW232322   2.505   7.384   4.923 -0.5041 -1.7221 -0.6197
 9790SOL     OW32323   6.368   3.966   6.823  0.2367 -0.1821 -0.6380
 9790SOL    HW132324   6.348   3.971   6.730  1.3973 -1.8703 -1.0210
 9790SOL    HW232325   6.454   4.006   6.832  0.9404 -1.6276 -0.6263
 9791SOL     OW32326   6.825   1.129   6.786  0.2639 -0.0091  0.3668
 9791SOL    HW132327   6.751   1.137   6.846 -0.7263 -0.0535 -0.8031
 9791SOL    HW232328   6.784   1.119   6.700  1.6517  0.6156 -0.3854
 9792SOL     OW32329   3.232   6.571   1.753  0.2552  0.8464  0.0977
 9792SOL    HW132330   3.213   6.517   1.676 -4.1618  1.4721  0.4998
 9792SOL    HW232331   3.280   6.646   1.718  0.7188 -0.1578 -1.5475
 9793SOL     OW32332   5.835   3.733   4.632  0.3471 -0.8909 -0.6625
 9793SOL    HW132333   5.927   3.735   4.657 -0.4557 -0.6423  2.6837
 9793SOL    HW232334   5.807   3.643   4.649 -0.1813 -0.8232 -1.1113
 9794SOL     OW32335   7.043   2.138   0.919 -0.2745 -0.2942 -0.4671
 9794SOL    HW132336   7.070   2.068   0.860  1.1128 -1.3237  1.2651
 9794SOL    HW232337   6.947   2.134   0.920 -0.2413 -3.5091  1.0093
 9795SOL     OW32338   7.479   1.393   1.659 -0.1375 -0.3123  0.1449
 9795SOL    HW132339   7.421   1.317   1.657 -2.1811  0.9746  2.9945
 9795SOL    HW232340   7.542   1.374   1.729  0.6284 -0.1935 -0.4943
 9796SOL     OW32341   6.752   8.060   4.277  0.1985  0.1276  0.2781
 9796SOL    HW132342   6.816   8.094   4.215 -0.1535  0.1610 -0.0697
 9796SOL    HW232343   6.675   8.039   4.224 -0.2127  0.4415  0.7373
 9797SOL     OW32344   2.046   6.327   1.609  0.1437 -0.3130  0.0320
 9797SOL    HW132345   2.013   6.237   1.603  2.2510 -1.0656 -1.7237
 9797SOL    HW232346   2.041   6.348   1.702 -3.2752 -1.0273  0.1395
 9798SOL     OW32347   1.938   5.437   7.178  0.5031 -0.4456  0.2324
 9798SOL    HW132348   1.974   5.404   7.260  2.4450  0.5383 -0.1409
 9798SOL    HW232349   1.978   5.524   7.168  1.5837 -1.1530 -2.4821
 9799SOL     OW32350   6.469   0.566   1.204  0.0204  0.2197  0.4821
 9799SOL    HW132351   6.545   0.511   1.224  0.5204  1.1923  1.3492
 9799SOL    HW232352   6.507   0.645   1.164 -0.8256 -0.8980 -2.8390
 9800SOL     OW32353   0.590   7.187   1.296 -0.0524 -0.0284 -0.2089
 9800SOL    HW132354   0.521   7.178   1.362 -0.7424 -0.5360 -0.9947
 9800SOL    HW232355   0.544   7.188   1.212  0.8800 -0.1777 -0.7348
 9801SOL     OW32356   7.920   6.480   0.400  0.0990 -1.0335 -0.9830
 9801SOL    HW132357   7.863   6.453   0.472  1.0843 -1.1146 -0.2069
 9801SOL    HW232358   7.997   6.423   0.408 -0.1601 -1.6778 -2.6672
 9802SOL     OW32359   2.340   4.274   6.099 -0.0105 -0.1547 -0.8727
 9802SOL    HW132360   2.414   4.333   6.088  1.0121 -1.1107  0.4903
 9802SOL    HW232361   2.300   4.300   6.182  0.7041 -1.5656 -0.0435
 9803SOL     OW32362   5.278   7.655   3.742 -0.0775 -0.7695 -0.3458
 9803SOL    HW132363   5.331   7.607   3.678  3.0146  1.5070  0.2462
 9803SOL    HW232364   5.273   7.597   3.818 -0.3631 -1.9037 -1.2002
 9804SOL     OW32365   2.476   0.643   5.083 -0.4329 -0.9326  0.2305
 9804SOL    HW132366   2.477   0.641   5.179 -2.1983 -1.9268  0.2786
 9804SOL    HW232367   2.568   0.636   5.058  0.2473  1.1805  1.8434
 9805SOL     OW32368   7.918   7.519   7.508  0.1168  0.4335 -0.0592
 9805SOL    HW132369   8.011   7.542   7.507 -0.4795  3.2175 -0.0387
 9805SOL    HW232370   7.907   7.460   7.433  1.3741  2.6530 -2.1279
 9806SOL     OW32371   3.756   0.039   3.630  0.0042  0.0611 -0.2224
 9806SOL    HW132372   3.671   0.015   3.668 -0.0676  0.5817 -0.0532
 9806SOL    HW232373   3.774  -0.030   3.566  0.9881 -1.9135  2.0316
 9807SOL     OW32374   3.550   7.664   1.823 -0.0450 -0.4428 -0.5243
 9807SOL    HW132375   3.573   7.580   1.783  1.6841 -1.3657  2.1393
 9807SOL    HW232376   3.473   7.644   1.877 -0.3411 -0.0310 -0.7935
 9808SOL     OW32377   5.181   2.569   6.486  0.0202  0.2996  0.0044
 9808SOL    HW132378   5.150   2.627   6.556 -0.4469 -1.3604  1.2334
 9808SOL    HW232379   5.257   2.525   6.524  0.1301 -0.1708 -0.7508
 9809SOL     OW32380   1.208   7.395   3.414  0.2518  0.5423  0.0038
 9809SOL    HW132381   1.229   7.394   3.507  3.1874  0.0432 -0.5579
 9809SOL    HW232382   1.219   7.487   3.388  0.6649  0.4665 -0.0880
 9810SOL     OW32383   1.304   7.933   5.966  0.4319  0.0301 -0.6265
 9810SOL    HW132384   1.328   8.017   6.003  0.8770 -0.2708 -0.2196
 9810SOL    HW232385   1.321   7.941   5.872 -0.8882  0.8658 -0.8148
 9811SOL     OW32386   1.115   0.067   7.452 -0.2498 -0.3708 -0.0578
 9811SOL    HW132387   1.091   0.006   7.382  0.1855  1.2527 -1.6887
 9811SOL    HW232388   1.207   0.088   7.435 -0.7767  1.8750 -0.4883
 9812SOL     OW32389   7.730   3.054   7.938 -0.2935 -0.8454  0.0366
 9812SOL    HW132390   7.817   3.075   7.903 -0.9362  0.1097 -1.0685
 9812SOL    HW232391   7.670   3.105   7.884 -1.6614 -2.5377 -0.1347
 9813SOL     OW32392   6.448   6.983   6.787 -0.2072 -0.4246  0.2449
 9813SOL    HW132393   6.501   6.996   6.866 -0.8430  0.3369  0.5579
 9813SOL    HW232394   6.509   6.997   6.715 -0.4048  2.8127  0.5481
 9814SOL     OW32395   2.739   7.622   5.040  0.3538 -0.1156  0.0415
 9814SOL    HW132396   2.692   7.684   5.095 -0.6837 -0.2444 -0.6719
 9814SOL    HW232397   2.801   7.581   5.099  0.4234  0.9360  0.7342
 9815SOL     OW32398   7.131   2.941   8.043 -0.0450 -0.0031  0.0727
 9815SOL    HW132399   7.065   2.996   8.085  0.6574  0.2299  0.8988
 9815SOL    HW232400   7.084   2.862   8.017 -0.5948  0.0279  0.9396
 9816SOL     OW32401   2.321   1.254   3.493 -0.0270 -0.1671  0.2256
 9816SOL    HW132402   2.341   1.248   3.587 -0.0745  0.6432  0.2897
 9816SOL    HW232403   2.402   1.226   3.450 -0.6387 -2.5397  0.4922
 9817SOL     OW32404   2.679   7.537   3.088 -0.0359 -0.3043 -0.0959
 9817SOL    HW132405   2.725   7.541   3.172 -0.8547 -0.6795  0.3899
 9817SOL    HW232406   2.733   7.587   3.028  0.0148  0.9076  0.9191
 9818SOL     OW32407   3.515   3.442   6.760  0.7202  0.3643 -0.4884
 9818SOL    HW132408   3.571   3.421   6.684  1.2626 -0.7461  0.1807
 9818SOL    HW232409   3.495   3.356   6.798 -1.3657  0.7351 -0.6208
 9819SOL     OW32410   0.100   3.051   7.951 -0.1808 -0.4201 -0.1588
 9819SOL    HW132411   0.075   2.978   8.007 -1.3683 -0.0521 -0.1864
 9819SOL    HW232412   0.121   3.122   8.011  1.9920 -1.0440 -0.0884
 9820SOL     OW32413   1.025   1.385   8.104  0.0209  0.0713  0.3364
 9820SOL    HW132414   0.976   1.307   8.077 -0.2865  0.5125 -0.3842
 9820SOL    HW232415   1.116   1.363   8.086  0.0376 -0.4777  1.0219
 9821SOL     OW32416   8.121   5.425   3.580 -0.2126  0.3600 -0.2003
 9821SOL    HW132417   8.072   5.495   3.536 -0.4033  1.1646  1.2137
 9821SOL    HW232418   8.172   5.471   3.648 -1.3440 -0.9890  1.6385
 9822SOL     OW32419   5.097   4.774   7.600  0.0921  0.6588 -0.1881
 9822SOL    HW132420   5.050   4.692   7.611  1.1367  0.1997  1.0041
 9822SOL    HW232421   5.094   4.815   7.687  0.6510  1.2883 -0.4573
 9823SOL     OW32422   1.691   1.196   3.601 -0.2834  0.5974  0.0582
 9823SOL    HW132423   1.677   1.290   3.611 -0.1542  0.7170 -0.7825
 9823SOL    HW232424   1.626   1.168   3.536 -1.9209 -0.3632  2.0019
 9824SOL     OW32425   6.881   7.318   5.339  0.2943 -0.1069 -0.1503
 9824SOL    HW132426   6.959   7.368   5.312 -0.0217  0.8946  0.7419
 9824SOL    HW232427   6.820   7.385   5.370 -0.4225 -1.0023  0.3784
 9825SOL     OW32428   5.741   2.387   0.365  0.9914 -0.5872 -0.6139
 9825SOL    HW132429   5.654   2.419   0.342  0.2940 -1.3090  0.8817
 9825SOL    HW232430   5.748   2.302   0.320 -0.5716 -2.2385  2.0058
 9826SOL     OW32431   6.714   6.342   3.031  0.2846  0.3669 -0.4713
 9826SOL    HW132432   6.686   6.426   2.994  0.4539  0.7334  0.2226
 9826SOL    HW232433   6.640   6.283   3.015 -0.1506  0.8504 -0.2795
 9827SOL     OW32434   5.800   2.678   1.173 -0.1304  0.7070  0.1242
 9827SOL    HW132435   5.887   2.637   1.174 -0.8053 -0.8107  1.1380
 9827SOL    HW232436   5.739   2.604   1.181 -1.4913  1.7850  0.0283
 9828SOL     OW32437   0.349   5.448   1.249 -0.7258 -0.1169 -0.5892
 9828SOL    HW132438   0.272   5.406   1.287 -1.0013  0.0395 -0.9711
 9828SOL    HW232439   0.330   5.454   1.156 -0.3138  0.0590 -0.6640
 9829SOL     OW32440   0.935   1.655   3.754  0.1377  0.0942  0.0670
 9829SOL    HW132441   0.911   1.593   3.685 -2.7692 -1.2869  2.1122
 9829SOL    HW232442   1.004   1.611   3.803  1.8534  0.8644 -1.5622
 9830SOL     OW32443   1.291   2.693   7.539 -0.1594 -0.2725 -0.0965
 9830SOL    HW132444   1.336   2.773   7.566 -0.7929 -0.5495  1.9909
 9830SOL    HW232445   1.309   2.630   7.609 -1.4703 -1.2513 -0.5935
 9831SOL     OW32446   5.977   1.059   0.722  0.4976  0.1729 -0.5707
 9831SOL    HW132447   6.050   1.038   0.781  1.1036  3.6618  0.1019
 9831SOL    HW232448   5.902   1.012   0.760  1.0636  1.5294  2.5519
 9832SOL     OW32449   4.168   2.010   0.732 -0.5354 -0.2051  0.1846
 9832SOL    HW132450   4.129   1.979   0.651 -1.3737  0.1697  0.4336
 9832SOL    HW232451   4.113   1.972   0.801  1.4597 -2.3812  0.7063
 9833SOL     OW32452   3.662   1.575   7.366 -0.0148  0.3989  0.1929
 9833SOL    HW132453   3.646   1.669   7.369 -0.3336  0.3836 -0.7881
 9833SOL    HW232454   3.756   1.566   7.350 -0.0268  0.5507  0.0405
 9834SOL     OW32455   7.660   2.891   5.560  0.4109  0.0400  0.0138
 9834SOL    HW132456   7.622   2.866   5.476 -1.2358  0.3211  0.6271
 9834SOL    HW232457   7.717   2.818   5.584 -0.2626 -0.7121 -0.6485
 9835SOL     OW32458   4.935   2.858   3.467 -0.3065 -0.1287  0.1499
 9835SOL    HW132459   4.972   2.776   3.501  2.2946  1.0923  0.4659
 9835SOL    HW232460   4.976   2.869   3.382  0.6031  1.5737  0.7582
 9836SOL     OW32461   1.033   2.253   1.382  0.1893 -0.1703  0.3186
 9836SOL    HW132462   0.985   2.331   1.409 -0.5778 -0.1800 -0.9315
 9836SOL    HW232463   1.042   2.202   1.462  0.3607  1.0025  1.0837
 9837SOL     OW32464   1.877   1.649   4.528 -0.2378  0.0570 -0.1411
 9837SOL    HW132465   1.897   1.706   4.454 -1.0672  1.6454  0.7812
 9837SOL    HW232466   1.949   1.664   4.590  0.9228 -1.9279 -0.9185
 9838SOL     OW32467   3.854   7.862   3.077  0.1974  0.7472 -1.3022
 9838SOL    HW132468   3.832   7.769   3.085 -0.3980  0.7512 -2.6483
 9838SOL    HW232469   3.832   7.900   3.162  1.7086 -0.5644 -0.2677
 9839SOL     OW32470   7.420   2.690   7.514  0.1812 -0.5722 -0.5857
 9839SOL    HW132471   7.504   2.733   7.534 -0.0550 -0.6779  0.7127
 9839SOL    HW232472   7.433   2.599   7.541 -0.5832 -0.4265  0.3130
 9840SOL     OW32473   6.194   0.820   4.461  0.7285 -0.7108  0.0511
 9840SOL    HW132474   6.109   0.861   4.479  1.2248 -0.3408  1.7025
 9840SOL    HW232475   6.203   0.825   4.366 -0.1981  1.0505  0.0178
 9841SOL     OW32476   6.447   5.870   7.538  0.0314  0.3402 -0.1719
 9841SOL    HW132477   6.390   5.926   7.485 -2.0251 -1.8910 -0.4944
 9841SOL    HW232478   6.414   5.878   7.627  0.4280  0.4434 -0.0290
 9842SOL     OW32479   1.671   6.674   0.118  0.0992 -0.2673 -0.2615
 9842SOL    HW132480   1.698   6.679   0.209 -0.0741 -0.5454 -0.1924
 9842SOL    HW232481   1.649   6.582   0.105 -1.0423 -0.0164 -0.2452
 9843SOL     OW32482   1.911   3.620   0.378  0.6983  0.0552  0.7444
 9843SOL    HW132483   1.844   3.686   0.392 -0.3938 -0.3308 -2.0541
 9843SOL    HW232484   1.863   3.538   0.366  1.6723 -0.3436 -0.7613
 9844SOL     OW32485   7.687   5.951   4.172 -0.3786  0.4906 -0.0282
 9844SOL    HW132486   7.671   6.043   4.194 -1.1694  0.1555  0.9079
 9844SOL    HW232487   7.782   5.942   4.172 -0.2934  0.9421  1.6731
 9845SOL     OW32488   3.847   7.516   0.494  0.0684  0.0578  0.1208
 9845SOL    HW132489   3.770   7.566   0.466  0.2526  0.2243 -0.0941
 9845SOL    HW232490   3.837   7.507   0.588 -0.3434 -0.1354  0.0643
 9846SOL     OW32491   0.424   3.575   3.405  0.4831  0.3570  0.2145
 9846SOL    HW132492   0.347   3.621   3.372 -1.4122 -1.5304  1.7200
 9846SOL    HW232493   0.470   3.640   3.458 -0.4678  1.3324 -0.1128
 9847SOL     OW32494   7.281   6.356   3.177  0.3672  0.3066  0.0434
 9847SOL    HW132495   7.325   6.424   3.125  1.1786  0.1134  0.4608
 9847SOL    HW232496   7.189   6.382   3.177  0.6380  1.3186  0.0454
 9848SOL     OW32497   1.959   2.049   6.833  0.0842  0.3408 -0.1257
 9848SOL    HW132498   1.936   2.027   6.743  0.9900 -2.6977  0.2720
 9848SOL    HW232499   1.886   2.017   6.885 -2.0648  4.9594  0.2394
 9849SOL     OW32500   5.578   0.829   6.551  0.3489  0.3387  0.4339
 9849SOL    HW132501   5.573   0.837   6.646 -0.5785  1.4276  0.3108
 9849SOL    HW232502   5.489   0.848   6.520  0.6130 -0.1057 -0.6476
 9850SOL     OW32503   7.634   3.292   2.398 -0.4438 -0.2831 -0.4983
 9850SOL    HW132504   7.617   3.243   2.478 -0.0270  0.8622  0.3181
 9850SOL    HW232505   7.699   3.358   2.424 -0.0856 -0.0780 -1.8468
 9851SOL     OW32506   6.999   1.167   1.282  0.5854  0.1480  0.0009
 9851SOL    HW132507   6.971   1.254   1.253  0.7668  0.0873 -0.3667
 9851SOL    HW232508   6.985   1.111   1.206 -0.7215 -0.4086  0.6212
 9852SOL     OW32509   2.472   7.359   3.004 -0.3808 -0.2786  0.4361
 9852SOL    HW132510   2.461   7.315   3.088 -0.2121 -0.5623  0.3107
 9852SOL    HW232511   2.546   7.419   3.019 -1.1332  0.5796  0.8506
 9853SOL     OW32512   4.740   0.958   6.652  0.5583  0.2571  0.1203
 9853SOL    HW132513   4.671   0.898   6.681  1.0499 -0.2801  0.1925
 9853SOL    HW232514   4.768   0.923   6.567  1.1273  0.1546  0.3504
 9854SOL     OW32515   1.799   0.844   4.392 -0.3141  0.5835  0.8359
 9854SOL    HW132516   1.811   0.797   4.475 -0.1941  1.7216  1.4881
 9854SOL    HW232517   1.782   0.935   4.418 -0.6483  0.8919 -0.3838
 9855SOL     OW32518   3.535   3.051   0.627  0.0905 -0.0798 -0.1833
 9855SOL    HW132519   3.555   3.069   0.719 -0.7067  2.8593 -0.4672
 9855SOL    HW232520   3.606   2.996   0.597  1.1474  0.0774  1.8380
 9856SOL     OW32521   3.252   1.073   7.494  0.3194  0.4933 -0.4358
 9856SOL    HW132522   3.290   1.123   7.566  0.4825  0.3682 -0.4351
 9856SOL    HW232523   3.265   1.128   7.417 -0.3964  0.8984 -0.2723
 9857SOL     OW32524   3.410   1.703   1.552 -0.2644 -0.5625 -0.8052
 9857SOL    HW132525   3.389   1.795   1.568 -1.7842 -0.8743 -0.8578
 9857SOL    HW232526   3.479   1.706   1.486  1.1903  0.5714  0.6745
 9858SOL     OW32527   8.114   0.880   8.070  0.0333 -0.6326 -0.4242
 9858SOL    HW132528   8.178   0.869   8.139  0.0512  1.5027 -0.0260
 9858SOL    HW232529   8.058   0.952   8.100  1.2013  1.7388 -3.3583
 9859SOL     OW32530   5.633   6.462   8.033 -0.0425  0.1959  0.1273
 9859SOL    HW132531   5.587   6.470   8.117  0.7010  0.5153  0.5171
 9859SOL    HW232532   5.725   6.481   8.055 -0.0960  2.0293 -1.0564
 9860SOL     OW32533   7.799   2.511   4.733  0.0784  0.6375  0.0634
 9860SOL    HW132534   7.782   2.569   4.807 -1.3937 -0.9152  0.9969
 9860SOL    HW232535   7.745   2.435   4.749  1.6006 -0.8251 -1.3696
 9861SOL     OW32536   1.078   3.154   7.389 -0.1116 -0.7109  0.3034
 9861SOL    HW132537   1.007   3.204   7.349 -0.4505 -1.1942  0.2922
 9861SOL    HW232538   1.042   3.122   7.472 -0.4017 -2.1385 -0.3398
 9862SOL     OW32539   6.236   1.945   3.428 -0.2039  0.0901  0.4431
 9862SOL    HW132540   6.330   1.937   3.443 -0.0732  0.5784 -0.0901
 9862SOL    HW232541   6.218   2.039   3.434 -0.1827  0.3329 -2.0072
 9863SOL     OW32542   1.811   2.066   1.977 -0.4382  0.4074 -0.1132
 9863SOL    HW132543   1.825   2.161   1.972 -0.4373  0.4145  0.0008
 9863SOL    HW232544   1.726   2.052   1.936 -1.3326  0.6970  1.5397
 9864SOL     OW32545   5.404   7.082   1.248 -0.2890 -0.7431 -0.7572
 9864SOL    HW132546   5.327   7.052   1.198 -0.2284  0.0159 -1.3193
 9864SOL    HW232547   5.400   7.177   1.243 -0.5147 -0.6302  1.0773
 9865SOL     OW32548   7.390   5.483   2.944 -0.0841 -0.2625  0.4531
 9865SOL    HW132549   7.451   5.417   2.912  0.2039  0.1269  0.1889
 9865SOL    HW232550   7.437   5.566   2.935 -1.0280  0.1840 -0.7786
 9866SOL     OW32551   3.862   4.919   1.685 -0.0149 -0.6760  0.1302
 9866SOL    HW132552   3.934   4.918   1.621  0.4386  0.7027  0.5802
 9866SOL    HW232553   3.902   4.888   1.766 -0.3932 -1.6277 -0.0261
 9867SOL     OW32554   7.137   7.292   6.783 -0.4985 -0.1073 -0.0205
 9867SOL    HW132555   7.215   7.328   6.740 -0.1623 -1.8677 -0.9894
 9867SOL    HW232556   7.105   7.363   6.838  0.3412  1.5082 -1.5279
 9868SOL     OW32557   4.542   2.832   2.094  0.0343  0.3551 -0.3094
 9868SOL    HW132558   4.621   2.881   2.071 -0.1830  0.6604 -0.4185
 9868SOL    HW232559   4.523   2.858   2.184  0.5924 -0.4451  0.0461
 9869SOL     OW32560   3.799   5.097   3.300 -0.1334  0.0712 -0.4925
 9869SOL    HW132561   3.795   5.004   3.277 -0.7578 -0.4130  1.3999
 9869SOL    HW232562   3.880   5.128   3.259 -0.2950 -1.1049 -1.7900
 9870SOL     OW32563   4.349   5.969   5.265 -0.2001 -0.1149 -0.0522
 9870SOL    HW132564   4.291   6.033   5.223 -0.0409 -0.6122 -1.0618
 9870SOL    HW232565   4.345   5.892   5.209 -1.5050 -1.5617  1.8808
 9871SOL     OW32566   4.443   7.638   0.757  0.2515  0.7993 -0.1673
 9871SOL    HW132567   4.372   7.579   0.785 -0.5748  1.4425 -0.8522
 9871SOL    HW232568   4.511   7.626   0.823 -1.1464  1.3795  1.4668
 9872SOL     OW32569   2.784   6.984   2.111  0.2307  0.7740 -0.0867
 9872SOL    HW132570   2.773   7.072   2.075  1.3931  1.0393  0.1736
 9872SOL    HW232571   2.795   6.997   2.205  1.9867  0.5036 -0.2276
 9873SOL     OW32572   1.690   3.388   1.821 -0.4648  0.0547  0.2220
 9873SOL    HW132573   1.668   3.296   1.833  2.6927 -0.8800 -0.2735
 9873SOL    HW232574   1.784   3.388   1.806 -0.3854  3.3841  0.0737
 9874SOL     OW32575   4.268   2.486   1.442  0.6307 -0.1037  0.2199
 9874SOL    HW132576   4.233   2.410   1.487  1.3929  0.2217  1.3972
 9874SOL    HW232577   4.362   2.471   1.438  0.5932 -0.1138 -1.2673
 9875SOL     OW32578   7.555   2.224   7.785 -0.2349 -0.4168  0.0949
 9875SOL    HW132579   7.633   2.168   7.786 -0.5407 -0.8517  0.8704
 9875SOL    HW232580   7.550   2.260   7.873 -0.8133 -0.2599  0.0048
 9876SOL     OW32581   2.695   7.269   1.385 -0.4242 -0.4338  0.6031
 9876SOL    HW132582   2.769   7.212   1.363 -0.8064 -0.3648 -1.0378
 9876SOL    HW232583   2.630   7.210   1.424 -0.2020 -0.8504  0.3513
 9877SOL     OW32584   7.068   7.975   2.818 -0.2365  0.3897  0.0032
 9877SOL    HW132585   6.998   8.040   2.824  0.6544  1.3438  0.3045
 9877SOL    HW232586   7.143   8.016   2.861  0.6027 -0.4903 -0.5794
 9878SOL     OW32587   3.645   0.180   5.584 -0.0078  0.1576  0.4306
 9878SOL    HW132588   3.662   0.141   5.670  1.5314 -1.1377 -0.4197
 9878SOL    HW232589   3.553   0.160   5.567  0.2355 -1.4899  0.8556
 9879SOL     OW32590   6.230   1.377   0.608 -0.4528  0.4301  0.2813
 9879SOL    HW132591   6.294   1.423   0.553 -0.6586  1.1921  0.6608
 9879SOL    HW232592   6.268   1.290   0.621  0.5609  0.8959  0.5743
 9880SOL     OW32593   4.885   4.531   6.797 -0.3396  0.1213  0.1327
 9880SOL    HW132594   4.957   4.495   6.744 -1.4512 -0.3394 -1.1080
 9880SOL    HW232595   4.885   4.476   6.876  1.5463  1.0217  0.8272
 9881SOL     OW32596   3.994   6.220   4.907  0.2112 -0.0840  0.1246
 9881SOL    HW132597   4.014   6.301   4.860 -0.3269 -0.4048 -0.6813
 9881SOL    HW232598   3.922   6.244   4.966 -1.4445 -0.4275 -1.6417
 9882SOL     OW32599   0.809   5.928   3.406 -0.0020  0.5167  0.1438
 9882SOL    HW132600   0.856   5.845   3.396 -0.8949 -0.6750  4.0164
 9882SOL    HW232601   0.873   5.986   3.446 -0.2092  0.7857  0.0839
 9883SOL     OW32602   3.947   6.297   2.769  0.4687  0.0418  0.1811
 9883SOL    HW132603   4.031   6.321   2.731 -0.0887 -0.0005 -1.1319
 9883SOL    HW232604   3.962   6.210   2.806  0.5369 -0.8604 -1.8021
 9884SOL     OW32605   2.497   5.235   7.108  0.3022 -0.3870  0.7193
 9884SOL    HW132606   2.484   5.166   7.043 -2.6129  1.0790 -0.4675
 9884SOL    HW232607   2.580   5.276   7.085 -0.1379 -0.6290 -1.4193
 9885SOL     OW32608   6.516   3.078   6.217 -0.0220  0.2873 -0.3187
 9885SOL    HW132609   6.481   3.123   6.140  2.2567  0.0553 -1.5848
 9885SOL    HW232610   6.567   3.005   6.181  0.0649 -0.6137  1.4888
 9886SOL     OW32611   5.125   1.904   3.101 -0.1758  0.0595  0.4679
 9886SOL    HW132612   5.167   1.945   3.026  0.7063 -0.5223  0.6376
 9886SOL    HW232613   5.141   1.810   3.090 -0.7361 -0.1040  0.9595
 9887SOL     OW32614   5.542   6.252   1.492  0.1370 -0.7868 -0.3172
 9887SOL    HW132615   5.557   6.334   1.446 -0.6189  0.5536  1.6645
 9887SOL    HW232616   5.482   6.203   1.436 -0.7163  0.7578 -0.8041
 9888SOL     OW32617   4.295   6.966   8.078 -0.4323  0.4824  0.2228
 9888SOL    HW132618   4.278   6.872   8.086  1.4445  0.2025  1.5790
 9888SOL    HW232619   4.250   7.005   8.153 -0.0029  0.4548  0.5034
 9889SOL     OW32620   7.890   1.035   7.110  0.4497  0.2617  0.4243
 9889SOL    HW132621   7.933   0.963   7.156  2.1677  0.1992 -1.1408
 9889SOL    HW232622   7.862   0.997   7.027  2.4118  1.5842 -0.9288
 9890SOL     OW32623   6.970   3.400   1.178 -0.1617  0.5127 -0.2613
 9890SOL    HW132624   6.964   3.438   1.265  0.3382  0.1901 -0.0881
 9890SOL    HW232625   6.930   3.466   1.121 -2.5269 -0.1870  0.4527
 9891SOL     OW32626   7.458   0.113   1.797 -0.3803  0.3143 -0.5446
 9891SOL    HW132627   7.455   0.203   1.830  1.6428 -0.1184  1.0657
 9891SOL    HW232628   7.392   0.110   1.728 -1.7405  2.5297  0.5525
 9892SOL     OW32629   3.931   4.386   7.695  0.2622  0.2172 -0.0929
 9892SOL    HW132630   3.987   4.439   7.751 -1.7264  0.5914  1.6706
 9892SOL    HW232631   3.845   4.388   7.737 -1.2365  0.0347 -2.8608
 9893SOL     OW32632   5.204   4.263   1.070  0.6480  0.3158  0.2110
 9893SOL    HW132633   5.295   4.239   1.054  0.9284  0.9572  0.7758
 9893SOL    HW232634   5.209   4.340   1.127 -0.2324  1.1635 -0.8112
 9894SOL     OW32635   4.039   1.404   4.912  0.2175 -0.3971 -0.7296
 9894SOL    HW132636   4.110   1.413   4.976 -0.0985 -1.3183 -0.2278
 9894SOL    HW232637   4.014   1.494   4.891  0.2278 -0.0743  0.5679
 9895SOL     OW32638   3.479   5.016   5.841  0.8160  0.1884  0.0016
 9895SOL    HW132639   3.554   5.066   5.808  1.3312  0.2297  1.1858
 9895SOL    HW232640   3.518   4.949   5.896 -0.0710  1.5917  2.5009
 9896SOL     OW32641   2.506   6.762   4.435 -0.2031  0.5284 -0.1056
 9896SOL    HW132642   2.426   6.814   4.432 -0.9978 -0.6161  0.6368
 9896SOL    HW232643   2.476   6.671   4.443  1.1627  0.1305  0.9452
 9897SOL     OW32644   4.721   1.113   0.898 -0.1083  0.1287  0.7987
 9897SOL    HW132645   4.777   1.036   0.906 -1.1921 -0.7640  0.0465
 9897SOL    HW232646   4.764   1.179   0.953  2.0583 -0.2708 -0.3240
 9898SOL     OW32647   2.806   0.029   4.811 -0.3685 -0.1774  0.3951
 9898SOL    HW132648   2.833  -0.058   4.780  0.5902  0.7959 -1.6708
 9898SOL    HW232649   2.721   0.044   4.768  0.2533  0.5492 -0.6443
 9899SOL     OW32650   1.383   2.171   7.665 -0.1346 -0.3573 -0.0124
 9899SOL    HW132651   1.333   2.183   7.746 -0.3582  0.5571 -0.2819
 9899SOL    HW232652   1.338   2.225   7.600  1.2996  0.6385 -0.2244
 9900SOL     OW32653   0.600   7.489   3.543 -0.6025  0.2946  0.2884
 9900SOL    HW132654   0.662   7.517   3.611 -1.5829 -0.0111  1.3417
 9900SOL    HW232655   0.579   7.570   3.496 -0.0211  0.5415  0.4379
 9901SOL     OW32656   3.756   1.479   5.415  0.4106 -0.6935 -0.0551
 9901SOL    HW132657   3.820   1.434   5.360  0.6141 -0.2621 -0.1828
 9901SOL    HW232658   3.787   1.570   5.417 -0.7684 -0.2279 -1.0004
 9902SOL     OW32659   4.214   0.823   4.417  0.1224  0.0589 -0.0260
 9902SOL    HW132660   4.224   0.737   4.459  2.1649  0.5940  0.6967
 9902SOL    HW232661   4.187   0.882   4.487  0.0500  0.2789 -0.2370
 9903SOL     OW32662   5.161   4.007   7.460 -0.9159  0.3453  0.4504
 9903SOL    HW132663   5.253   4.003   7.487 -0.5044  0.1128 -0.8766
 9903SOL    HW232664   5.111   3.986   7.539  0.1815  0.2202  1.1291
 9904SOL     OW32665   5.874   1.670   1.855 -0.1329  0.5040 -0.0114
 9904SOL    HW132666   5.853   1.761   1.834  1.5871  1.0453  0.4153
 9904SOL    HW232667   5.923   1.676   1.938  1.0901 -0.6633 -0.6094
 9905SOL     OW32668   7.395   6.327   2.877  0.4235  0.2011 -0.0274
 9905SOL    HW132669   7.321   6.343   2.819  0.4725 -0.0415 -0.1576
 9905SOL    HW232670   7.388   6.395   2.944 -1.6631 -1.5153  1.6953
 9906SOL     OW32671   6.496   7.321   6.306  0.3257 -0.4514  0.2983
 9906SOL    HW132672   6.574   7.267   6.299 -0.7665 -2.2494  1.2648
 9906SOL    HW232673   6.498   7.355   6.396  1.2356  1.5678 -0.4324
 9907SOL     OW32674   2.530   2.775   6.519 -0.5058 -0.0214  0.2882
 9907SOL    HW132675   2.614   2.778   6.567 -0.4101  1.1344  0.0881
 9907SOL    HW232676   2.556   2.769   6.427 -0.6941 -3.2383  0.3483
 9908SOL     OW32677   1.059   0.928   0.145  0.5752 -0.0753  0.4442
 9908SOL    HW132678   1.108   1.007   0.170 -0.3065  0.8122 -0.5381
 9908SOL    HW232679   0.968   0.950   0.164  0.4352 -1.3429  1.3274
 9909SOL     OW32680   6.599   7.799   2.966  0.4944  0.3970  0.4262
 9909SOL    HW132681   6.541   7.861   2.922  2.5710  1.9698 -0.2689
 9909SOL    HW232682   6.547   7.719   2.974 -1.8633  1.8126  0.2045
 9910SOL     OW32683   1.004   2.017   5.670 -0.0177 -0.0884 -0.0711
 9910SOL    HW132684   0.977   1.936   5.628  1.2666 -0.6658  0.1778
 9910SOL    HW232685   0.936   2.035   5.736  0.0702 -1.3454  0.3723
 9911SOL     OW32686   4.618   7.233   7.577 -0.5216 -0.0220 -0.2244
 9911SOL    HW132687   4.591   7.241   7.486 -0.3081 -0.6335 -0.3519
 9911SOL    HW232688   4.708   7.266   7.579 -1.0445  1.4554  0.0824
 9912SOL     OW32689   1.663   6.257   2.047 -0.2972 -0.2723 -0.0146
 9912SOL    HW132690   1.748   6.227   2.080 -0.6232 -0.8847  0.2733
 9912SOL    HW232691   1.684   6.336   1.997  0.5130 -0.7347 -0.4251
 9913SOL     OW32692   6.684   0.051   3.547  0.0764  0.2636  0.0588
 9913SOL    HW132693   6.764   0.040   3.599 -0.0246  2.6935  0.8588
 9913SOL    HW232694   6.700   0.130   3.495 -1.2596 -0.0447 -0.8633
 9914SOL     OW32695   6.302   1.120   2.881 -0.3756  0.1931  0.2550
 9914SOL    HW132696   6.220   1.072   2.871  0.4597 -0.7817 -2.9394
 9914SOL    HW232697   6.369   1.061   2.847  1.2440  2.1209 -0.1114
 9915SOL     OW32698   4.404   0.629   3.835 -0.2056  0.3403 -0.0065
 9915SOL    HW132699   4.448   0.707   3.869 -1.7344  1.0420  0.4628
 9915SOL    HW232700   4.377   0.581   3.913  0.2860 -0.4224 -0.2907
 9916SOL     OW32701   8.087   2.683   1.428  0.8327 -0.4226  0.0865
 9916SOL    HW132702   7.993   2.683   1.408  1.0103  1.3299 -0.9201
 9916SOL    HW232703   8.119   2.599   1.396 -0.3149 -0.8943  0.1317
 9917SOL     OW32704   6.609   1.849   3.864  0.6061  0.0730 -0.0493
 9917SOL    HW132705   6.624   1.940   3.889 -0.6916  0.1579  0.4971
 9917SOL    HW232706   6.539   1.819   3.922  1.5643 -1.5350  0.3343
 9918SOL     OW32707   4.368   2.597   5.317 -0.1403  0.4697 -0.3548
 9918SOL    HW132708   4.440   2.602   5.254 -0.4578  2.0740 -0.6455
 9918SOL    HW232709   4.412   2.593   5.402  0.3661  2.2374 -0.4747
 9919SOL     OW32710   4.659   1.977   3.950  0.1320  0.2247  0.2347
 9919SOL    HW132711   4.643   2.010   3.862 -0.6376 -1.1228 -0.1575
 9919SOL    HW232712   4.598   2.027   4.005 -2.6200 -1.8738 -0.6538
 9920SOL     OW32713   4.879   6.211   5.156 -0.1286  0.7498  0.0365
 9920SOL    HW132714   4.867   6.271   5.231 -1.3415 -1.0817  1.3922
 9920SOL    HW232715   4.963   6.170   5.172 -0.3562  0.4092  0.3683
 9921SOL     OW32716   3.956   5.799   5.941  0.1197 -0.4465 -0.0238
 9921SOL    HW132717   3.922   5.730   5.883 -0.3933 -0.2968  0.0933
 9921SOL    HW232718   3.943   5.765   6.029  1.2028 -0.8140  0.0121
 9922SOL     OW32719   0.853   4.619   7.866  0.4162  0.1708 -0.1010
 9922SOL    HW132720   0.758   4.612   7.878  0.5915 -1.2480  0.6405
 9922SOL    HW232721   0.870   4.713   7.864 -1.2880  0.5410 -2.7778
 9923SOL     OW32722   3.012   5.178   3.580  0.5212 -0.0030 -0.0044
 9923SOL    HW132723   3.106   5.176   3.601  0.6611  1.0695 -0.4480
 9923SOL    HW232724   2.995   5.269   3.555 -0.9209  0.1263  1.3114
 9924SOL     OW32725   3.346   2.435   4.135  0.7688 -0.0935 -0.1925
 9924SOL    HW132726   3.435   2.471   4.145  1.0277 -0.2651 -1.6710
 9924SOL    HW232727   3.360   2.341   4.125  0.2144 -0.4585  1.9046
 9925SOL     OW32728   0.683   1.588   0.721  0.0584 -0.0366  0.5236
 9925SOL    HW132729   0.705   1.612   0.631 -1.4995 -2.3871 -0.5844
 9925SOL    HW232730   0.749   1.633   0.775  0.9427  1.5592 -1.7369
 9926SOL     OW32731   7.026   6.353   3.482  0.5155  0.2677 -0.6130
 9926SOL    HW132732   6.971   6.365   3.404  0.6707  1.3656 -0.5680
 9926SOL    HW232733   7.108   6.318   3.448  0.3508  0.1065 -0.8573
 9927SOL     OW32734   6.543   2.193   5.934 -0.7140 -0.2278  0.3357
 9927SOL    HW132735   6.513   2.269   5.885  0.5519 -0.4180 -0.7808
 9927SOL    HW232736   6.584   2.229   6.012 -1.7503  0.1311  0.7275
 9928SOL     OW32737   8.123   4.371   1.759 -0.6771 -0.0686 -0.0498
 9928SOL    HW132738   8.159   4.288   1.730 -1.2084  0.1208 -1.2958
 9928SOL    HW232739   8.161   4.436   1.700 -0.4568  0.5463  0.7529
 9929SOL     OW32740   4.867   4.712   1.140  1.0272 -0.0030  0.6507
 9929SOL    HW132741   4.882   4.687   1.231  0.2175 -0.3346  0.6979
 9929SOL    HW232742   4.844   4.805   1.145  2.1370  0.2903  0.6583
 9930SOL     OW32743   5.452   5.052   0.808 -0.3044 -0.1423  0.1279
 9930SOL    HW132744   5.535   5.092   0.785 -1.3371  1.2167 -1.4949
 9930SOL    HW232745   5.471   4.998   0.884  1.7460  1.2708  0.6826
 9931SOL     OW32746   0.040   7.853   6.460  0.1645  0.0013  0.1680
 9931SOL    HW132747   0.128   7.860   6.423  0.4238 -0.7343  0.6103
 9931SOL    HW232748   0.047   7.892   6.547 -0.8890  3.4326 -1.1237
 9932SOL     OW32749   0.349   2.006   4.454  0.1603  0.1128  0.2475
 9932SOL    HW132750   0.437   2.004   4.492  0.4526 -0.9683 -0.4377
 9932SOL    HW232751   0.296   2.053   4.518  1.5619  2.2576 -0.0806
 9933SOL     OW32752   0.421   5.422   0.137 -0.1593 -0.5626 -0.6907
 9933SOL    HW132753   0.414   5.498   0.080  0.6050 -0.6111 -0.8535
 9933SOL    HW232754   0.507   5.385   0.118  0.2184 -0.4273  0.6815
 9934SOL     OW32755   3.933   0.790   1.723  0.0078 -0.2054 -0.3643
 9934SOL    HW132756   4.006   0.814   1.665 -1.2249  1.3727 -1.3607
 9934SOL    HW232757   3.888   0.719   1.676 -0.7511  0.7955 -1.2050
 9935SOL     OW32758   6.150   5.929   6.503  0.2665 -0.3234  0.2895
 9935SOL    HW132759   6.204   5.948   6.579 -0.7202  0.8705  0.7298
 9935SOL    HW232760   6.133   5.835   6.507 -1.5646  0.0129  2.8339
 9936SOL     OW32761   7.206   6.492   0.275  0.5333  0.3021 -0.2117
 9936SOL    HW132762   7.210   6.486   0.180  1.5721  2.9111 -0.4381
 9936SOL    HW232763   7.240   6.580   0.294  0.4646 -0.1948  2.5775
 9937SOL     OW32764   1.795   3.442   0.757 -0.0414 -0.1364 -0.1696
 9937SOL    HW132765   1.708   3.482   0.752 -1.6451 -3.4011 -2.3053
 9937SOL    HW232766   1.812   3.432   0.851 -1.7418  1.0286  0.2933
 9938SOL     OW32767   5.705   0.920   7.495 -0.4760 -0.3096  0.8362
 9938SOL    HW132768   5.800   0.906   7.499 -0.7409 -2.3203  0.8674
 9938SOL    HW232769   5.676   0.909   7.586 -0.8792 -0.8146  0.6452
 9939SOL     OW32770   0.700   1.170   2.158  0.4555 -0.1619  0.3100
 9939SOL    HW132771   0.679   1.254   2.115  0.1091 -0.5148 -0.2203
 9939SOL    HW232772   0.744   1.120   2.090 -2.9789 -2.0130 -0.7829
 9940SOL     OW32773   0.835   8.005   5.611 -0.1101 -0.3289  0.1462
 9940SOL    HW132774   0.755   8.056   5.599 -1.5966 -2.8203 -1.5547
 9940SOL    HW232775   0.840   7.990   5.705 -0.9629  0.8798  0.4076
 9941SOL     OW32776   0.863   4.998   8.043  0.0316 -0.5040  0.3253
 9941SOL    HW132777   0.931   4.932   8.055  0.5270  0.0154  0.3974
 9941SOL    HW232778   0.783   4.956   8.075  0.4880 -0.7886  1.1268
 9942SOL     OW32779   1.626   4.233   5.650 -0.5953  0.4981 -0.7017
 9942SOL    HW132780   1.659   4.151   5.613 -1.4198 -0.2262  0.1031
 9942SOL    HW232781   1.672   4.241   5.734 -1.9375 -0.1918  0.1336
 9943SOL     OW32782   5.852   0.579   7.679 -0.0061 -0.1758  0.7860
 9943SOL    HW132783   5.901   0.600   7.599  1.7784 -0.5192  1.7388
 9943SOL    HW232784   5.809   0.661   7.703 -0.5662 -0.0665 -0.5054
 9944SOL     OW32785   2.927   6.178   2.129 -0.3147 -0.3606  0.1936
 9944SOL    HW132786   2.997   6.218   2.078 -0.1836  1.8015  1.9393
 9944SOL    HW232787   2.930   6.085   2.105  3.0881 -0.3545  0.1147
 9945SOL     OW32788   0.446   4.334   4.249  0.3868 -0.1857  0.4032
 9945SOL    HW132789   0.477   4.303   4.164  1.6158 -0.7206  1.0176
 9945SOL    HW232790   0.391   4.263   4.282  1.4551 -0.8217  0.8667
 9946SOL     OW32791   1.008   0.263   7.723  0.1232 -0.1336 -0.3018
 9946SOL    HW132792   1.062   0.331   7.765  0.5438 -1.6813  1.8606
 9946SOL    HW232793   0.925   0.266   7.771 -0.4044 -0.1659 -1.1991
 9947SOL     OW32794   5.075   4.170   5.497 -0.2267  0.0147  0.8958
 9947SOL    HW132795   5.039   4.258   5.509  1.6721  1.0099 -0.1822
 9947SOL    HW232796   4.998   4.113   5.491 -1.8241  2.2016 -2.8549
 9948SOL     OW32797   3.620   3.791   8.133 -0.4575  0.4943  0.1428
 9948SOL    HW132798   3.532   3.778   8.097 -1.4365  0.6789  2.2978
 9948SOL    HW232799   3.638   3.711   8.183  0.6365  0.4266 -0.3373
 9949SOL     OW32800   6.231   5.236   7.812 -0.7517  0.5832  0.0844
 9949SOL    HW132801   6.244   5.142   7.803 -0.4662  0.7821 -2.2750
 9949SOL    HW232802   6.137   5.248   7.806 -0.7569  0.4868 -0.0183
 9950SOL     OW32803   3.633   4.087   6.979  0.3903 -0.3106 -0.3541
 9950SOL    HW132804   3.670   4.072   6.892  1.0444  0.6261 -0.2425
 9950SOL    HW232805   3.628   4.182   6.988  1.1565 -0.3713  0.9686
 9951SOL     OW32806   6.795   6.528   6.681  0.2720 -0.2788 -0.2089
 9951SOL    HW132807   6.827   6.437   6.681 -0.6279 -0.6087 -0.8451
 9951SOL    HW232808   6.711   6.523   6.726  0.5868  0.3921  0.4709
 9952SOL     OW32809   6.716   6.085   2.766  0.2537 -0.1201  0.1856
 9952SOL    HW132810   6.786   6.122   2.819  0.8649  0.3854 -0.9316
 9952SOL    HW232811   6.637   6.130   2.796  0.1405 -1.6231  2.3604
 9953SOL     OW32812   5.417   1.627   5.185 -0.0934 -0.6030  0.4822
 9953SOL    HW132813   5.418   1.655   5.276  0.5807  0.6267  0.1305
 9953SOL    HW232814   5.341   1.671   5.147  0.1520 -0.3641  0.2554
 9954SOL     OW32815   4.293   7.161   0.170  0.0626 -0.0230 -0.3959
 9954SOL    HW132816   4.292   7.231   0.235 -4.1762 -0.5252  0.3376
 9954SOL    HW232817   4.346   7.092   0.210  2.3533  1.7473 -0.1402
 9955SOL     OW32818   1.527   4.993   1.214  0.3577  0.3348 -0.0403
 9955SOL    HW132819   1.579   4.957   1.286  2.3244  1.7377 -0.6756
 9955SOL    HW232820   1.507   4.918   1.159  1.3139 -0.3281  0.4813
 9956SOL     OW32821   7.482   6.819   1.250  0.4569  0.2441  0.2591
 9956SOL    HW132822   7.412   6.795   1.311  0.4570 -0.1144  0.1201
 9956SOL    HW232823   7.466   6.911   1.229 -0.1361  0.0876  0.0133
 9957SOL     OW32824   3.428   6.451   0.719  0.1749  0.0452  0.0540
 9957SOL    HW132825   3.363   6.504   0.673 -2.4000 -2.2769  0.7380
 9957SOL    HW232826   3.500   6.442   0.656 -0.9556  1.2100 -1.4940
 9958SOL     OW32827   0.365   5.323   5.853 -0.1887  0.4238  0.8381
 9958SOL    HW132828   0.424   5.304   5.926  0.5333 -0.1930  0.1117
 9958SOL    HW232829   0.372   5.247   5.795  0.9280  1.7918 -0.9489
 9959SOL     OW32830   5.156   0.016   3.087  0.5518 -0.1024  0.5661
 9959SOL    HW132831   5.082   0.076   3.079  1.0644  0.6711  1.4482
 9959SOL    HW232832   5.184   0.000   2.997 -0.7449 -0.4885  0.2217
 9960SOL     OW32833   0.379   1.867   4.939  0.0893 -0.3546  0.2162
 9960SOL    HW132834   0.365   1.846   4.847  0.1831 -2.4681  0.6155
 9960SOL    HW232835   0.461   1.822   4.961 -0.5562 -0.9157  1.6009
 9961SOL     OW32836   0.706   5.241   1.415 -0.0858 -0.2468 -0.4963
 9961SOL    HW132837   0.664   5.200   1.339  2.4671  0.2039 -2.2665
 9961SOL    HW232838   0.782   5.185   1.433  0.0324  0.3521  0.9858
 9962SOL     OW32839   4.974   6.940   4.349 -0.1195 -1.0808 -0.1485
 9962SOL    HW132840   4.949   6.868   4.407  0.3606 -1.1478 -0.0250
 9962SOL    HW232841   5.066   6.924   4.329  0.0449 -0.3964  0.0311
 9963SOL     OW32842   0.476   2.375   0.210 -0.2210  0.3582  0.7120
 9963SOL    HW132843   0.549   2.313   0.206  1.2479  2.0898 -2.2460
 9963SOL    HW232844   0.401   2.327   0.175  0.9069  0.1775 -1.6075
 9964SOL     OW32845   5.251   0.044   2.836 -0.1747  0.2170  0.1343
 9964SOL    HW132846   5.248   0.029   2.742 -0.2001 -0.1392  0.1904
 9964SOL    HW232847   5.340   0.019   2.861 -0.9434 -2.2328  0.6204
 9965SOL     OW32848   5.111   4.239   1.909  0.0348 -0.1065  0.3637
 9965SOL    HW132849   5.153   4.324   1.894 -0.4365  1.0621  4.3691
 9965SOL    HW232850   5.167   4.196   1.974 -1.0221 -1.8014  0.2002
 9966SOL     OW32851   2.588   6.535   3.846 -0.1930  0.1407 -0.2680
 9966SOL    HW132852   2.645   6.458   3.848 -0.8786 -0.4571 -1.8757
 9966SOL    HW232853   2.593   6.566   3.755 -1.3403  0.9144 -0.0854
 9967SOL     OW32854   1.456   5.994   1.075  0.8671 -0.3938 -0.1652
 9967SOL    HW132855   1.370   5.976   1.113  0.3548  1.9697 -0.0463
 9967SOL    HW232856   1.515   5.933   1.119 -0.4199 -0.6768  1.2546
 9968SOL     OW32857   2.463   2.859   5.630  0.3025 -0.3625 -0.4360
 9968SOL    HW132858   2.524   2.799   5.587  1.8952  0.8806 -0.0134
 9968SOL    HW232859   2.421   2.906   5.558 -0.6706 -1.6629 -0.7530
 9969SOL     OW32860   1.388   4.408   0.004  0.4795  0.4147 -0.0885
 9969SOL    HW132861   1.332   4.470   0.052  1.1737  0.4630  0.6862
 9969SOL    HW232862   1.476   4.424   0.038  0.8954  0.0023 -0.9384
 9970SOL     OW32863   5.122   1.690   7.196 -0.4214  0.1892  0.0234
 9970SOL    HW132864   5.186   1.734   7.139  0.4103  0.1567  0.8981
 9970SOL    HW232865   5.064   1.643   7.136  0.4490  0.1371 -0.7966
 9971SOL     OW32866   3.266   7.223   3.135 -0.3139  0.4919 -0.1884
 9971SOL    HW132867   3.347   7.212   3.086 -1.6371 -0.1933 -2.3365
 9971SOL    HW232868   3.221   7.295   3.091 -1.0200  0.7090  0.8386
 9972SOL     OW32869   7.413   1.728   4.631  0.1961  0.2257  0.1957
 9972SOL    HW132870   7.346   1.783   4.671  0.4025  0.4507  0.2319
 9972SOL    HW232871   7.377   1.704   4.546 -0.1303 -0.0367  0.4050
 9973SOL     OW32872   6.690   3.572   4.009 -0.4938 -0.0449 -0.1053
 9973SOL    HW132873   6.649   3.543   3.927 -1.2577  2.2307 -0.6163
 9973SOL    HW232874   6.621   3.566   4.075 -0.9735  1.3852 -0.4262
 9974SOL     OW32875   3.518   7.573   4.533 -0.2989 -0.2329 -0.8808
 9974SOL    HW132876   3.558   7.600   4.450  1.3649  1.6148  0.4417
 9974SOL    HW232877   3.589   7.527   4.579 -0.8158 -0.1388  0.0251
 9975SOL     OW32878   4.906   5.392   4.741 -0.7733 -0.5213 -0.3268
 9975SOL    HW132879   5.000   5.403   4.752 -1.1029  2.3448  0.5759
 9975SOL    HW232880   4.881   5.461   4.679 -2.1893 -1.7824 -1.2298
 9976SOL     OW32881   5.629   3.742   0.715 -0.4504 -0.1956 -0.4719
 9976SOL    HW132882   5.601   3.809   0.652 -2.2860 -0.8062 -0.3514
 9976SOL    HW232883   5.605   3.778   0.800 -0.3696 -0.5039 -0.3180
 9977SOL     OW32884   5.498   7.550   5.065  0.5757 -0.2051  0.7529
 9977SOL    HW132885   5.433   7.614   5.096  2.3985  3.1627 -1.6470
 9977SOL    HW232886   5.573   7.562   5.123  0.3283 -1.5821  1.3950
 9978SOL     OW32887   3.588   4.841   2.909 -0.0544 -0.2000  0.2307
 9978SOL    HW132888   3.523   4.800   2.966  0.3629 -1.1707  0.0231
 9978SOL    HW232889   3.613   4.772   2.848  0.7223  0.3443 -0.0779
 9979SOL     OW32890   5.326   2.539   0.823  0.1612  0.2831  0.2858
 9979SOL    HW132891   5.299   2.479   0.893  1.7535 -1.1467 -0.2526
 9979SOL    HW232892   5.414   2.567   0.848  0.5643  0.1223 -0.8916
 9980SOL     OW32893   6.450   5.142   3.884  0.3057 -0.1796 -0.1886
 9980SOL    HW132894   6.462   5.137   3.979 -2.1529  0.3159  0.2160
 9980SOL    HW232895   6.538   5.127   3.848  0.7705 -4.0513  1.9865
 9981SOL     OW32896   5.076   5.279   3.889  0.7406  0.1004 -0.0530
 9981SOL    HW132897   5.135   5.309   3.819 -0.6312 -0.4737 -1.5106
 9981SOL    HW232898   4.989   5.309   3.861 -0.1917 -2.2584  0.1376
 9982SOL     OW32899   0.364   2.213   5.635 -0.3733  0.3099 -0.2400
 9982SOL    HW132900   0.415   2.247   5.561  0.3513 -1.3403 -0.5439
 9982SOL    HW232901   0.341   2.291   5.686  1.3087  1.2414 -0.8163
 9983SOL     OW32902   1.066   6.485   4.770 -0.7516  0.0098  0.0216
 9983SOL    HW132903   1.113   6.413   4.728  0.1668  0.0899  0.8744
 9983SOL    HW232904   1.083   6.474   4.863  0.0908  1.7952  0.1204
 9984SOL     OW32905   1.412   7.585   6.629 -0.5719  0.2105  0.6022
 9984SOL    HW132906   1.374   7.659   6.674 -3.8498 -1.1263  0.3150
 9984SOL    HW232907   1.409   7.513   6.692  1.1622 -0.1082  0.3926
 9985SOL     OW32908   0.669   0.981   6.774 -0.4737 -0.5601 -0.8930
 9985SOL    HW132909   0.747   0.928   6.793 -0.1984  0.0914 -0.1357
 9985SOL    HW232910   0.597   0.918   6.772 -0.2364 -0.9143  0.5628
 9986SOL     OW32911   2.450   1.341   4.197 -0.7543  0.2161 -0.2392
 9986SOL    HW132912   2.395   1.413   4.165 -1.1446  0.5097  1.0276
 9986SOL    HW232913   2.459   1.358   4.291  2.0227  0.5259 -0.4688
 9987SOL     OW32914   6.062   3.306   4.880  0.1077 -0.4060  0.6344
 9987SOL    HW132915   6.126   3.377   4.865 -2.0384  1.7757  1.1686
 9987SOL    HW232916   6.001   3.314   4.807 -1.5620 -0.0225  2.0174
 9988SOL     OW32917   6.632   6.573   4.762  0.5222  0.1411  0.5809
 9988SOL    HW132918   6.705   6.553   4.819  0.7407 -1.3395 -0.1750
 9988SOL    HW232919   6.610   6.664   4.782  2.1588  0.4173  1.2514
 9989SOL     OW32920   1.659   4.343   7.883  0.3212 -0.0168 -0.1047
 9989SOL    HW132921   1.741   4.387   7.902  0.4315 -0.0521 -0.4917
 9989SOL    HW232922   1.595   4.413   7.873  0.4669  0.0558 -0.5768
 9990SOL     OW32923   1.392   5.827   7.052  0.3825  0.7758 -0.9117
 9990SOL    HW132924   1.480   5.863   7.045  0.4323  1.3246  1.5718
 9990SOL    HW232925   1.340   5.899   7.089 -0.8948  0.1768 -1.4937
 9991SOL     OW32926   6.831   8.074   6.240 -0.3831  0.1727 -0.2626
 9991SOL    HW132927   6.849   8.088   6.147 -1.0658 -1.6132 -0.6867
 9991SOL    HW232928   6.740   8.102   6.252 -0.4381 -0.0225 -0.2243
 9992SOL     OW32929   1.479   7.179   3.341 -0.2132 -0.5050  0.1641
 9992SOL    HW132930   1.415   7.227   3.393 -0.6614 -1.1540  0.2189
 9992SOL    HW232931   1.524   7.246   3.290 -1.2229 -0.0841 -0.1929
 9993SOL     OW32932   2.203   6.423   7.507  0.6433 -0.1386  0.0552
 9993SOL    HW132933   2.202   6.388   7.596  0.8978  0.7040  0.3928
 9993SOL    HW232934   2.285   6.392   7.470  1.0612  0.4382  0.4905
 9994SOL     OW32935   4.446   7.457   0.551  0.0126  0.7604  0.2812
 9994SOL    HW132936   4.438   7.523   0.621 -0.9828  0.2936  0.6154
 9994SOL    HW232937   4.530   7.414   0.570  0.6168  1.8168  0.1347
 9995SOL     OW32938   3.686   1.882   1.499  0.2355  0.6505 -0.2932
 9995SOL    HW132939   3.759   1.935   1.468  1.6396 -1.4702 -0.7746
 9995SOL    HW232940   3.715   1.849   1.584  0.1856 -0.8280 -0.8328
 9996SOL     OW32941   7.687   6.900   0.149 -0.1458 -0.3738 -0.3057
 9996SOL    HW132942   7.648   6.815   0.171  0.7699 -1.1396 -1.5424
 9996SOL    HW232943   7.720   6.934   0.232 -0.6807 -1.1353  0.2309
 9997SOL     OW32944   7.040   7.519   0.962 -0.5146  0.1992 -0.5437
 9997SOL    HW132945   7.046   7.447   0.899  0.0486 -0.9793  0.8126
 9997SOL    HW232946   6.991   7.482   1.035  1.0361  0.7242  0.7984
 9998SOL     OW32947   1.791   1.874   4.905  0.0519  0.5486  0.2437
 9998SOL    HW132948   1.879   1.851   4.877 -0.3958  0.4762 -1.1861
 9998SOL    HW232949   1.736   1.803   4.871 -0.7464  1.3678 -0.2387
 9999SOL     OW32950   2.633   7.617   7.644  0.4232 -0.0599  0.1381
 9999SOL    HW132951   2.618   7.674   7.569  1.5328 -0.6773 -0.5801
 9999SOL    HW232952   2.674   7.675   7.709 -1.2307  0.6596  0.6009
10000SOL     OW32953   7.672   1.889   7.289  0.1428 -0.4062  0.5581
10000SOL    HW132954   7.705   1.800   7.301  0.1736 -0.7335 -1.6061
10000SOL    HW232955   7.741   1.934   7.240 -0.8609  0.1336 -0.3906
10001SOL     OW32956   6.726   0.692   4.213 -0.0692 -0.1596  0.4384
10001SOL    HW132957   6.642   0.670   4.252  0.4789 -1.5768  0.8660
10001SOL    HW232958   6.711   0.687   4.119  0.0679 -2.7238  0.4975
10002SOL     OW32959   1.174   4.105   6.167  0.3356 -0.1731  0.1628
10002SOL    HW132960   1.141   4.072   6.250  0.5096  1.3478  0.8803
10002SOL    HW232961   1.262   4.067   6.159  0.8309  0.6576  1.3356
10003SOL     OW32962   6.889   5.149   0.531 -0.1734 -0.1147  0.4081
10003SOL    HW132963   6.871   5.204   0.455 -1.0824  0.0695  0.7430
10003SOL    HW232964   6.976   5.113   0.515 -0.6388 -0.6604 -1.0728
10004SOL     OW32965   6.105   6.886   4.003  0.0178 -0.1396 -0.2699
10004SOL    HW132966   6.156   6.926   3.933  0.4012 -0.2774 -0.0704
10004SOL    HW232967   6.125   6.938   4.081  0.3555 -0.5806 -0.0535
10005SOL     OW32968   7.737   6.948   7.760  0.1194  0.7841  0.8193
10005SOL    HW132969   7.742   6.995   7.677  0.1656  0.0759  0.4181
10005SOL    HW232970   7.644   6.925   7.768  0.3330 -0.2936  0.3156
10006SOL     OW32971   0.633   1.882   3.795  0.0842 -0.3207  0.9995
10006SOL    HW132972   0.605   1.934   3.870  0.0408 -0.9556  1.4268
10006SOL    HW232973   0.690   1.815   3.832  2.4943  1.1109  0.1379
10007SOL     OW32974   6.144   5.043   1.071 -0.4467  0.8175  0.0659
10007SOL    HW132975   6.198   4.984   1.124  0.0188  0.5089 -0.7319
10007SOL    HW232976   6.081   5.080   1.132  0.2935  0.7263  0.8963
10008SOL     OW32977   6.539   1.896   3.244 -1.0716 -0.1615 -0.5920
10008SOL    HW132978   6.634   1.902   3.257 -1.1289 -1.2037  0.4693
10008SOL    HW232979   6.506   1.857   3.325 -2.7346  2.4320  0.1229
10009SOL     OW32980   0.366   2.196   3.616 -0.3396 -0.6073  0.6358
10009SOL    HW132981   0.306   2.257   3.574 -0.6068 -1.0302  0.4037
10009SOL    HW232982   0.321   2.169   3.696  0.3678  0.5682  1.4699
10010SOL     OW32983   3.169   2.577   1.543  0.1127  0.4462 -0.9287
10010SOL    HW132984   3.211   2.491   1.542  0.2246  0.4493  0.7587
10010SOL    HW232985   3.149   2.595   1.451 -1.7556 -2.2714 -1.1741
10011SOL     OW32986   6.195   5.662   4.580  0.3070  0.1631 -0.8648
10011SOL    HW132987   6.114   5.612   4.583 -0.3265  1.1867  0.4579
10011SOL    HW232988   6.263   5.600   4.606 -0.2569 -0.3757 -0.6551
10012SOL     OW32989   4.215   3.886   2.415 -0.0220  0.2913  0.6173
10012SOL    HW132990   4.170   3.959   2.372  1.7309  1.3678  0.5019
10012SOL    HW232991   4.262   3.842   2.344  0.4068  0.1808  0.9669
10013SOL     OW32992   7.947   1.118   0.008 -0.5327  0.4706  0.0634
10013SOL    HW132993   7.927   1.199  -0.038  3.1294  1.0724 -0.7760
10013SOL    HW232994   7.988   1.145   0.090 -3.5265 -0.6531  2.1359
10014SOL     OW32995   2.928   6.887   0.445 -0.6674  0.3086 -0.2486
10014SOL    HW132996   2.846   6.902   0.493 -0.5207 -0.1032  0.1363
10014SOL    HW232997   2.907   6.817   0.383 -0.7503  0.5729 -0.5214
10015SOL     OW32998   7.184   0.979   0.998  0.2366 -0.2185  0.5754
10015SOL    HW132999   7.168   0.944   0.911  1.6684  1.6112 -0.4934
10015SOL    HW233000   7.111   1.040   1.014 -0.6226 -1.3637  1.1673
10016SOL     OW33001   3.428   0.744   3.429 -0.4342  1.0344 -0.2142
10016SOL    HW133002   3.477   0.686   3.487 -1.6794 -0.2021 -0.3355
10016SOL    HW233003   3.345   0.699   3.415 -0.3153  1.4424 -2.6717
10017SOL     OW33004   2.748   2.057   2.278 -0.1888 -0.2884  0.5774
10017SOL    HW133005   2.739   1.975   2.229  1.4113 -0.6221  0.7594
10017SOL    HW233006   2.748   2.031   2.370  1.8979 -0.3449  0.6181
10018SOL     OW33007   7.885   1.482   2.136 -0.4150  0.0313  0.3642
10018SOL    HW133008   7.866   1.398   2.093 -0.2177  0.5248 -0.7280
10018SOL    HW233009   7.950   1.523   2.079 -2.0849  1.8819 -0.3149
10019SOL     OW33010   0.822   7.999   2.469 -0.2190 -0.4526  0.1077
10019SOL    HW133011   0.835   7.940   2.395 -1.6477 -1.2729  0.4582
10019SOL    HW233012   0.862   8.081   2.443 -0.2273 -0.8983 -1.3545
10020SOL     OW33013   5.965   2.701   3.733 -0.1235 -0.0130  0.2557
10020SOL    HW133014   6.043   2.755   3.742 -0.0769  0.1269 -0.8406
10020SOL    HW233015   5.997   2.614   3.712 -0.2578  0.3434 -1.5986
10021SOL     OW33016   2.710   3.958   2.926  0.0264 -0.1145  0.3583
10021SOL    HW133017   2.794   3.981   2.966  1.3439 -1.0985 -1.6274
10021SOL    HW233018   2.686   4.035   2.875  0.5328 -0.3320 -0.2379
10022SOL     OW33019   4.871   0.305   3.471  0.2205  0.3031  0.2069
10022SOL    HW133020   4.918   0.255   3.537 -0.8051 -0.7840  0.1343
10022SOL    HW233021   4.807   0.356   3.520  0.7149  0.9497  0.2026
10023SOL     OW33022   0.624   7.561   1.059  0.0543  0.7269  0.0267
10023SOL    HW133023   0.567   7.622   1.012 -1.3004 -0.2857  0.3284
10023SOL    HW233024   0.708   7.608   1.065 -0.4670  1.8933 -1.1727
10024SOL     OW33025   2.402   6.632   8.032  0.8520 -0.7307  0.3543
10024SOL    HW133026   2.447   6.595   8.108  0.3032 -2.0947  0.0413
10024SOL    HW233027   2.467   6.631   7.962  1.2938  0.3309  0.7293
10025SOL     OW33028   0.031   3.501   2.932  0.0516 -0.1068  0.1505
10025SOL    HW133029   0.091   3.465   2.867 -1.2725 -0.0970 -1.1255
10025SOL    HW233030   0.014   3.429   2.993  2.7366  0.3947  1.6544
10026SOL     OW33031   0.286   4.109   7.417 -0.1169 -0.3407  0.2140
10026SOL    HW133032   0.209   4.106   7.360 -0.7213  1.5913  0.8242
10026SOL    HW233033   0.347   4.046   7.379 -0.8279  0.2383 -2.0531
10027SOL     OW33034   4.363   1.788   1.732  0.0550  0.7553 -0.0100
10027SOL    HW133035   4.452   1.807   1.703 -0.1369  0.8873 -0.5298
10027SOL    HW233036   4.367   1.794   1.827  0.1516  2.8345 -0.0911
10028SOL     OW33037   1.194   8.121   0.755  0.0807 -0.1346 -0.1658
10028SOL    HW133038   1.183   8.170   0.836  0.5412 -2.0418  1.0965
10028SOL    HW233039   1.244   8.179   0.698  0.4077  0.9477  1.1868
10029SOL     OW33040   6.483   5.135   0.498  0.9135 -0.8551 -0.0263
10029SOL    HW133041   6.406   5.093   0.460  0.5399  0.2504 -0.5428
10029SOL    HW233042   6.552   5.070   0.490  0.8518 -0.7270 -2.6164
10030SOL     OW33043   6.677   0.411   1.253 -0.3679 -0.1444 -0.3817
10030SOL    HW133044   6.724   0.329   1.237  2.9999  1.8736 -1.8687
10030SOL    HW233045   6.672   0.418   1.348  0.9248 -1.2177 -0.2064
10031SOL     OW33046   0.929   1.407   1.396  0.0784 -0.3570  0.7483
10031SOL    HW133047   1.010   1.431   1.442  1.4815 -0.8345 -1.3585
10031SOL    HW233048   0.890   1.338   1.451  2.3754 -1.8512  0.6558
10032SOL     OW33049   6.574   1.469   2.687 -0.2068 -0.7427 -0.4631
10032SOL    HW133050   6.554   1.391   2.636  1.7386 -0.0909 -2.3888
10032SOL    HW233051   6.511   1.534   2.656 -0.2747 -0.8800 -0.6164
10033SOL     OW33052   2.847   1.332   5.678 -0.4568 -0.2104  0.1802
10033SOL    HW133053   2.870   1.272   5.607 -0.0756 -0.5651  0.5972
10033SOL    HW233054   2.759   1.305   5.705  0.0749 -1.2413  1.0100
10034SOL     OW33055   4.500   7.453   7.232  0.0743 -0.3115  0.1664
10034SOL    HW133056   4.503   7.549   7.227  1.5970 -0.3295  0.2857
10034SOL    HW233057   4.575   7.430   7.286 -0.5458 -1.5637  0.5331
10035SOL     OW33058   1.957   2.492   7.527 -0.0169  0.1306  0.1775
10035SOL    HW133059   1.982   2.506   7.435 -1.2269 -0.6167 -0.3002
10035SOL    HW233060   1.866   2.523   7.531 -0.0458 -0.0625  1.0642
10036SOL     OW33061   2.548   2.552   2.707  0.2615 -0.5854  0.0452
10036SOL    HW133062   2.459   2.575   2.734  0.8760  1.4267  0.4960
10036SOL    HW233063   2.550   2.572   2.613 -0.0207 -1.6169 -0.2036
10037SOL     OW33064   7.842   2.621   1.596  0.0888 -0.3562  0.1109
10037SOL    HW133065   7.817   2.555   1.532  1.7834 -0.0253 -0.9533
10037SOL    HW233066   7.930   2.595   1.624  0.1003  0.5277  0.9446
10038SOL     OW33067   0.147   6.879   7.264 -0.0163 -0.2880  0.3750
10038SOL    HW133068   0.213   6.819   7.298  0.1393 -1.1195 -1.3254
10038SOL    HW233069   0.196   6.940   7.208 -0.4896  0.0021  0.2686
10039SOL     OW33070   3.119   0.497   6.767 -0.1825  0.5492 -0.2994
10039SOL    HW133071   3.167   0.565   6.720  0.0965  1.6542  1.4948
10039SOL    HW233072   3.027   0.522   6.760 -0.2649  0.0581 -1.2040
10040SOL     OW33073   1.926   5.008   1.096  0.0282 -0.0030  0.0139
10040SOL    HW133074   2.001   5.063   1.121  0.3085 -0.8661  1.1959
10040SOL    HW233075   1.859   5.070   1.067  0.9623  0.8267 -0.4146
10041SOL     OW33076   0.491   5.961   7.042  0.0041  0.1648  0.1627
10041SOL    HW133077   0.567   5.904   7.032  0.0923  0.0953  1.0846
10041SOL    HW233078   0.492   5.986   7.135 -0.6838  0.7446  0.0247
10042SOL     OW33079   1.666   0.229   5.633  0.4143  0.7771  0.1813
10042SOL    HW133080   1.751   0.232   5.678  0.4224  0.0594  0.2250
10042SOL    HW233081   1.613   0.295   5.677  0.1966 -0.3789  1.7349
10043SOL     OW33082   6.855   3.609   0.406 -0.3540 -0.0096  0.5682
10043SOL    HW133083   6.885   3.518   0.402 -2.0244 -0.6909  2.0504
10043SOL    HW233084   6.760   3.604   0.393 -0.4627  1.5551  0.5176
10044SOL     OW33085   1.581   1.407   5.898  0.6196  0.4722  0.5416
10044SOL    HW133086   1.579   1.426   5.804  0.1114  0.8697  0.6303
10044SOL    HW233087   1.574   1.312   5.903 -0.6775  0.5329  0.2123
10045SOL     OW33088   7.258   4.239   4.411 -0.8538 -0.2598  0.2902
10045SOL    HW133089   7.242   4.177   4.483 -1.0942 -0.0339  0.4293
10045SOL    HW233090   7.231   4.191   4.333 -0.7908 -0.4275  0.3685
10046SOL     OW33091   4.232   1.263   4.354 -0.3648 -0.1843  0.2852
10046SOL    HW133092   4.214   1.171   4.336 -0.3368 -0.2255  0.4672
10046SOL    HW233093   4.312   1.282   4.305  0.0408 -0.4528  0.8380
10047SOL     OW33094   3.369   3.784   0.967  0.2068 -0.5545  0.0949
10047SOL    HW133095   3.399   3.874   0.979 -0.9328 -0.1454  0.0222
10047SOL    HW233096   3.416   3.734   1.033  1.2522 -0.0047 -0.2138
10048SOL     OW33097   3.149   2.964   5.364 -0.5684 -0.3491  0.0221
10048SOL    HW133098   3.147   2.869   5.363  0.0760 -0.3663  0.0846
10048SOL    HW233099   3.209   2.988   5.293  0.3344 -0.0429  0.8584
10049SOL     OW33100   1.761   2.456   7.887 -0.8998  0.7499  0.0554
10049SOL    HW133101   1.748   2.529   7.826 -0.8822 -0.5946 -1.6276
10049SOL    HW233102   1.851   2.427   7.871 -1.2654 -0.3336 -0.0972
10050SOL     OW33103   2.005   7.784   1.256  0.3451 -0.1729  0.7051
10050SOL    HW133104   2.027   7.728   1.330 -0.4740 -2.0629 -0.4310
10050SOL    HW233105   2.031   7.872   1.285  0.4224 -0.8965  3.0615
10051SOL     OW33106   4.189   4.635   6.739 -0.3880 -0.1418  0.1268
10051SOL    HW133107   4.171   4.542   6.727  0.4084 -0.3309  0.3612
10051SOL    HW233108   4.186   4.671   6.651 -0.6971 -0.3890  0.0344
10052SOL     OW33109   5.555   5.624   7.523 -0.0061 -0.2614  0.1953
10052SOL    HW133110   5.598   5.676   7.591  1.5370 -1.9995  0.6047
10052SOL    HW233111   5.538   5.687   7.453  2.4306  0.6925  0.3684
10053SOL     OW33112   4.169   6.230   0.832 -0.6010  0.0902 -0.0611
10053SOL    HW133113   4.251   6.258   0.791 -0.8351  1.3003  0.2758
10053SOL    HW233114   4.117   6.196   0.759 -0.2262  0.3382 -0.4526
10054SOL     OW33115   6.744   4.873   1.689  0.1708 -0.1702 -0.4253
10054SOL    HW133116   6.659   4.891   1.647 -0.7102 -0.0076  1.3372
10054SOL    HW233117   6.806   4.872   1.616 -1.3604 -0.5101 -1.8144
10055SOL     OW33118   4.605   1.041   3.648  0.5562  0.3049  0.3141
10055SOL    HW133119   4.595   1.065   3.556 -0.7259 -0.1546  0.3094
10055SOL    HW233120   4.660   1.110   3.685  4.4268 -1.4684 -1.5826
10056SOL     OW33121   5.618   2.480   1.202  0.3089 -0.0599 -0.1495
10056SOL    HW133122   5.705   2.439   1.207  0.0588 -0.6540 -0.5733
10056SOL    HW233123   5.560   2.409   1.176  0.2685  1.0572 -3.5522
10057SOL     OW33124   0.050   1.469   3.691 -0.2025  0.3065  0.0794
10057SOL    HW133125   0.099   1.462   3.608 -1.8417 -1.7761 -0.8069
10057SOL    HW233126   0.021   1.560   3.693 -0.1820  0.3990 -1.6834
10058SOL     OW33127   1.326   1.668   7.915 -0.3106  0.4191 -0.1987
10058SOL    HW133128   1.375   1.746   7.888 -1.0649  0.6322 -0.9962
10058SOL    HW233129   1.266   1.700   7.982 -1.5313  0.8195 -1.4430
10059SOL     OW33130   3.494   4.369   0.096  0.2391 -0.7682  0.3227
10059SOL    HW133131   3.534   4.454   0.119  1.5374 -0.6029 -2.2452
10059SOL    HW233132   3.465   4.334   0.180  1.7623  1.1715  1.7769
10060SOL     OW33133   0.298   7.997   7.808  0.0908 -0.4453 -0.6211
10060SOL    HW133134   0.328   8.038   7.890 -2.0145 -1.2298  0.6116
10060SOL    HW233135   0.249   8.065   7.763 -0.9046 -0.7292  0.0126
10061SOL     OW33136   5.362   1.271   5.398 -0.3211 -0.0170 -0.2390
10061SOL    HW133137   5.382   1.183   5.430 -0.1655 -0.6811 -2.0285
10061SOL    HW233138   5.278   1.261   5.353 -0.6326  0.9179  0.1237
10062SOL     OW33139   3.670   0.771   4.085  0.1697 -0.2951  0.8595
10062SOL    HW133140   3.757   0.797   4.113  1.0356 -1.5363 -0.5436
10062SOL    HW233141   3.667   0.676   4.100 -0.2874 -0.5529 -0.7187
10063SOL     OW33142   4.131   5.740   1.225 -0.0745 -0.1956 -0.3445
10063SOL    HW133143   4.049   5.698   1.199  0.4724 -0.8817 -1.0048
10063SOL    HW233144   4.200   5.681   1.193  0.6703 -0.2552  1.2615
10064SOL     OW33145   2.115   7.409   1.172  0.7223  0.4812 -0.7544
10064SOL    HW133146   2.030   7.446   1.147  1.3920  2.9284  0.3104
10064SOL    HW233147   2.179   7.472   1.138  1.9358  0.4202  1.2797
10065SOL     OW33148   1.372   3.475   1.297 -0.2208  0.0730  0.4022
10065SOL    HW133149   1.379   3.420   1.219 -0.9102  0.5349  0.0051
10065SOL    HW233150   1.365   3.564   1.263  0.6722  0.4048  1.0333
10066SOL     OW33151   5.188   6.517   1.492  0.5492  0.0282 -0.0027
10066SOL    HW133152   5.255   6.539   1.557  0.6469 -0.1088 -0.0576
10066SOL    HW233153   5.204   6.425   1.471  0.0811 -0.1245  0.2946
10067SOL     OW33154   4.937   2.452   7.512 -0.3166  0.9288  0.2041
10067SOL    HW133155   5.028   2.431   7.492 -0.6234 -1.5480  1.0172
10067SOL    HW233156   4.888   2.420   7.436 -0.6106  0.9083  0.3998
10068SOL     OW33157   5.118   1.424   6.014 -0.3557 -0.9259  0.4529
10068SOL    HW133158   5.143   1.371   6.089  0.2593 -1.6663 -0.2558
10068SOL    HW233159   5.172   1.390   5.942 -0.1654  0.4663 -0.0838
10069SOL     OW33160   1.330   7.727   5.102  0.2507 -0.0235  0.2487
10069SOL    HW133161   1.259   7.699   5.044 -0.6761 -0.1202  1.3814
10069SOL    HW233162   1.381   7.648   5.118 -1.4441 -0.8250  2.1868
10070SOL     OW33163   7.880   1.879   6.191 -0.0958 -0.2082 -0.0652
10070SOL    HW133164   7.800   1.851   6.235  0.2000 -2.1413 -0.6747
10070SOL    HW233165   7.852   1.905   6.104 -0.4552  2.1100  0.6844
10071SOL     OW33166   2.978   1.373   0.535  0.3913 -0.8994  0.2022
10071SOL    HW133167   2.908   1.317   0.501 -2.3309  1.3964  1.5173
10071SOL    HW233168   2.976   1.450   0.478  0.2979  0.1353  1.5584
10072SOL     OW33169   5.100   0.822   1.705  0.1160  0.6620  0.1170
10072SOL    HW133170   5.195   0.828   1.719  0.2495  1.5635 -1.0100
10072SOL    HW233171   5.066   0.902   1.743 -0.1224  0.6153 -0.0004
10073SOL     OW33172   6.932   2.272   2.855  0.0791  0.6840  0.0210
10073SOL    HW133173   6.992   2.199   2.841 -0.0916  0.4421  0.5259
10073SOL    HW233174   6.845   2.236   2.836  0.0440  0.9059 -0.2522
10074SOL     OW33175   0.375   0.709   1.928  0.3993  0.1840 -0.6849
10074SOL    HW133176   0.344   0.719   2.018  2.6527  1.6710  0.0101
10074SOL    HW233177   0.417   0.623   1.927 -2.4703 -1.3515 -1.3361
10075SOL     OW33178   5.555   7.621   0.615 -0.2093 -0.2052  0.2444
10075SOL    HW133179   5.618   7.607   0.544 -0.0412 -3.3719  0.8489
10075SOL    HW233180   5.600   7.679   0.676  0.7989  0.2036 -0.8409
10076SOL     OW33181   5.947   7.725   4.035 -0.2988 -0.0195  0.4296
10076SOL    HW133182   5.925   7.762   4.120 -0.5927 -0.2787  0.4688
10076SOL    HW233183   5.993   7.795   3.989 -0.0693  0.0949  0.8300
10077SOL     OW33184   6.676   6.895   2.374 -0.3196 -0.5169  0.5828
10077SOL    HW133185   6.650   6.895   2.466  0.3760  0.1339  0.7918
10077SOL    HW233186   6.716   6.809   2.361 -0.5501 -0.6667  0.8537
10078SOL     OW33187   0.151   7.192   5.780  0.2786  0.4819 -0.3533
10078SOL    HW133188   0.217   7.216   5.715  2.6927  0.1370  1.8100
10078SOL    HW233189   0.150   7.096   5.779 -1.4651  0.4620 -1.4828
10079SOL     OW33190   4.935   4.279   7.611  0.2909 -0.2185 -0.0460
10079SOL    HW133191   4.850   4.303   7.572  0.3332  2.3601  1.2109
10079SOL    HW233192   4.997   4.284   7.538 -0.3943 -0.5724 -0.6655
10080SOL     OW33193   5.870   6.771   5.983  0.1246  0.3286  0.3691
10080SOL    HW133194   5.933   6.788   5.913 -0.1767  0.3314  0.0975
10080SOL    HW233195   5.920   6.783   6.063  0.5691 -0.0379  0.1507
10081SOL     OW33196   1.020   6.219   6.411  0.5451 -0.3433  0.0230
10081SOL    HW133197   0.951   6.223   6.478  1.4565 -2.7239  1.2496
10081SOL    HW233198   1.081   6.153   6.444  1.7438 -0.6491 -2.5619
10082SOL     OW33199   6.403   6.329   1.792  0.2772 -0.5152  0.0586
10082SOL    HW133200   6.357   6.246   1.808  0.3680 -0.4031  0.9044
10082SOL    HW233201   6.343   6.378   1.735 -1.1346  0.0089  1.8838
10083SOL     OW33202   7.571   4.557   1.561 -0.1725  0.2340  0.0353
10083SOL    HW133203   7.632   4.610   1.612  0.6119 -1.9477  1.5360
10083SOL    HW233204   7.532   4.497   1.625 -3.0672  0.7643 -1.0932
10084SOL     OW33205   4.895   5.732   7.533  0.0182 -0.0858 -0.2705
10084SOL    HW133206   4.837   5.697   7.466  0.1738 -1.0763  0.0932
10084SOL    HW233207   4.914   5.822   7.504 -0.5697 -0.2200 -1.1111
10085SOL     OW33208   6.593   6.278   3.663 -0.3241 -0.1912  0.2871
10085SOL    HW133209   6.634   6.346   3.610  0.4778 -0.5905  0.3731
10085SOL    HW233210   6.521   6.322   3.709 -0.1825  0.4553 -0.1107
10086SOL     OW33211   6.180   4.531   4.049  0.8452 -0.0635 -0.0710
10086SOL    HW133212   6.271   4.503   4.038  0.5756 -0.9054 -0.2942
10086SOL    HW233213   6.145   4.533   3.960  0.2470 -1.2090  0.1165
10087SOL     OW33214   5.626   6.265   7.476 -0.0481 -0.1579  0.3142
10087SOL    HW133215   5.715   6.257   7.512 -0.1034 -1.0591  0.2539
10087SOL    HW233216   5.639   6.280   7.383  0.0343 -0.4191  0.2847
10088SOL     OW33217   2.434   2.710   3.118  0.2780 -0.2001  0.6149
10088SOL    HW133218   2.474   2.634   3.161 -0.3676  0.0435  1.6902
10088SOL    HW233219   2.489   2.726   3.042  0.9529 -1.1929  0.8684
10089SOL     OW33220   5.701   6.429   0.737  0.4512 -0.2148  0.0317
10089SOL    HW133221   5.629   6.492   0.744 -0.1612 -0.8641 -0.3390
10089SOL    HW233222   5.780   6.484   0.731 -0.0528  0.5146 -0.1084
10090SOL     OW33223   3.151   1.699   5.241  0.2732  0.8751 -0.4180
10090SOL    HW133224   3.225   1.702   5.302 -0.3158  1.4511  0.2922
10090SOL    HW233225   3.152   1.610   5.207  0.6579  0.5555  0.3913
10091SOL     OW33226   4.286   8.034   6.086 -0.2864 -0.7309 -0.1974
10091SOL    HW133227   4.288   8.061   6.178 -2.0213  0.2960 -0.4147
10091SOL    HW233228   4.300   8.115   6.037 -0.2355 -1.1303 -0.8525
10092SOL     OW33229   1.239   5.812   0.855  0.5815 -0.1768  0.1265
10092SOL    HW133230   1.253   5.835   0.947  0.6275 -0.4977  0.2017
10092SOL    HW233231   1.323   5.774   0.827  0.2759 -0.9179  0.2093
10093SOL     OW33232   3.902   3.502   3.879 -0.0189  0.3150  0.6212
10093SOL    HW133233   3.814   3.530   3.904 -0.0064  1.5573 -0.6068
10093SOL    HW233234   3.935   3.454   3.955 -2.0206 -0.8254  0.8175
10094SOL     OW33235   4.212   1.680   0.892 -0.0769 -0.5537 -0.1380
10094SOL    HW133236   4.231   1.735   0.968 -0.0907 -0.3231 -0.3006
10094SOL    HW233237   4.139   1.723   0.849 -2.7504 -2.7457  1.8379
10095SOL     OW33238   1.252   4.550   1.880 -0.3826 -0.8005 -0.6676
10095SOL    HW133239   1.339   4.510   1.873 -0.3044 -1.2259  1.9072
10095SOL    HW233240   1.233   4.581   1.791  1.5961 -2.3111 -1.6910
10096SOL     OW33241   0.602   6.176   1.546 -0.0329 -0.5228 -0.6484
10096SOL    HW133242   0.661   6.132   1.484 -0.1492 -0.0817 -1.0777
10096SOL    HW233243   0.545   6.107   1.578 -0.7950 -0.5455 -1.9858
10097SOL     OW33244   7.745   4.424   6.157 -0.1705  0.1737  0.4437
10097SOL    HW133245   7.839   4.406   6.159 -0.3881 -0.9487  1.1010
10097SOL    HW233246   7.731   4.468   6.073  0.6472 -1.4119 -0.5826
10098SOL     OW33247   3.583   3.496   7.942  0.1840  0.3840 -0.3561
10098SOL    HW133248   3.533   3.460   7.868 -0.2247 -0.1810  0.1810
10098SOL    HW233249   3.672   3.505   7.908  0.0819 -0.2320 -0.8073
10099SOL     OW33250   5.209   5.753   1.032 -0.0233  0.3492 -0.0632
10099SOL    HW133251   5.156   5.730   1.108 -0.2113  0.6802 -0.0935
10099SOL    HW233252   5.298   5.728   1.057 -0.1586  0.0056  0.0752
10100SOL     OW33253   2.341   7.105   3.465  0.2115  0.6224 -0.3897
10100SOL    HW133254   2.386   7.152   3.535  2.4838 -1.1580 -0.5414
10100SOL    HW233255   2.273   7.054   3.510  1.3037 -0.1035  0.4754
10101SOL     OW33256   5.163   3.024   5.051 -0.1944 -0.1432 -0.9100
10101SOL    HW133257   5.161   2.943   5.101 -1.5337  0.9797  0.9794
10101SOL    HW233258   5.256   3.050   5.052 -0.1421 -0.2276  0.9558
10102SOL     OW33259   2.571   7.102   6.011  0.2136 -0.1275 -0.0600
10102SOL    HW133260   2.537   7.015   6.032 -0.4545  0.0919 -0.1994
10102SOL    HW233261   2.534   7.159   6.078 -0.3525  0.2517 -0.6797
10103SOL     OW33262   2.426   1.437   4.758  0.0568  0.0582 -0.1046
10103SOL    HW133263   2.377   1.374   4.811 -0.4118 -0.1860 -0.8033
10103SOL    HW233264   2.394   1.523   4.787  1.2300  0.0272  1.3621
10104SOL     OW33265   0.937   2.536   7.680 -0.8166 -0.2130  0.0224
10104SOL    HW133266   0.879   2.611   7.677  0.6765  0.9866 -0.0335
10104SOL    HW233267   0.994   2.552   7.755 -0.2755 -1.1378 -0.1717
10105SOL     OW33268   3.666   2.485   2.777 -0.5756  0.3839 -0.2152
10105SOL    HW133269   3.624   2.436   2.847 -1.6114  0.8081 -0.5156
10105SOL    HW233270   3.758   2.492   2.803 -1.0120  0.8393  1.2735
10106SOL     OW33271   0.528   1.564   0.437  0.2536  0.5630  0.6014
10106SOL    HW133272   0.461   1.560   0.505 -0.8632 -0.0758 -0.4995
10106SOL    HW233273   0.486   1.610   0.364  0.6608 -0.6712 -0.4535
10107SOL     OW33274   1.453   0.686   6.871  0.1328 -0.2111  0.1955
10107SOL    HW133275   1.426   0.652   6.956 -0.0282 -2.1347 -0.5768
10107SOL    HW233276   1.481   0.776   6.889 -2.9006  0.5459  1.7195
10108SOL     OW33277   5.986   6.927   2.888  0.5088 -0.1495  0.2576
10108SOL    HW133278   6.066   6.979   2.899  0.0776  0.3111  1.3829
10108SOL    HW233279   6.017   6.840   2.864  1.2566  0.5231 -1.3650
10109SOL     OW33280   1.276   7.818   4.449  0.4419 -0.1505  0.4245
10109SOL    HW133281   1.256   7.754   4.518  1.2975  0.1740  0.9943
10109SOL    HW233282   1.227   7.788   4.373 -0.2615 -0.7085  1.0813
10110SOL     OW33283   7.419   3.330   7.097  0.3624 -0.4199 -0.0923
10110SOL    HW133284   7.362   3.260   7.067 -1.6851  0.9722  0.3936
10110SOL    HW233285   7.440   3.306   7.188 -1.5095  0.2341  0.5649
10111SOL     OW33286   5.480   4.674   0.841 -0.6136  0.5369  0.2991
10111SOL    HW133287   5.541   4.714   0.903  0.1124  2.2482 -1.4204
10111SOL    HW233288   5.532   4.607   0.796  0.0126  1.8548 -1.0213
10112SOL     OW33289   3.832   7.114   0.666  0.5050  0.0339  0.4244
10112SOL    HW133290   3.868   7.180   0.607  0.9670 -0.8155 -0.2609
10112SOL    HW233291   3.762   7.072   0.616  1.0667 -0.8617  0.3678
10113SOL     OW33292   8.047   0.669   6.966 -0.1552  0.4807 -0.1080
10113SOL    HW133293   8.022   0.584   6.930  0.4143  0.2096  0.1207
10113SOL    HW233294   7.992   0.732   6.920  0.9521  0.2153 -1.8669
10114SOL     OW33295   4.521   1.567   5.378 -0.2583 -0.2504 -0.1711
10114SOL    HW133296   4.504   1.626   5.452  1.4130  0.7716 -0.5617
10114SOL    HW233297   4.615   1.554   5.379 -0.5083 -2.3920 -0.5439
10115SOL     OW33298   6.461   2.421   5.585  0.0531 -0.5547 -0.1277
10115SOL    HW133299   6.411   2.367   5.647  0.3837 -0.2367  0.4221
10115SOL    HW233300   6.497   2.358   5.523  1.2814 -1.1034  1.0974
10116SOL     OW33301   3.966   6.150   6.347  0.3603 -0.0389  0.2978
10116SOL    HW133302   3.948   6.226   6.291  0.9853 -0.5210 -0.5801
10116SOL    HW233303   4.038   6.177   6.403  0.3438  0.1337  0.2347
10117SOL     OW33304   4.054   3.774   6.781  0.3932 -0.3615 -0.2004
10117SOL    HW133305   4.149   3.773   6.789  0.2731 -1.5551  1.4759
10117SOL    HW233306   4.024   3.831   6.851 -0.1307  0.1291 -0.8122
10118SOL     OW33307   3.812   4.232   5.122  0.6005 -0.2424  0.4641
10118SOL    HW133308   3.877   4.193   5.063 -0.2357 -0.4157 -0.3711
10118SOL    HW233309   3.805   4.323   5.093 -2.7469 -1.2323 -2.5270
10119SOL     OW33310   3.570   2.176   4.356 -0.0954  0.1457  0.3578
10119SOL    HW133311   3.664   2.174   4.372  0.4660 -1.7234 -2.4593
10119SOL    HW233312   3.557   2.255   4.303  0.1301 -0.2683 -0.3280
10120SOL     OW33313   1.831   0.848   7.877 -0.1762  0.1686  0.4848
10120SOL    HW133314   1.758   0.897   7.838 -0.3374  0.5719  1.2833
10120SOL    HW233315   1.801   0.825   7.965 -0.0354 -1.2181  0.2038
10121SOL     OW33316   3.266   4.557   2.799  0.3452  0.3654 -0.0605
10121SOL    HW133317   3.298   4.633   2.750  1.0934  0.3787  0.4285
10121SOL    HW233318   3.291   4.481   2.746 -2.2717  0.5002 -1.6204
10122SOL     OW33319   1.670   0.841   6.477 -0.8438 -0.1784 -0.3970
10122SOL    HW133320   1.715   0.829   6.561 -0.0220  1.0350 -0.6384
10122SOL    HW233321   1.633   0.929   6.482 -0.3290  0.1256 -1.4925
10123SOL     OW33322   1.714   6.154   5.495  0.3549 -0.6243 -0.6891
10123SOL    HW133323   1.772   6.095   5.447  0.7360  0.2416 -1.3187
10123SOL    HW233324   1.771   6.195   5.560 -0.1718 -1.8401  0.5849
10124SOL     OW33325   0.374   3.100   4.581  0.5504  0.3955 -0.3540
10124SOL    HW133326   0.409   3.037   4.644 -1.1883  0.6976  1.0026
10124SOL    HW233327   0.365   3.050   4.500  0.6848 -0.6581  0.2615
10125SOL     OW33328   4.596   0.457   4.086  0.6296  0.2954 -0.0918
10125SOL    HW133329   4.593   0.535   4.142  1.2269  0.1914  0.0964
10125SOL    HW233330   4.504   0.431   4.077  0.0994  2.5621 -2.3971
10126SOL     OW33331   3.500   5.136   0.943 -0.5124  0.1179 -0.1388
10126SOL    HW133332   3.471   5.197   0.875  1.2352  0.1846 -0.8911
10126SOL    HW233333   3.422   5.085   0.965 -1.6869  1.7107 -0.4486
10127SOL     OW33334   0.217   2.395   0.397 -0.5798 -0.1693 -0.0586
10127SOL    HW133335   0.149   2.407   0.464 -0.1661  3.2336 -0.0626
10127SOL    HW233336   0.281   2.464   0.416  1.0671 -1.0228 -2.1897
10128SOL     OW33337   4.868   4.204   5.250 -0.0290  0.1587 -0.1092
10128SOL    HW133338   4.936   4.153   5.295  0.5919 -0.4036 -1.5924
10128SOL    HW233339   4.806   4.138   5.219 -1.7585  0.7282  1.9391
10129SOL     OW33340   0.965   6.788   7.819  0.1374  0.4583  0.2004
10129SOL    HW133341   0.925   6.874   7.825 -2.1522 -0.5057 -0.1653
10129SOL    HW233342   1.004   6.774   7.906  0.5292  1.8226  0.2672
10130SOL     OW33343   1.425   6.245   1.200  0.3618 -0.2313  0.1975
10130SOL    HW133344   1.419   6.161   1.154  0.4545 -0.6162  0.8647
10130SOL    HW233345   1.366   6.235   1.275 -1.7818  1.3241 -1.2065
10131SOL     OW33346   7.603   2.007   4.344  0.0286 -0.0338  0.5397
10131SOL    HW133347   7.533   1.947   4.316  0.3812  0.0755 -0.6417
10131SOL    HW233348   7.615   1.988   4.437 -1.7325  0.1021  0.8416
10132SOL     OW33349   4.207   6.661   3.393  0.6714  0.0985 -0.1971
10132SOL    HW133350   4.148   6.595   3.428  0.3744 -0.0846 -1.0216
10132SOL    HW233351   4.257   6.692   3.469 -2.2346  2.1240  1.0672
10133SOL     OW33352   1.332   1.607   3.131  0.5004 -0.0173  0.1315
10133SOL    HW133353   1.331   1.528   3.185 -1.9713  0.1942  0.5030
10133SOL    HW233354   1.415   1.650   3.154  0.0122 -0.4271  3.0826
10134SOL     OW33355   5.300   7.050   3.521 -0.1250  0.2046 -0.1782
10134SOL    HW133356   5.217   7.065   3.567  0.1813 -0.9324  0.8044
10134SOL    HW233357   5.330   6.965   3.554  1.4726  0.6315 -0.4680
10135SOL     OW33358   5.689   5.875   5.379 -0.1825 -0.8014  0.0152
10135SOL    HW133359   5.605   5.905   5.344 -0.6979  0.0640  1.8558
10135SOL    HW233360   5.726   5.952   5.422  1.3363 -1.3021 -0.3428
10136SOL     OW33361   3.683   7.488   1.482  0.0114 -0.5441  0.3533
10136SOL    HW133362   3.651   7.552   1.419  0.5513 -1.7890 -1.2597
10136SOL    HW233363   3.622   7.494   1.555 -1.2838  0.1994 -0.7424
10137SOL     OW33364   0.641   3.874   2.674  0.0258  0.1182  0.3073
10137SOL    HW133365   0.549   3.886   2.654  0.3018  0.4678 -0.8357
10137SOL    HW233366   0.680   3.960   2.662  0.5327 -0.0606  0.6206
10138SOL     OW33367   4.747   4.323   0.066  0.2742 -0.0062 -0.6847
10138SOL    HW133368   4.662   4.338   0.109 -0.2406 -2.3084 -0.7709
10138SOL    HW233369   4.811   4.328   0.138 -0.2307 -0.7159 -0.1695
10139SOL     OW33370   0.942   6.681   0.907 -0.3572 -0.4671 -0.0687
10139SOL    HW133371   1.017   6.631   0.875 -0.4934 -1.2072  0.7636
10139SOL    HW233372   0.879   6.616   0.935 -0.9107  0.1620  0.1762
10140SOL     OW33373   0.762   1.376   4.600  0.0841  0.1696  0.3210
10140SOL    HW133374   0.828   1.445   4.600 -0.8152  1.0642 -0.0098
10140SOL    HW233375   0.693   1.409   4.657 -0.7236 -0.0779 -0.4832
10141SOL     OW33376   1.906   0.285   2.024  0.1385 -0.3278 -0.0513
10141SOL    HW133377   1.950   0.289   1.939  1.1174  1.0492  0.4821
10141SOL    HW233378   1.939   0.361   2.071 -1.4879 -0.2559  1.0411
10142SOL     OW33379   6.933   3.469   4.085  0.0296  0.3566  0.5975
10142SOL    HW133380   6.864   3.533   4.070  0.2618  0.3718 -0.4461
10142SOL    HW233381   6.986   3.470   4.005  0.3290 -0.7744  0.7570
10143SOL     OW33382   1.948   0.961   4.060 -0.2208  0.3070  0.2475
10143SOL    HW133383   1.894   0.991   3.987 -2.9874 -3.1979  0.5335
10143SOL    HW233384   1.901   0.991   4.138 -1.9190 -2.5666  0.4939
10144SOL     OW33385   6.773   1.458   4.754 -0.6876 -0.0993 -0.2910
10144SOL    HW133386   6.739   1.412   4.678  0.5580  1.3088 -1.7909
10144SOL    HW233387   6.696   1.497   4.795 -1.4926 -1.7027 -0.2115
10145SOL     OW33388   7.549   7.253   3.195  0.0428 -0.5437 -0.0024
10145SOL    HW133389   7.629   7.270   3.145 -0.1385  0.7012  0.1075
10145SOL    HW233390   7.525   7.338   3.233 -1.7402 -0.7289 -0.6254
10146SOL     OW33391   2.608   4.727   6.551  0.2762  0.2002  0.4733
10146SOL    HW133392   2.678   4.793   6.553 -1.1000  1.7313 -0.1524
10146SOL    HW233393   2.571   4.729   6.639 -0.3765  0.9564  0.1866
10147SOL     OW33394   2.501   4.505   7.896 -0.1267 -0.1810 -0.3521
10147SOL    HW133395   2.511   4.520   7.990  1.4005 -0.7040 -0.4024
10147SOL    HW233396   2.497   4.593   7.857  3.2301  0.2086 -0.1316
10148SOL     OW33397   0.156   3.712   7.762 -0.2521 -0.1222 -0.3777
10148SOL    HW133398   0.243   3.746   7.740 -0.1522  1.1125  1.6457
10148SOL    HW233399   0.095   3.780   7.732 -0.7091 -1.5173 -2.8985
10149SOL     OW33400   5.051   6.083   6.617 -0.2450 -0.0323 -0.5768
10149SOL    HW133401   4.965   6.120   6.597  0.0293  1.6197  0.9556
10149SOL    HW233402   5.037   6.031   6.696  0.3833  1.6843  0.7595
10150SOL     OW33403   3.949   2.105   4.155 -0.6531 -0.4104  0.2101
10150SOL    HW133404   3.944   2.071   4.066 -1.1878  0.9441 -0.2986
10150SOL    HW233405   3.876   2.063   4.201 -1.2625 -0.0146 -0.3832
10151SOL     OW33406   2.312   0.006   5.338  0.0035  0.1452 -0.2281
10151SOL    HW133407   2.235  -0.047   5.316  1.1153 -2.4649  1.5815
10151SOL    HW233408   2.363   0.007   5.257 -1.3285  0.9118 -1.1069
10152SOL     OW33409   6.197   1.908   6.649  0.0397  0.1429 -0.6673
10152SOL    HW133410   6.136   1.840   6.621  0.6755 -0.8840  0.3714
10152SOL    HW233411   6.163   1.988   6.608 -2.0543 -0.3614 -0.0490
10153SOL     OW33412   3.356   6.445   5.974  0.1393 -0.0821 -0.3607
10153SOL    HW133413   3.273   6.455   6.022 -0.5409 -0.0891 -1.4901
10153SOL    HW233414   3.413   6.511   6.013 -0.5874  0.3263  0.0557
10154SOL     OW33415   6.919   2.434   7.224  0.5607  0.4830 -0.1972
10154SOL    HW133416   7.008   2.405   7.208 -0.0007 -0.7299 -1.2535
10154SOL    HW233417   6.878   2.362   7.272 -0.1535  0.5829 -0.6389
10155SOL     OW33418   6.942   7.351   8.093  0.1330  0.0056 -1.1006
10155SOL    HW133419   6.878   7.369   8.024  0.6334  0.5832 -1.4245
10155SOL    HW233420   7.010   7.417   8.080 -0.6006  1.3126  1.0343
10156SOL     OW33421   2.460   3.706   5.494  0.5807 -0.3481  0.1242
10156SOL    HW133422   2.453   3.801   5.482  1.0199 -0.3286  0.0040
10156SOL    HW233423   2.428   3.669   5.412 -1.6187 -0.3769  0.9377
10157SOL     OW33424   0.834   7.552   5.437  0.1925  0.0946 -0.2837
10157SOL    HW133425   0.837   7.463   5.402  0.3118  0.1369 -0.3855
10157SOL    HW233426   0.830   7.608   5.359  1.7213  0.2465 -0.2920
10158SOL     OW33427   5.589   1.491   4.122 -0.0415  0.5482 -0.0334
10158SOL    HW133428   5.506   1.540   4.122 -1.2173 -1.3014 -0.7318
10158SOL    HW233429   5.562   1.400   4.106  2.1207 -0.1597  0.0817
10159SOL     OW33430   2.363   3.680   4.323 -0.0004 -0.2187  0.3810
10159SOL    HW133431   2.420   3.634   4.385 -0.4617 -2.3406 -0.6893
10159SOL    HW233432   2.382   3.640   4.238 -1.0786  0.9836 -0.4632
10160SOL     OW33433   2.382   2.181   1.538 -0.0348 -0.5486  0.2145
10160SOL    HW133434   2.328   2.257   1.559  1.0395  0.5422 -0.8284
10160SOL    HW233435   2.439   2.169   1.614  0.4588  0.3097 -0.0121
10161SOL     OW33436   2.115   4.921   5.482  0.0906  0.4763 -0.2683
10161SOL    HW133437   2.071   4.897   5.401 -0.8896 -1.0874  0.6810
10161SOL    HW233438   2.082   4.859   5.547 -0.9234  3.0997  1.8765
10162SOL     OW33439   5.792   5.244   1.132  0.1157 -0.1296  0.3659
10162SOL    HW133440   5.808   5.221   1.041  0.4464  2.8662 -0.4344
10162SOL    HW233441   5.865   5.204   1.180  0.6959 -0.5806 -0.8498
10163SOL     OW33442   4.732   5.268   6.621  0.2491  0.0941 -0.3246
10163SOL    HW133443   4.805   5.229   6.573 -0.1133 -0.2817 -0.5792
10163SOL    HW233444   4.770   5.344   6.665  0.7601 -0.0137 -0.5721
10164SOL     OW33445   0.420   1.133   6.216  0.0865 -0.8051  0.2831
10164SOL    HW133446   0.401   1.141   6.122 -0.0064 -1.4709  0.2390
10164SOL    HW233447   0.410   1.040   6.234  0.5279 -0.7430  0.8663
10165SOL     OW33448   6.693   1.692   2.433  0.2302 -0.7486 -0.5497
10165SOL    HW133449   6.604   1.657   2.437 -0.0282 -0.0908 -0.3106
10165SOL    HW233450   6.740   1.632   2.376 -0.4454 -0.9458 -0.9160
10166SOL     OW33451   5.589   8.038   1.434  0.2024 -0.4822 -0.3707
10166SOL    HW133452   5.555   8.110   1.488  0.0965 -0.9402  0.1793
10166SOL    HW233453   5.513   8.009   1.383 -0.8948 -2.9292  2.4012
10167SOL     OW33454   5.563   3.501   1.676  0.1040  0.5608  0.5221
10167SOL    HW133455   5.600   3.423   1.718 -0.0723 -0.6072 -1.4057
10167SOL    HW233456   5.638   3.542   1.632 -0.0960  0.6295  0.2485
10168SOL     OW33457   3.358   0.855   5.699  0.8421  0.0861 -0.0241
10168SOL    HW133458   3.369   0.890   5.611  1.2976  1.0667  0.3997
10168SOL    HW233459   3.393   0.924   5.756  1.1890 -0.8138  0.8824
10169SOL     OW33460   5.178   3.931   5.139  0.4019  0.2621 -0.0912
10169SOL    HW133461   5.103   3.892   5.094 -0.2366  1.0872  0.2451
10169SOL    HW233462   5.192   3.874   5.215  0.8765 -0.5783 -0.7929
10170SOL     OW33463   0.671   1.332   4.300  0.3790 -0.1263 -0.2845
10170SOL    HW133464   0.726   1.339   4.378 -1.7295 -0.1613  1.3082
10170SOL    HW233465   0.584   1.358   4.330 -1.2663 -3.3113 -1.7549
10171SOL     OW33466   2.584   6.479   4.626  0.0592  0.6867  0.1851
10171SOL    HW133467   2.524   6.423   4.676  1.5783  0.4381  1.8287
10171SOL    HW233468   2.546   6.566   4.631 -1.1601  0.2257 -0.4865
10172SOL     OW33469   2.756   6.122   7.059  0.1540  0.2451 -0.3292
10172SOL    HW133470   2.722   6.034   7.044 -0.1028 -0.3258  2.9511
10172SOL    HW233471   2.688   6.166   7.110  1.1632  1.6447 -0.1337
10173SOL     OW33472   4.200   5.333   7.416 -0.6852 -0.4445 -0.1543
10173SOL    HW133473   4.129   5.396   7.407 -0.9535 -0.6621  0.4092
10173SOL    HW233474   4.162   5.249   7.394 -0.7718 -0.6502  0.7192
10174SOL     OW33475   4.336   4.348   1.287  0.2515 -0.1034 -0.1531
10174SOL    HW133476   4.399   4.329   1.218  1.1220  0.8700  0.3501
10174SOL    HW233477   4.365   4.431   1.324 -1.5761  0.6013 -0.1862
10175SOL     OW33478   1.234   0.427   5.048  0.3331 -0.6082  0.4516
10175SOL    HW133479   1.208   0.483   5.122  1.1482  0.4820 -0.0677
10175SOL    HW233480   1.314   0.384   5.078  1.0333  0.3421 -0.0315
10176SOL     OW33481   0.247   6.098   7.445 -0.3364  0.2993 -0.4197
10176SOL    HW133482   0.166   6.142   7.420  0.5860  1.6377 -1.1918
10176SOL    HW233483   0.309   6.121   7.375  0.8728 -0.1728  0.4684
10177SOL     OW33484   2.850   3.330   6.837 -0.0333 -0.3057 -0.3361
10177SOL    HW133485   2.938   3.347   6.869 -0.3479 -1.5801  1.3514
10177SOL    HW233486   2.793   3.385   6.891 -0.5629 -2.4270  1.4432
10178SOL     OW33487   4.199   2.141   1.166 -0.5798 -0.0180 -0.2136
10178SOL    HW133488   4.266   2.208   1.180 -0.7342 -0.0828  0.9105
10178SOL    HW233489   4.125   2.189   1.128 -0.2401  0.2128 -0.6004
10179SOL     OW33490   7.608   3.651   5.457  0.0672  0.4718 -0.2496
10179SOL    HW133491   7.694   3.672   5.420  0.5422 -0.6481  0.1925
10179SOL    HW233492   7.564   3.736   5.464 -0.0314  0.7976 -3.2672
10180SOL     OW33493   0.718   0.134   4.209 -0.2396  0.6050 -0.2764
10180SOL    HW133494   0.691   0.157   4.120  1.4840 -0.8553 -1.2517
10180SOL    HW233495   0.805   0.172   4.218 -0.1766  0.2661  0.5995
10181SOL     OW33496   6.066   7.819   6.076 -0.7513  0.2854 -0.6672
10181SOL    HW133497   6.118   7.738   6.079 -0.5596  0.4116 -0.5649
10181SOL    HW233498   5.991   7.802   6.133 -1.6853 -0.4902 -2.0570
10182SOL     OW33499   1.181   4.704   1.652  0.0029 -0.3567  0.7521
10182SOL    HW133500   1.093   4.734   1.673 -0.7508 -1.7689 -0.2185
10182SOL    HW233501   1.184   4.702   1.556  2.0822  2.3642  0.6410
10183SOL     OW33502   5.425   3.156   2.420  0.6228 -0.4938 -0.3292
10183SOL    HW133503   5.473   3.110   2.350 -0.6906 -0.0423 -1.5729
10183SOL    HW233504   5.493   3.203   2.469  1.6771 -1.5674 -0.7118
10184SOL     OW33505   5.488   3.622   5.835 -0.3482 -0.0206 -0.4537
10184SOL    HW133506   5.515   3.704   5.876 -0.2593 -0.5200  0.4986
10184SOL    HW233507   5.553   3.606   5.767  0.7017 -0.2495  0.5858
10185SOL     OW33508   6.791   5.505   6.788 -0.0324 -0.2362  0.5335
10185SOL    HW133509   6.852   5.451   6.738  1.6060 -0.7353  2.8826
10185SOL    HW233510   6.816   5.595   6.768 -0.8431 -0.3297 -1.1250
10186SOL     OW33511   6.245   5.382   4.875 -0.2416  0.1577  0.2083
10186SOL    HW133512   6.263   5.380   4.781  2.2003 -1.4268  0.6386
10186SOL    HW233513   6.151   5.364   4.881 -0.2201 -0.9870 -1.8956
10187SOL     OW33514   7.884   1.684   5.272  0.1346  0.1144 -0.3883
10187SOL    HW133515   7.859   1.720   5.357 -0.1451 -0.4273 -0.2331
10187SOL    HW233516   7.807   1.698   5.217  0.3831  0.6294 -0.6047
10188SOL     OW33517   1.919   4.115   5.288  0.4692  0.5980 -0.6100
10188SOL    HW133518   1.834   4.076   5.304 -0.2166  2.1258 -0.3558
10188SOL    HW233519   1.969   4.047   5.242 -0.6530 -0.5363 -0.1928
10189SOL     OW33520   0.545   6.926   3.812 -0.0031  0.0524 -0.3366
10189SOL    HW133521   0.527   6.914   3.905  0.8722 -1.8107 -0.3490
10189SOL    HW233522   0.630   6.884   3.799  0.4259  1.2837 -1.7827
10190SOL     OW33523   4.661   4.035   2.611  0.3467 -0.2975  0.0655
10190SOL    HW133524   4.696   4.019   2.524  2.2212 -0.3398  0.7746
10190SOL    HW233525   4.570   4.005   2.607  0.5659 -0.8148 -1.7021
10191SOL     OW33526   2.773   6.781   5.870 -0.0129 -0.2115  0.0957
10191SOL    HW133527   2.680   6.785   5.848  0.2009  0.1983 -0.7809
10191SOL    HW233528   2.779   6.825   5.955 -0.2781  2.1658 -1.0444
10192SOL     OW33529   1.814   3.273   2.110  0.0384 -0.0862  0.1454
10192SOL    HW133530   1.899   3.299   2.075  0.2319 -1.0509 -0.1262
10192SOL    HW233531   1.777   3.215   2.043 -0.9218  0.4875  0.1687
10193SOL     OW33532   3.282   2.605   0.511  0.1163  0.2110  0.2244
10193SOL    HW133533   3.203   2.660   0.509 -0.2309 -0.2027  1.6524
10193SOL    HW233534   3.281   2.564   0.598  0.8858 -1.2979 -0.4362
10194SOL     OW33535   4.964   3.222   1.353 -0.5862 -0.7162 -0.1392
10194SOL    HW133536   5.041   3.273   1.327 -1.0263  0.0407  0.0071
10194SOL    HW233537   4.982   3.195   1.443 -0.5436 -0.4247 -0.0584
10195SOL     OW33538   3.483   3.829   5.468  0.2838 -0.5093  0.1943
10195SOL    HW133539   3.512   3.917   5.442 -0.4873  0.0364  1.1288
10195SOL    HW233540   3.556   3.794   5.519  0.1619  0.0117  0.7290
10196SOL     OW33541   5.967   5.083   0.878 -0.2966 -0.1433  0.3463
10196SOL    HW133542   6.027   5.047   0.943 -1.2213  1.2139  2.0174
10196SOL    HW233543   6.023   5.132   0.818  0.3398  0.9584  1.7786
10197SOL     OW33544   3.748   4.059   5.522 -0.4332  0.8070 -0.1787
10197SOL    HW133545   3.789   4.130   5.472 -1.8444  1.1637 -0.9022
10197SOL    HW233546   3.710   4.102   5.598 -0.9506  0.7836 -0.4166
10198SOL     OW33547   4.111   2.398   3.468  0.1741  0.5960  0.3222
10198SOL    HW133548   4.065   2.476   3.498  0.2360 -0.2157  2.8517
10198SOL    HW233549   4.170   2.376   3.541  1.9685 -0.4217 -1.3388
10199SOL     OW33550   7.800   3.667   6.955 -0.0137  0.2644 -0.5152
10199SOL    HW133551   7.708   3.649   6.971  0.1551  0.2716  0.5123
10199SOL    HW233552   7.801   3.719   6.875 -0.8096 -0.7356 -1.1958
10200SOL     OW33553   3.073   5.487   0.978  0.1700 -0.2989 -0.2443
10200SOL    HW133554   3.154   5.443   0.954  0.7721  0.0682  1.0115
10200SOL    HW233555   3.060   5.465   1.070 -0.7465  0.2675 -0.2233
10201SOL     OW33556   5.259   6.565   2.531  0.0083 -0.6373  0.1322
10201SOL    HW133557   5.232   6.652   2.562  0.5736 -0.2084 -0.5584
10201SOL    HW233558   5.209   6.551   2.451 -0.9372 -1.4595  0.8239
10202SOL     OW33559   2.215   5.691   5.770  0.6540  0.4675 -0.0134
10202SOL    HW133560   2.241   5.660   5.684 -0.5543 -0.9817  0.0861
10202SOL    HW233561   2.180   5.779   5.755 -1.1463 -0.4040 -1.3383
10203SOL     OW33562   3.894   3.511   0.011  0.3460  0.0125  0.2029
10203SOL    HW133563   3.877   3.512  -0.083  0.0927 -0.0638  0.2476
10203SOL    HW233564   3.986   3.534   0.019  0.2552  0.4682 -0.0365
10204SOL     OW33565   2.316   1.054   2.578  0.4248 -0.4586 -0.6936
10204SOL    HW133566   2.318   0.971   2.531  0.8229 -0.6674 -0.3144
10204SOL    HW233567   2.231   1.054   2.623  0.4737 -0.7147 -0.5986
10205SOL     OW33568   3.268   7.164   0.315  0.2651 -0.5043 -0.5627
10205SOL    HW133569   3.199   7.111   0.274 -0.6783  0.0484  0.2596
10205SOL    HW233570   3.310   7.209   0.242 -1.1475  0.1905 -0.9821
10206SOL     OW33571   6.534   4.080   1.466 -0.3706  0.3062 -0.1689
10206SOL    HW133572   6.623   4.087   1.502 -0.2139  0.3841 -0.5694
10206SOL    HW233573   6.547   4.045   1.378 -0.7144  0.6215 -0.3432
10207SOL     OW33574   2.420   1.561   0.540 -0.1389 -0.0050 -0.2107
10207SOL    HW133575   2.374   1.608   0.610 -2.3997  0.5756 -1.9498
10207SOL    HW233576   2.365   1.484   0.523  1.1519 -0.9164 -0.4039
10208SOL     OW33577   2.357   7.430   1.995 -0.1350 -0.1297 -0.2047
10208SOL    HW133578   2.282   7.481   1.966 -0.4870  0.5451  1.7519
10208SOL    HW233579   2.432   7.468   1.948 -0.6162  1.1159  0.0109
10209SOL     OW33580   4.415   7.081   6.848  0.2876  0.1621  0.6135
10209SOL    HW133581   4.454   7.035   6.773  1.8253  2.5489 -0.1769
10209SOL    HW233582   4.322   7.089   6.825  0.0088 -2.1834  0.6705
10210SOL     OW33583   7.463   0.373   0.719  0.2430  0.2423  0.1332
10210SOL    HW133584   7.414   0.418   0.650  0.9358 -1.5233 -1.5978
10210SOL    HW233585   7.397   0.323   0.766  0.0881 -0.6445 -0.9867
10211SOL     OW33586   6.276   5.812   1.292 -0.3811  0.3083 -0.5054
10211SOL    HW133587   6.195   5.834   1.246 -0.2022  1.1597 -0.4409
10211SOL    HW233588   6.339   5.878   1.261 -0.0051  0.3071  0.2450
10212SOL     OW33589   4.639   1.796   7.002  0.4894  0.3602 -0.0548
10212SOL    HW133590   4.668   1.780   7.092  1.9970  0.3815 -0.5103
10212SOL    HW233591   4.661   1.888   6.986 -0.7935  0.6773 -0.1015
10213SOL     OW33592   4.651   2.034   4.515 -0.0770  0.7864  0.1834
10213SOL    HW133593   4.609   2.102   4.566  1.2214  1.3405  0.5631
10213SOL    HW233594   4.742   2.034   4.544  0.1682 -0.4868 -0.4648
10214SOL     OW33595   2.398   4.718   7.018 -0.3013  0.0074 -0.1913
10214SOL    HW133596   2.398   4.623   7.006 -0.4433 -0.0858  0.5167
10214SOL    HW233597   2.313   4.746   6.982 -0.0240 -0.0594 -0.9124
10215SOL     OW33598   5.687   5.497   1.136  0.5364 -0.4250 -0.2268
10215SOL    HW133599   5.720   5.419   1.180 -0.2798  0.5542  2.3013
10215SOL    HW233600   5.682   5.473   1.044  1.5224 -2.9040  0.3098
10216SOL     OW33601   6.705   6.297   6.836  0.0640  0.0254 -0.4027
10216SOL    HW133602   6.634   6.296   6.772  0.2127  2.0645 -0.6562
10216SOL    HW233603   6.782   6.270   6.787  0.0517  0.9456 -0.9444
10217SOL     OW33604   4.744   1.005   2.142 -0.1069 -0.1558  0.3818
10217SOL    HW133605   4.780   1.023   2.229 -2.5782  0.2968  1.3928
10217SOL    HW233606   4.662   0.958   2.158  0.3097 -1.8031 -1.8124
10218SOL     OW33607   4.206   6.914   4.609  0.2792  0.0970 -1.0089
10218SOL    HW133608   4.276   6.878   4.554  0.6252  2.8679 -2.5405
10218SOL    HW233609   4.135   6.851   4.602  1.9508 -1.9449 -0.7940
10219SOL     OW33610   3.889   6.084   4.271  0.2294  0.3518 -0.1664
10219SOL    HW133611   3.816   6.115   4.218  0.4404 -1.5037 -1.6269
10219SOL    HW233612   3.859   6.096   4.362 -0.5566  2.5872 -0.6533
10220SOL     OW33613   2.848   3.902   3.293  0.2149 -0.6221 -0.2935
10220SOL    HW133614   2.880   3.825   3.340  1.3444 -1.2760 -2.0236
10220SOL    HW233615   2.777   3.935   3.347 -1.7011 -4.0512 -0.3909
10221SOL     OW33616   4.819   1.271   4.641 -0.3360  0.6843  0.5095
10221SOL    HW133617   4.873   1.339   4.600 -1.1433  1.9679  1.5069
10221SOL    HW233618   4.872   1.240   4.715  0.0553  0.1622  0.0218
10222SOL     OW33619   0.341   6.073   5.660 -0.2805  0.6255 -0.2183
10222SOL    HW133620   0.332   6.168   5.646 -0.5303  0.6644  0.1786
10222SOL    HW233621   0.380   6.066   5.748 -1.9364  0.3379  0.5305
10223SOL     OW33622   1.727   6.477   4.829 -0.5063 -0.4473 -0.3957
10223SOL    HW133623   1.669   6.523   4.889 -0.3384 -1.2172  0.3748
10223SOL    HW233624   1.811   6.474   4.874 -0.4762 -1.3765 -0.4859
10224SOL     OW33625   3.513   4.846   3.364 -0.0939  0.4942  0.3085
10224SOL    HW133626   3.606   4.822   3.367 -0.0857  0.5197  0.2607
10224SOL    HW233627   3.504   4.894   3.282  0.0776  1.4398  0.8277
10225SOL     OW33628   5.896   7.098   1.982 -0.1491  0.2511  0.5555
10225SOL    HW133629   5.922   7.096   1.890 -0.7898 -1.6692  0.3748
10225SOL    HW233630   5.950   7.031   2.023 -0.5498  0.4379  1.3955
10226SOL     OW33631   7.500   5.044   4.338  0.0352 -0.5527  1.1860
10226SOL    HW133632   7.440   5.001   4.399 -0.5400 -1.1345  0.2264
10226SOL    HW233633   7.451   5.118   4.304  0.6641  0.2829  2.0617
10227SOL     OW33634   3.854   0.285   4.855  0.2711 -0.1028 -0.1553
10227SOL    HW133635   3.887   0.254   4.939  0.6391 -0.6640 -0.5020
10227SOL    HW233636   3.797   0.359   4.878  2.0427  1.1556  0.4273
10228SOL     OW33637   0.343   3.779   0.480 -0.1581  0.3941 -0.0644
10228SOL    HW133638   0.371   3.843   0.546  0.1258  0.7024 -0.4781
10228SOL    HW233639   0.374   3.815   0.397 -1.8607  0.8013 -0.5583
10229SOL     OW33640   6.007   4.501   4.285 -0.3160 -0.1888 -0.0070
10229SOL    HW133641   6.025   4.551   4.206  0.7562  2.1437  1.5793
10229SOL    HW233642   5.915   4.519   4.304 -0.1662  0.5600  0.0752
10230SOL     OW33643   7.188   6.092   0.923 -0.1966  0.8725 -0.3008
10230SOL    HW133644   7.103   6.094   0.966  0.3052 -0.5445  0.8416
10230SOL    HW233645   7.247   6.132   0.986  0.8076 -2.4619  1.1021
10231SOL     OW33646   2.265   5.778   6.509 -0.4035 -0.6402  0.3537
10231SOL    HW133647   2.359   5.762   6.497 -0.0263  2.1668 -1.5805
10231SOL    HW233648   2.223   5.710   6.457  0.6322 -0.9196 -0.1587
10232SOL     OW33649   5.414   2.877   2.526  0.1744 -0.3319  0.5323
10232SOL    HW133650   5.348   2.886   2.595  1.5003 -0.0158  1.8094
10232SOL    HW233651   5.421   2.965   2.488 -0.0920 -0.3576  0.4178
10233SOL     OW33652   2.418   1.806   3.778 -0.1074  0.5241 -0.0021
10233SOL    HW133653   2.383   1.864   3.711  0.3559  1.2781  0.3955
10233SOL    HW233654   2.382   1.838   3.860  0.1614  0.2589  0.2256
10234SOL     OW33655   3.825   7.421   4.182 -0.4068  0.2448  0.0332
10234SOL    HW133656   3.790   7.503   4.147 -0.0937  0.5479  0.4242
10234SOL    HW233657   3.758   7.390   4.242 -0.7586 -0.0590 -0.5109
10235SOL     OW33658   7.247   8.039   7.899 -0.2424  0.4303  0.1872
10235SOL    HW133659   7.158   8.004   7.900  0.1270 -0.5543 -0.3166
10235SOL    HW233660   7.254   8.088   7.981 -0.7056 -0.9147  1.0752
10236SOL     OW33661   5.319   5.424   2.045 -0.2012  0.4442 -0.2240
10236SOL    HW133662   5.335   5.347   2.100 -0.0632  1.1221  0.7148
10236SOL    HW233663   5.255   5.475   2.094 -1.8349 -0.0220 -1.7982
10237SOL     OW33664   6.594   6.576   2.907 -0.8181  0.4915  0.3821
10237SOL    HW133665   6.528   6.574   2.838 -0.0639 -1.1047 -0.3460
10237SOL    HW233666   6.546   6.595   2.987 -2.1488 -0.5025 -0.1534
10238SOL     OW33667   7.972   6.610   5.461  0.1762  0.3341  0.2386
10238SOL    HW133668   7.901   6.641   5.406  0.9841 -0.5635 -1.3704
10238SOL    HW233669   8.051   6.630   5.411  0.9603 -0.2192  1.2264
10239SOL     OW33670   1.240   2.275   7.095 -0.2752 -0.4168 -0.3052
10239SOL    HW133671   1.305   2.267   7.025  2.2080  1.6864  1.5887
10239SOL    HW233672   1.281   2.332   7.160 -2.9813 -1.1951  2.3023
10240SOL     OW33673   4.913   3.762   0.823 -0.1606 -0.6270  0.1995
10240SOL    HW133674   4.976   3.713   0.771 -1.0672  0.1599 -1.7326
10240SOL    HW233675   4.937   3.854   0.810 -2.0038 -0.2709 -1.0850
10241SOL     OW33676   2.844   1.625   5.379 -0.0356  0.1958  0.0219
10241SOL    HW133677   2.754   1.626   5.346  0.0512  1.2624 -0.2525
10241SOL    HW233678   2.895   1.662   5.307  0.3207  1.5507  0.9350
10242SOL     OW33679   2.673   4.269   7.002  0.6762  0.3918  0.3098
10242SOL    HW133680   2.649   4.242   7.091  0.6384  2.8435  1.1303
10242SOL    HW233681   2.757   4.227   6.985  1.5231  1.1933  2.2297
10243SOL     OW33682   3.246   7.970   5.831 -0.1545 -0.1288 -0.1651
10243SOL    HW133683   3.152   7.960   5.822 -0.3440  1.9407 -0.9010
10243SOL    HW233684   3.283   7.911   5.764 -1.0321  1.0072 -1.7066
10244SOL     OW33685   4.623   1.031   1.222  0.2363  0.4876 -0.2966
10244SOL    HW133686   4.674   0.950   1.217 -0.1926  0.2070 -0.1219
10244SOL    HW233687   4.684   1.099   1.191  0.0214 -0.1572 -2.3001
10245SOL     OW33688   6.734   1.018   5.431 -0.1672 -0.2529  0.1327
10245SOL    HW133689   6.711   1.072   5.507 -0.5049 -0.9927  0.5642
10245SOL    HW233690   6.752   1.081   5.361 -0.3785  0.4202  0.6787
10246SOL     OW33691   4.029   5.885   1.709  0.4044  0.0738  0.1838
10246SOL    HW133692   3.942   5.849   1.691 -0.7166  1.5172  2.2487
10246SOL    HW233693   4.078   5.872   1.628 -2.1648  0.4829 -1.5559
10247SOL     OW33694   3.499   4.808   7.551 -0.4420  0.0746  0.0077
10247SOL    HW133695   3.422   4.786   7.499  0.2290  0.3445 -1.1294
10247SOL    HW233696   3.519   4.899   7.529  1.3991 -0.5959 -1.3206
10248SOL     OW33697   4.643   5.503   1.051 -0.2458 -0.8762  0.0299
10248SOL    HW133698   4.712   5.563   1.023  0.5939 -1.6398  0.4130
10248SOL    HW233699   4.620   5.455   0.972 -0.8585 -0.1202 -0.2590
10249SOL     OW33700   7.000   0.600   6.967 -0.0454 -0.4112 -0.3172
10249SOL    HW133701   6.955   0.663   6.910  0.3171  0.8143  0.6930
10249SOL    HW233702   7.092   0.626   6.961  0.2540 -1.5410 -0.7106
10250SOL     OW33703   4.960   5.709   3.168 -0.1688 -0.0541  0.1532
10250SOL    HW133704   5.023   5.664   3.224 -1.5431 -0.4131  1.4881
10250SOL    HW233705   4.957   5.798   3.201  2.3283  1.0698 -2.3027
10251SOL     OW33706   1.965   5.267   1.522  0.4123 -0.5107  0.1784
10251SOL    HW133707   1.997   5.349   1.560  0.7736 -1.3312  1.7527
10251SOL    HW233708   1.898   5.293   1.459  2.1909  1.1165 -1.1350
10252SOL     OW33709   6.571   0.934   2.313 -0.0569 -0.3376  0.1744
10252SOL    HW133710   6.666   0.949   2.323  0.8800 -3.8037 -1.8231
10252SOL    HW233711   6.559   0.922   2.219 -2.9040  1.7199  0.1671
10253SOL     OW33712   7.507   2.821   5.819 -0.4328  0.0085  0.1992
10253SOL    HW133713   7.454   2.859   5.889  1.1136  0.1324  1.3628
10253SOL    HW233714   7.521   2.893   5.757 -1.6287 -0.0430 -0.1537
10254SOL     OW33715   5.130   7.952   1.339 -0.1088  0.6951  0.5217
10254SOL    HW133716   5.091   7.875   1.381  0.2800  0.1437 -0.1140
10254SOL    HW233717   5.172   8.000   1.411 -0.2577  0.2614  0.9041
10255SOL     OW33718   5.349   7.233   2.446  0.5881  0.6012 -0.0746
10255SOL    HW133719   5.309   7.164   2.500  0.7874  0.7323  0.2433
10255SOL    HW233720   5.278   7.295   2.430  0.8376  1.2042  1.0971
10256SOL     OW33721   4.105   7.610   2.066  0.5006  0.3607  0.2085
10256SOL    HW133722   4.170   7.583   2.001 -0.3619 -1.4854  0.0426
10256SOL    HW233723   4.084   7.701   2.043 -0.0788 -0.3401 -2.4136
10257SOL     OW33724   0.564   6.974   1.073 -0.3975 -0.4667 -0.3803
10257SOL    HW133725   0.625   7.014   1.012 -0.0570 -1.2332 -0.5545
10257SOL    HW233726   0.619   6.928   1.136 -0.7835 -0.7933 -0.2759
10258SOL     OW33727   5.509   4.074   3.919  0.1233 -0.6108  0.2210
10258SOL    HW133728   5.470   4.003   3.869  0.1779 -0.4150 -0.1103
10258SOL    HW233729   5.568   4.031   3.981 -0.5791 -0.9044  0.6950
10259SOL     OW33730   7.239   4.781   5.701  0.6320  0.1520 -0.2673
10259SOL    HW133731   7.266   4.802   5.790  2.8298 -2.0898 -0.3071
10259SOL    HW233732   7.172   4.713   5.711 -1.2821  1.9245 -0.3332
10260SOL     OW33733   3.542   6.185   2.634 -0.1607  0.6189 -0.3972
10260SOL    HW133734   3.494   6.199   2.716 -1.3071 -0.2905 -0.8693
10260SOL    HW233735   3.581   6.269   2.614 -0.8064  1.1536  0.5074
10261SOL     OW33736   1.093   0.017   4.068 -0.1858 -0.2140  0.5011
10261SOL    HW133737   1.022  -0.047   4.066 -1.0705  0.7627  0.4846
10261SOL    HW233738   1.062   0.087   4.125  0.3663  0.6676 -0.2584
10262SOL     OW33739   1.961   3.538   4.125  0.3587  0.0527 -0.3736
10262SOL    HW133740   1.979   3.580   4.040  1.2079 -0.0918 -0.2792
10262SOL    HW233741   1.965   3.610   4.188 -0.9949  0.2830 -0.5254
10263SOL     OW33742   7.718   1.275   1.768 -0.2115  0.0100  0.1319
10263SOL    HW133743   7.768   1.353   1.743 -0.1413 -0.1135 -0.1140
10263SOL    HW233744   7.768   1.202   1.733 -0.2567 -0.1504  0.4005
10264SOL     OW33745   1.651   7.598   7.121  0.0475 -0.2691  0.7507
10264SOL    HW133746   1.666   7.510   7.086 -1.0863  0.3270 -1.3717
10264SOL    HW233747   1.592   7.584   7.195  1.0306 -1.4024  1.3508
10265SOL     OW33748   4.072   4.967   1.458 -0.5962 -0.6586 -0.3830
10265SOL    HW133749   4.022   5.046   1.436 -0.8656 -1.1017 -1.3834
10265SOL    HW233750   4.052   4.905   1.388 -0.5670 -1.7075  0.5114
10266SOL     OW33751   4.220   3.151   1.056  0.3748 -0.1155 -0.4429
10266SOL    HW133752   4.285   3.138   1.126 -0.4288  0.3506  0.4241
10266SOL    HW233753   4.260   3.217   0.999  1.3901 -1.0876 -0.9007
10267SOL     OW33754   4.023   2.087   2.187  0.1700  0.6184  0.2511
10267SOL    HW133755   3.978   2.035   2.253  0.2842 -0.7964 -0.7375
10267SOL    HW233756   4.114   2.060   2.192  0.5003  1.7865  0.6871
10268SOL     OW33757   6.942   5.375   3.131  0.3292  0.1798 -0.3593
10268SOL    HW133758   7.034   5.392   3.152  0.2432 -0.7390  0.8829
10268SOL    HW233759   6.945   5.312   3.060  0.6641  0.0603 -0.2424
10269SOL     OW33760   5.219   1.233   2.530 -0.0033 -0.0849 -0.0978
10269SOL    HW133761   5.266   1.210   2.610  1.9231  1.0636 -0.8125
10269SOL    HW233762   5.193   1.149   2.492  0.6017 -0.7174  0.8549
10270SOL     OW33763   2.368   1.778   5.971 -0.1523  0.2193 -0.5181
10270SOL    HW133764   2.404   1.865   5.950  2.2974 -0.3537  0.9764
10270SOL    HW233765   2.436   1.735   6.022 -2.6452 -1.3811  1.7010
10271SOL     OW33766   6.946   0.290   0.038 -0.4882  0.0674  0.1170
10271SOL    HW133767   6.932   0.366   0.095  2.6129 -0.1246  1.3399
10271SOL    HW233768   6.960   0.217   0.098 -1.5076 -1.1101 -1.0168
10272SOL     OW33769   6.670   4.035   7.227 -0.6442 -0.6998  0.2685
10272SOL    HW133770   6.625   3.970   7.281  2.7731 -1.7638  2.0732
10272SOL    HW233771   6.738   4.072   7.283 -0.9109  2.8403 -1.4369
10273SOL     OW33772   2.470   1.842   1.766  0.1284  0.2492  0.5452
10273SOL    HW133773   2.516   1.830   1.683 -0.5106 -0.1589  0.2435
10273SOL    HW233774   2.382   1.870   1.741 -0.0314  0.2413  1.0879
10274SOL     OW33775   1.141   2.642   4.456  0.0524  0.0061 -0.5718
10274SOL    HW133776   1.175   2.552   4.451  0.8984  0.3488 -1.3639
10274SOL    HW233777   1.055   2.633   4.498 -0.5813 -1.3764 -2.0401
10275SOL     OW33778   5.461   3.525   7.924  1.0311 -0.1444  0.0750
10275SOL    HW133779   5.500   3.574   7.851  1.9201 -1.1545 -0.1379
10275SOL    HW233780   5.479   3.579   8.001 -0.1994  1.0982 -0.4619
10276SOL     OW33781   4.414   2.457   5.814 -0.6650 -0.3637  0.0338
10276SOL    HW133782   4.498   2.500   5.833 -0.1733 -0.8114 -1.0676
10276SOL    HW233783   4.349   2.526   5.826 -0.3459 -0.3917  2.4758
10277SOL     OW33784   3.639   0.204   2.157  0.4162 -0.0062  0.4076
10277SOL    HW133785   3.686   0.260   2.220 -0.8642  0.2677  1.1479
10277SOL    HW233786   3.670   0.115   2.177  0.1803  0.1008  1.3000
10278SOL     OW33787   2.715   2.640   1.089  0.0461 -0.6453 -0.2652
10278SOL    HW133788   2.800   2.681   1.104 -0.4851  0.2220  0.4457
10278SOL    HW233789   2.725   2.594   1.005  0.9216  0.2272 -0.6542
10279SOL     OW33790   7.762   4.766   5.612  0.3463 -0.1433  0.8060
10279SOL    HW133791   7.683   4.712   5.608  0.0355  0.2276  1.6934
10279SOL    HW233792   7.747   4.826   5.686  0.8332  0.9072  0.0812
10280SOL     OW33793   4.320   2.385   2.112  0.1254  0.1881 -0.2653
10280SOL    HW133794   4.306   2.465   2.062  0.1211  0.8318  0.7481
10280SOL    HW233795   4.415   2.381   2.125  0.1385 -0.0440 -0.4222
10281SOL     OW33796   2.440   5.535   1.899  0.0351  0.7481  0.1247
10281SOL    HW133797   2.463   5.543   1.991  1.5268  2.4083 -0.3242
10281SOL    HW233798   2.396   5.451   1.892 -0.2671  0.6718  2.3673
10282SOL     OW33799   5.205   6.253   4.647 -0.5544  0.0532  0.2731
10282SOL    HW133800   5.146   6.290   4.713 -1.8600 -1.7200  0.1678
10282SOL    HW233801   5.149   6.233   4.572  0.1379 -1.7641  0.1896
10283SOL     OW33802   1.982   3.334   1.777 -0.7632  0.1835  0.4084
10283SOL    HW133803   2.034   3.276   1.832  0.4786 -0.8667 -1.7567
10283SOL    HW233804   2.029   3.417   1.778  1.0364 -0.7321 -1.4715
10284SOL     OW33805   2.318   0.844   0.689 -0.3029  0.0674  0.1943
10284SOL    HW133806   2.290   0.923   0.644  0.5512  0.2764  0.0135
10284SOL    HW233807   2.309   0.774   0.624  0.4179  0.2816 -0.1521
10285SOL     OW33808   0.004   1.314   2.339 -0.3898 -0.2834 -0.2196
10285SOL    HW133809   0.054   1.255   2.395  1.7155  1.0536 -0.5875
10285SOL    HW233810  -0.020   1.262   2.263 -0.0922 -1.1253  0.2522
10286SOL     OW33811   0.986   4.882   7.813  0.1447  0.1208  0.3247
10286SOL    HW133812   0.951   4.951   7.869 -2.3190 -0.9020  0.1721
10286SOL    HW233813   0.938   4.891   7.731 -0.1579 -1.6608  0.2573
10287SOL     OW33814   5.125   7.520   0.320 -0.5182 -0.2209 -0.0764
10287SOL    HW133815   5.105   7.443   0.265 -0.5092 -1.0178  1.0026
10287SOL    HW233816   5.041   7.564   0.330 -0.6503 -0.4414 -0.1896
10288SOL     OW33817   7.392   4.200   6.550 -0.6674  0.1341  0.0076
10288SOL    HW133818   7.431   4.239   6.471 -1.3884  3.1578  0.9866
10288SOL    HW233819   7.455   4.221   6.619 -1.6658  0.6935  0.7766
10289SOL     OW33820   7.883   6.205   4.365  0.5043  0.4702  0.2356
10289SOL    HW133821   7.937   6.281   4.387  0.2358  0.5330  0.6826
10289SOL    HW233822   7.808   6.211   4.425  0.1616  0.2081 -0.1642
10290SOL     OW33823   2.997   5.847   4.681  0.4258  0.1241 -0.2951
10290SOL    HW133824   3.075   5.883   4.723  0.4206 -2.4963  2.2615
10290SOL    HW233825   2.925   5.903   4.712  0.9090  0.7066 -0.2058
10291SOL     OW33826   4.614   1.297   1.720 -0.2718 -0.2944 -0.3552
10291SOL    HW133827   4.641   1.278   1.810 -0.7435 -2.9827 -0.6777
10291SOL    HW233828   4.543   1.235   1.703 -0.4583  0.4204 -2.4487
10292SOL     OW33829   0.388   4.102   1.892 -0.1764  0.9634 -0.4013
10292SOL    HW133830   0.306   4.053   1.899 -0.2310  1.2033  0.8852
10292SOL    HW233831   0.360   4.193   1.879 -0.1053  0.9828 -0.4166
10293SOL     OW33832   6.146   4.101   7.969  0.3297 -0.5226  0.3102
10293SOL    HW133833   6.207   4.140   7.905  0.4729 -0.8089  0.2715
10293SOL    HW233834   6.128   4.172   8.030  2.2380 -0.9631  1.4593
10294SOL     OW33835   1.776   1.600   2.275 -0.1849 -0.2593 -0.3384
10294SOL    HW133836   1.788   1.621   2.182 -1.1230 -0.0401 -0.4137
10294SOL    HW233837   1.814   1.676   2.320  1.9277 -1.1526 -0.4655
10295SOL     OW33838   2.622   6.761   0.577 -0.2453  0.5894  0.2750
10295SOL    HW133839   2.685   6.690   0.574 -0.6214  0.1104  2.0671
10295SOL    HW233840   2.537   6.718   0.568 -0.3961  1.0980 -0.9549
10296SOL     OW33841   3.508   5.957   5.090 -0.0457  0.7304 -0.5547
10296SOL    HW133842   3.539   5.981   5.003 -0.3377  0.5913 -0.6989
10296SOL    HW233843   3.413   5.960   5.084 -0.0672  0.8482 -0.2030
10297SOL     OW33844   4.504   3.279   3.403 -0.6043 -1.1461  0.2648
10297SOL    HW133845   4.467   3.331   3.475  0.5670 -0.8363  0.6685
10297SOL    HW233846   4.568   3.223   3.446  0.0758 -0.9878 -0.5316
10298SOL     OW33847   1.389   8.068   6.648 -0.2110 -0.5587  0.3043
10298SOL    HW133848   1.342   8.120   6.714 -1.1061  1.7940 -2.0111
10298SOL    HW233849   1.481   8.080   6.670 -0.4709  0.4905  0.9283
10299SOL     OW33850   5.231   0.547   0.742 -0.5411 -0.0037  0.3842
10299SOL    HW133851   5.275   0.609   0.683  0.5779  2.3262  3.4144
10299SOL    HW233852   5.222   0.467   0.690  2.0291  1.2651 -2.3065
10300SOL     OW33853   0.487   5.046   4.829  0.1991 -0.3465  0.1730
10300SOL    HW133854   0.438   4.998   4.763 -0.0992  0.2069 -0.0223
10300SOL    HW233855   0.550   4.983   4.864 -1.6443 -1.5382  1.5140
10301SOL     OW33856   2.692   1.550   0.481 -0.0829  0.4868  0.1879
10301SOL    HW133857   2.604   1.563   0.516 -0.2468 -0.6138  0.2185
10301SOL    HW233858   2.715   1.635   0.443 -0.4289  1.3179  1.7643
10302SOL     OW33859   3.669   4.861   6.865 -0.3834  0.4847 -0.4488
10302SOL    HW133860   3.608   4.803   6.909  0.6721  0.5000  1.0884
10302SOL    HW233861   3.728   4.892   6.934 -0.2405  2.5295 -1.4123
10303SOL     OW33862   3.464   1.227   8.094 -0.0643  0.0422 -0.1368
10303SOL    HW133863   3.513   1.154   8.057  0.8496 -0.5989  2.1379
10303SOL    HW233864   3.518   1.257   8.168 -1.6755  1.2767  0.6028
10304SOL     OW33865   5.389   5.193   2.190  0.0450 -1.0109  0.2521
10304SOL    HW133866   5.306   5.149   2.209 -1.6222  1.8160  0.1687
10304SOL    HW233867   5.415   5.233   2.273  1.1626 -1.5726  0.1899
10305SOL     OW33868   5.212   5.049   0.058  0.7527  0.1207  0.0121
10305SOL    HW133869   5.127   5.091   0.068 -1.0482 -3.2156  0.3422
10305SOL    HW233870   5.208   4.973   0.116  4.2528  0.1316  0.4745
10306SOL     OW33871   0.581   3.146   1.084 -0.3105 -0.4336 -0.2198
10306SOL    HW133872   0.642   3.100   1.026  0.4918  0.5776 -0.2052
10306SOL    HW233873   0.497   3.101   1.071  0.3864 -1.7209 -0.3896
10307SOL     OW33874   6.801   1.222   2.716 -0.6540 -0.2736  0.3319
10307SOL    HW133875   6.875   1.191   2.769 -1.8500 -0.2223  2.1168
10307SOL    HW233876   6.789   1.313   2.744 -1.8958 -0.5299  0.6853
10308SOL     OW33877   1.763   4.807   7.391  0.2278  0.0853  0.1313
10308SOL    HW133878   1.797   4.724   7.358  0.0868 -0.0277  0.2666
10308SOL    HW233879   1.716   4.845   7.316  0.3842  0.0943  0.0379
10309SOL     OW33880   6.264   3.293   6.733  0.1035  0.3373  0.3094
10309SOL    HW133881   6.172   3.316   6.747  0.1651 -0.1958  1.6752
10309SOL    HW233882   6.261   3.202   6.703  0.0209  1.2276 -2.8387
10310SOL     OW33883   0.381   7.731   6.587  0.0557  0.4210  0.1660
10310SOL    HW133884   0.435   7.707   6.511 -0.1363  0.1765  0.1041
10310SOL    HW233885   0.352   7.820   6.568 -0.4521  0.1570 -0.3214
10311SOL     OW33886   7.150   2.188   4.992  0.6540 -0.5928  0.0184
10311SOL    HW133887   7.204   2.140   4.930 -0.4071 -0.7605 -0.8154
10311SOL    HW233888   7.113   2.260   4.940  1.0817  0.2703  0.8900
10312SOL     OW33889   3.981   2.730   0.712  0.3029 -0.7613 -0.2589
10312SOL    HW133890   3.965   2.720   0.806  1.3734 -1.2170 -0.1203
10312SOL    HW233891   4.075   2.715   0.701  0.3945  0.3287 -1.2597
10313SOL     OW33892   6.698   2.054   1.115  0.2016  0.1910 -0.0662
10313SOL    HW133893   6.602   2.053   1.110  0.1208  1.4665  0.7593
10313SOL    HW233894   6.725   2.096   1.033  0.0307  0.1174 -0.1599
10314SOL     OW33895   7.842   0.159   1.738  0.7015 -0.3819  0.1534
10314SOL    HW133896   7.836   0.158   1.642  0.4333  1.3105  0.1318
10314SOL    HW233897   7.902   0.231   1.758  0.5252 -0.5273  1.2733
10315SOL     OW33898   7.923   3.128   6.475  0.0085  0.4485  0.1139
10315SOL    HW133899   7.857   3.108   6.541  0.1588  0.3424  0.2316
10315SOL    HW233900   7.901   3.072   6.401 -0.7029  1.2186 -0.2697
10316SOL     OW33901   1.371   5.299   2.804 -0.4649  0.0212  0.5019
10316SOL    HW133902   1.289   5.279   2.850 -0.7386  1.7005  0.7921
10316SOL    HW233903   1.433   5.318   2.874  0.4350 -1.9533  0.3227
10317SOL     OW33904   4.182   7.423   6.990 -0.0242 -0.1344 -0.2985
10317SOL    HW133905   4.239   7.388   6.922  0.0684 -0.1600 -0.2085
10317SOL    HW233906   4.162   7.348   7.046 -0.3658 -0.1821 -0.4828
10318SOL     OW33907   3.321   6.001   4.336  0.0481  0.0721  0.4218
10318SOL    HW133908   3.229   6.024   4.331  0.0478  1.0201  3.1297
10318SOL    HW233909   3.337   5.984   4.429  2.6049 -0.0423  0.0474
10319SOL     OW33910   1.349   1.058   2.837 -0.2450  0.4858 -0.1626
10319SOL    HW133911   1.412   1.119   2.875 -0.5511  1.3341 -0.9683
10319SOL    HW233912   1.346   0.985   2.898  0.4948  1.0574  0.5796
10320SOL     OW33913   3.620   4.296   2.864  0.1451 -0.0534 -0.0616
10320SOL    HW133914   3.612   4.251   2.780 -2.2701  0.4610 -0.1849
10320SOL    HW233915   3.596   4.230   2.929 -1.2126  0.3978 -0.0712
10321SOL     OW33916   2.928   3.227   1.721  0.1351 -0.2367  0.4048
10321SOL    HW133917   2.862   3.203   1.786 -0.5109  0.4174  0.0144
10321SOL    HW233918   2.901   3.181   1.641 -1.2761  1.8515 -0.4309
10322SOL     OW33919   0.261   5.865   4.798 -0.4571 -0.3853 -0.2311
10322SOL    HW133920   0.174   5.904   4.789 -0.8100 -1.4779 -2.2733
10322SOL    HW233921   0.276   5.861   4.893 -2.5503 -0.0189  0.1660
10323SOL     OW33922   5.678   6.789   2.783  0.2190 -0.4146  0.2316
10323SOL    HW133923   5.754   6.805   2.728 -0.6095  0.9881 -0.5833
10323SOL    HW233924   5.714   6.760   2.867  1.7050  0.8770  0.0881
10324SOL     OW33925   0.212   6.701   7.680 -0.2411 -0.3659 -0.2514
10324SOL    HW133926   0.191   6.710   7.587 -2.6148 -0.8995  0.1574
10324SOL    HW233927   0.295   6.654   7.682  1.1477  1.7691 -2.0759
10325SOL     OW33928   3.128   1.150   3.002 -0.0292 -0.6198  0.8358
10325SOL    HW133929   3.218   1.129   3.027  0.8136  2.1323  0.4652
10325SOL    HW233930   3.087   1.178   3.084  0.0258 -0.1916  0.7242
10326SOL     OW33931   5.419   7.542   0.157 -0.1450 -0.2746  0.1882
10326SOL    HW133932   5.485   7.581   0.214  1.0887 -1.7579 -0.1659
10326SOL    HW233933   5.368   7.485   0.215  1.0504 -1.7105 -0.1084
10327SOL     OW33934   0.021   2.360   5.182 -0.4751 -0.0873  0.1757
10327SOL    HW133935   0.112   2.347   5.156 -0.4801 -0.6066  0.3959
10327SOL    HW233936  -0.027   2.367   5.099 -0.1006  1.2419  0.0630
10328SOL     OW33937   4.686   3.886   7.688  0.4989  0.4995 -0.1757
10328SOL    HW133938   4.617   3.819   7.691 -0.3259  1.3133 -0.2590
10328SOL    HW233939   4.731   3.878   7.772 -0.4201  0.6662  0.3558
10329SOL     OW33940   7.678   8.059   0.603  0.1395 -0.0816 -0.4066
10329SOL    HW133941   7.628   8.088   0.526 -0.0739 -0.7414 -0.5257
10329SOL    HW233942   7.724   8.137   0.632 -1.7844  0.8317  0.3373
10330SOL     OW33943   2.368   7.554   4.763  0.5235  0.8852 -0.2261
10330SOL    HW133944   2.342   7.605   4.840 -0.3158 -0.3004  0.3089
10330SOL    HW233945   2.432   7.492   4.796 -0.1218  0.1179 -0.3857
10331SOL     OW33946   1.934   6.080   1.607  0.1559  1.1846  0.1698
10331SOL    HW133947   1.869   6.105   1.542 -0.9737 -0.5998  0.5217
10331SOL    HW233948   1.937   5.984   1.602 -0.2522  0.9447  2.9403
10332SOL     OW33949   5.903   6.322   2.620  0.3214  0.4644 -0.0437
10332SOL    HW133950   5.898   6.396   2.680  0.1541 -0.3923  1.0505
10332SOL    HW233951   5.993   6.323   2.587  0.0273  1.7493 -0.8694
10333SOL     OW33952   5.761   2.947   1.156  0.0525  0.2523  0.2774
10333SOL    HW133953   5.778   2.854   1.169 -0.3100  0.3020  1.1275
10333SOL    HW233954   5.665   2.955   1.157  0.0658  0.5561 -0.3588
10334SOL     OW33955   8.044   7.604   6.729 -0.2315 -0.9029  0.3377
10334SOL    HW133956   8.124   7.648   6.759  0.7565 -2.4316  0.0898
10334SOL    HW233957   7.989   7.674   6.695  1.7733  0.0404 -1.1859
10335SOL     OW33958   1.027   4.340   4.536 -0.5541 -0.7936 -0.5153
10335SOL    HW133959   1.093   4.308   4.475  1.1555 -0.2002  0.9166
10335SOL    HW233960   1.072   4.408   4.587 -2.5083  0.1752  0.0339
10336SOL     OW33961   2.449   0.666   1.230  0.3827 -0.1950 -0.1117
10336SOL    HW133962   2.382   0.656   1.162 -0.0791  0.2488  0.2688
10336SOL    HW233963   2.405   0.639   1.311  0.6130  0.2490  0.1630
10337SOL     OW33964   0.794   0.029   1.240 -0.2114 -0.2738 -0.4704
10337SOL    HW133965   0.890   0.021   1.234 -0.2644 -0.6476 -0.8484
10337SOL    HW233966   0.762  -0.060   1.226 -0.5671 -0.3637  0.8396
10338SOL     OW33967   3.311   5.750   5.469 -0.5821 -0.5295  0.0555
10338SOL    HW133968   3.296   5.666   5.512 -0.9600  0.3477  1.7275
10338SOL    HW233969   3.399   5.776   5.498 -0.6836 -0.1065 -0.0107
10339SOL     OW33970   2.750   0.511   3.390  0.1978 -0.3388 -0.1502
10339SOL    HW133971   2.684   0.523   3.459 -0.2018  2.5567 -0.8697
10339SOL    HW233972   2.700   0.478   3.315  0.1446 -1.0027  0.1733
10340SOL     OW33973   5.991   3.460   7.380  0.1710 -0.0840  0.0225
10340SOL    HW133974   6.071   3.409   7.380 -1.0604 -2.1372 -0.6640
10340SOL    HW233975   5.963   3.463   7.471  2.1659  2.7308  0.6899
10341SOL     OW33976   3.081   1.063   2.346  0.1803 -0.1348 -0.2613
10341SOL    HW133977   3.116   1.039   2.260 -0.9505 -1.1021 -0.4831
10341SOL    HW233978   3.064   1.157   2.339 -0.4396 -0.3070 -1.3106
10342SOL     OW33979   4.416   6.606   7.582  0.0527 -0.0760 -0.5976
10342SOL    HW133980   4.375   6.669   7.523 -1.8275 -1.2028 -0.5730
10342SOL    HW233981   4.359   6.529   7.579  0.3128 -0.4795  2.0789
10343SOL     OW33982   5.165   4.064   3.794 -0.7784  0.3104  0.0388
10343SOL    HW133983   5.218   4.142   3.777 -1.1991  0.8143  0.9717
10343SOL    HW233984   5.076   4.091   3.772 -0.6533 -0.5895 -1.6992
10344SOL     OW33985   5.078   5.140   4.527  0.4568  0.4027 -0.1504
10344SOL    HW133986   5.048   5.079   4.459 -0.6351 -0.5281  1.1172
10344SOL    HW233987   5.122   5.085   4.591  0.3085  1.0736  0.5424
10345SOL     OW33988   2.044   3.556   5.698  0.6079 -0.4613 -0.2509
10345SOL    HW133989   2.098   3.548   5.776  1.4462  1.1902 -0.6187
10345SOL    HW233990   2.011   3.468   5.683 -1.4726 -0.4506  3.2362
10346SOL     OW33991   6.389   7.730   0.236  0.0118  0.4500  0.0670
10346SOL    HW133992   6.481   7.704   0.237 -0.2456 -0.4699  0.5354
10346SOL    HW233993   6.388   7.809   0.182  1.0979  0.5707  0.1916
10347SOL     OW33994   5.842   0.890   2.072  0.1697 -0.0682  0.2878
10347SOL    HW133995   5.804   0.834   2.005 -0.8991 -0.3106  1.0572
10347SOL    HW233996   5.809   0.854   2.154  1.6190  0.0923  0.9639
10348SOL     OW33997   1.317   1.430   3.360 -0.1205  0.0288  0.1883
10348SOL    HW133998   1.412   1.415   3.359 -0.2288 -0.8818 -2.5844
10348SOL    HW233999   1.308   1.514   3.406  2.3346  1.5678 -1.7976
10349SOL     OW34000   5.518   3.673   0.434 -0.1699  0.6888  0.5223
10349SOL    HW134001   5.466   3.653   0.357 -0.6384 -0.2563  1.0571
10349SOL    HW234002   5.495   3.604   0.497 -0.1528  1.6972  1.6710
10350SOL     OW34003   5.865   6.122   5.825  0.7149  0.2781 -0.1888
10350SOL    HW134004   5.888   6.034   5.796  1.8454  0.3424  0.4446
10350SOL    HW234005   5.803   6.108   5.897  1.4896 -0.0476  0.4360
10351SOL     OW34006   1.758   2.808   7.084  0.1675  0.3313 -0.0790
10351SOL    HW134007   1.783   2.869   7.153 -1.0537 -0.0216  0.7110
10351SOL    HW234008   1.696   2.748   7.126 -1.2520  0.6085 -1.6468
10352SOL     OW34009   2.658   2.143   7.128  0.1523  0.4439  0.0874
10352SOL    HW134010   2.666   2.051   7.154  0.8427  0.0823 -1.3513
10352SOL    HW234011   2.698   2.148   7.042 -0.6303  1.9366 -0.2273
10353SOL     OW34012   5.896   3.616   8.023  0.1566  0.0707 -0.6942
10353SOL    HW134013   5.836   3.546   8.047  1.9376 -0.9878  1.0203
10353SOL    HW234014   5.878   3.634   7.931 -1.0689 -1.9132 -0.8882
10354SOL     OW34015   8.100   4.460   3.854 -0.1593  0.0502 -0.3916
10354SOL    HW134016   8.136   4.546   3.876 -0.2660 -0.1578  0.6236
10354SOL    HW234017   8.006   4.473   3.849 -0.3239 -0.3142  1.3081
10355SOL     OW34018   5.552   4.957   3.039 -0.0263 -0.1584  0.3518
10355SOL    HW134019   5.474   4.951   2.984  0.8037  1.7584 -1.1686
10355SOL    HW234020   5.624   4.972   2.978  1.3129 -0.3232  1.8065
10356SOL     OW34021   3.206   5.556   4.938 -0.2272 -0.1002  1.1708
10356SOL    HW134022   3.233   5.603   4.859  2.6195  0.6140  2.4460
10356SOL    HW234023   3.114   5.582   4.950 -0.1582  1.3406 -0.7927
10357SOL     OW34024   4.948   3.735   3.802 -0.0839 -0.3516 -0.1674
10357SOL    HW134025   4.884   3.776   3.744  0.9688  0.2585 -0.9393
10357SOL    HW234026   4.898   3.668   3.849 -1.3691  0.3795 -0.4382
10358SOL     OW34027   3.904   0.074   3.964  0.2919  0.1246 -0.7324
10358SOL    HW134028   3.843   0.080   4.038 -0.7651  0.3550 -1.5886
10358SOL    HW234029   3.885   0.151   3.911  1.3948  0.2280 -0.9986
10359SOL     OW34030   1.918   4.718   0.695  0.5564  0.7927  0.0403
10359SOL    HW134031   1.862   4.750   0.766 -0.6003 -1.6714  0.3741
10359SOL    HW234032   1.952   4.635   0.729  2.6574  1.1491 -1.0549
10360SOL     OW34033   3.759   1.843   1.000 -0.1224 -0.1808 -0.9054
10360SOL    HW134034   3.685   1.782   0.992  0.0240 -0.5358  0.3462
10360SOL    HW234035   3.750   1.901   0.924 -2.0079  0.1378 -0.4726
10361SOL     OW34036   5.358   7.107   5.862 -0.2279 -0.3462  0.0876
10361SOL    HW134037   5.323   7.175   5.804 -1.0117 -0.2122  0.7053
10361SOL    HW234038   5.330   7.133   5.950  1.4319 -0.2379  0.6092
10362SOL     OW34039   3.781   3.161   5.453 -0.2869  0.1910 -0.2288
10362SOL    HW134040   3.855   3.101   5.459  0.7098  1.4690  1.1010
10362SOL    HW234041   3.821   3.247   5.440 -1.2623  1.3958  3.4432
10363SOL     OW34042   5.404   5.492   5.670 -0.5351  0.3941 -0.0338
10363SOL    HW134043   5.400   5.568   5.727 -1.1980 -0.5354  1.2246
10363SOL    HW234044   5.418   5.418   5.730 -0.9462 -0.5876 -1.1064
10364SOL     OW34045   6.034   7.996   4.477  0.2610  0.1756  0.1486
10364SOL    HW134046   6.075   7.973   4.560  0.9216  0.0462 -0.2000
10364SOL    HW234047   6.087   7.951   4.411 -0.6038 -0.1962 -0.3040
10365SOL     OW34048   3.053   3.893   7.464 -0.3495  0.6850 -0.1452
10365SOL    HW134049   3.047   3.948   7.386  0.5275  1.2855  0.1994
10365SOL    HW234050   3.126   3.930   7.514 -0.5256 -0.0526  0.6767
10366SOL     OW34051   7.113   5.240   3.499 -0.9108 -0.2348 -0.0989
10366SOL    HW134052   7.088   5.172   3.561  0.6481  0.3454  1.2524
10366SOL    HW234053   7.042   5.304   3.503 -1.2019 -0.5910  0.5004
10367SOL     OW34054   3.452   1.859   4.718 -0.0928 -0.4673 -0.0292
10367SOL    HW134055   3.404   1.777   4.713 -0.7662 -0.1711  1.1832
10367SOL    HW234056   3.532   1.837   4.766 -0.3843 -0.3783  0.5060
10368SOL     OW34057   5.048   5.555   0.134 -0.3773  0.4621  0.3934
10368SOL    HW134058   4.983   5.555   0.064 -0.0686  1.6615  0.0842
10368SOL    HW234059   5.001   5.521   0.210 -1.4483  1.5230  0.2349
10369SOL     OW34060   5.848   0.966   5.757  0.0370  0.5550  0.1269
10369SOL    HW134061   5.821   0.946   5.847 -0.5317  1.6096  0.2160
10369SOL    HW234062   5.938   0.936   5.751 -0.8353 -2.3159  0.0964
10370SOL     OW34063   3.289   7.854   2.424 -0.8427 -0.4734  0.4822
10370SOL    HW134064   3.242   7.936   2.408  1.8057  1.6902  2.6813
10370SOL    HW234065   3.253   7.821   2.506  0.1098  0.2016  1.2000
10371SOL     OW34066   1.310   6.496   0.218 -0.7644  0.8647 -0.4079
10371SOL    HW134067   1.345   6.421   0.170 -1.3621  0.8545 -0.8501
10371SOL    HW234068   1.318   6.569   0.156 -2.4481  0.6583 -0.9408
10372SOL     OW34069   3.020   1.372   7.550  0.2185  0.1487  0.0362
10372SOL    HW134070   3.114   1.375   7.531  0.0038  1.4703 -0.9945
10372SOL    HW234071   2.991   1.287   7.518  0.3040  1.3784 -3.7361
10373SOL     OW34072   4.668   5.215   4.833 -0.1209  0.0285 -0.6797
10373SOL    HW134073   4.748   5.252   4.794  0.5974 -1.0619 -0.2901
10373SOL    HW234074   4.688   5.122   4.845 -0.3679  0.2290  2.0071
10374SOL     OW34075   2.376   3.033   0.439 -0.0150  0.3587 -0.2335
10374SOL    HW134076   2.297   3.032   0.492  0.0415 -2.0058 -0.0848
10374SOL    HW234077   2.439   2.980   0.488  0.5256 -0.6338 -1.9066
10375SOL     OW34078   7.747   7.944   1.526  0.3322  0.0704  0.1888
10375SOL    HW134079   7.696   7.901   1.457  0.4283  1.8218 -1.0540
10375SOL    HW234080   7.686   7.957   1.598  0.1329 -1.4772  0.3329
10376SOL     OW34081   2.005   4.782   7.774 -0.2283  0.1571 -1.1341
10376SOL    HW134082   1.914   4.781   7.745 -0.0171 -0.2818 -1.7857
10376SOL    HW234083   2.037   4.693   7.758 -0.0776 -0.0878  0.3782
10377SOL     OW34084   5.834   7.172   1.680  0.4220  0.3285  0.0505
10377SOL    HW134085   5.785   7.240   1.725 -0.7857 -1.5306  1.6308
10377SOL    HW234086   5.836   7.201   1.588 -2.0395  1.3515  0.2663
10378SOL     OW34087   8.062   2.595   3.940 -0.0700 -0.0775  0.4743
10378SOL    HW134088   7.966   2.591   3.945 -0.1183 -1.1509 -0.8706
10378SOL    HW234089   8.084   2.548   3.860  1.6165 -0.1362  0.9376
10379SOL     OW34090   2.465   4.232   3.866  0.3852 -0.1325 -0.3755
10379SOL    HW134091   2.520   4.176   3.921  0.3814 -0.8986 -1.1316
10379SOL    HW234092   2.511   4.316   3.864  0.7705 -0.3225  0.1766
10380SOL     OW34093   5.942   0.790   6.167  0.4025  0.0615 -0.0144
10380SOL    HW134094   5.934   0.695   6.158  0.8494  0.1673 -1.9978
10380SOL    HW234095   5.874   0.813   6.231  1.1862 -1.7114  1.5556
10381SOL     OW34096   2.377   0.012   2.177  0.0980  0.3820  0.4191
10381SOL    HW134097   2.470   0.003   2.155  0.0044  2.2169 -0.9726
10381SOL    HW234098   2.368  -0.035   2.260  1.6420 -2.2900 -0.7602
10382SOL     OW34099   3.954   5.614   6.195 -0.2382 -0.0706 -0.2847
10382SOL    HW134100   3.942   5.531   6.149 -1.0685 -0.3263  0.3769
10382SOL    HW234101   3.879   5.620   6.254  0.0883  0.9058  0.0492
10383SOL     OW34102   1.441   4.137   3.729  0.1397 -0.0281  0.2568
10383SOL    HW134103   1.360   4.085   3.732  0.6328 -0.7494  1.7465
10383SOL    HW234104   1.436   4.182   3.644 -1.1861 -1.0743 -0.2741
10384SOL     OW34105   4.133   1.332   0.273 -0.3260  0.2434 -0.0536
10384SOL    HW134106   4.076   1.388   0.326 -0.2907 -0.3115  0.5752
10384SOL    HW234107   4.080   1.255   0.253 -0.2290  0.3031 -0.5506
10385SOL     OW34108   5.416   2.175   2.034  0.0688  0.0547  0.0308
10385SOL    HW134109   5.377   2.247   1.983  0.0818 -0.4690 -0.7303
10385SOL    HW234110   5.404   2.098   1.979 -1.7344 -0.9173  1.6840
10386SOL     OW34111   3.876   6.545   2.512  0.3569 -0.3706 -0.4596
10386SOL    HW134112   3.893   6.603   2.586 -0.7009 -0.4821 -0.1240
10386SOL    HW234113   3.959   6.545   2.463  0.7154  0.5686  0.1144
10387SOL     OW34114   4.272   5.911   0.225  0.3866 -0.0826 -0.1273
10387SOL    HW134115   4.296   5.949   0.140  0.9785  1.0421  0.5213
10387SOL    HW234116   4.294   5.980   0.289  0.3068 -1.0541  0.9698
10388SOL     OW34117   7.734   2.028   7.806 -0.1265 -0.2841 -0.1258
10388SOL    HW134118   7.756   1.967   7.735 -1.8255  0.6771 -1.5657
10388SOL    HW234119   7.661   1.987   7.850 -1.5044  0.7872 -1.3166
10389SOL     OW34120   0.509   7.140   2.983 -0.1104  0.1298 -0.7223
10389SOL    HW134121   0.512   7.226   3.025  0.4861 -0.2683  0.0868
10389SOL    HW234122   0.420   7.132   2.951 -0.6617  0.3757  0.6789
10390SOL     OW34123   1.012   4.220   5.147  0.4061 -0.6211  0.5856
10390SOL    HW134124   0.925   4.260   5.147  0.9068  0.5360  0.1783
10390SOL    HW234125   1.063   4.277   5.205  1.3567 -0.1551 -0.6710
10391SOL     OW34126   0.989   7.641   2.413 -0.2828 -0.5630  0.2713
10391SOL    HW134127   0.979   7.568   2.474 -0.0618 -0.9523 -0.1534
10391SOL    HW234128   0.900   7.666   2.390 -0.3694 -0.3993  0.7673
10392SOL     OW34129   3.428   2.992   2.232 -0.0990 -0.2627  0.0078
10392SOL    HW134130   3.353   2.973   2.288 -0.3644 -0.3035 -0.3606
10392SOL    HW234131   3.443   2.911   2.184 -0.5086  0.0832 -0.7193
10393SOL     OW34132   2.608   0.471   7.961 -0.3140 -0.3336  0.5383
10393SOL    HW134133   2.689   0.466   8.012 -0.1997 -0.8416  0.3124
10393SOL    HW234134   2.632   0.519   7.882  0.1469 -1.7802 -0.2303
10394SOL     OW34135   0.242   4.985   5.379 -0.5228 -0.9563 -0.5173
10394SOL    HW134136   0.291   4.912   5.417  1.5896  1.3069  1.4844
10394SOL    HW234137   0.191   5.020   5.452 -0.2223  0.5001 -0.9672
10395SOL     OW34138   6.843   3.950   4.538  0.4254  0.1408  0.3595
10395SOL    HW134139   6.895   3.997   4.604  0.0768  0.5588  0.3393
10395SOL    HW234140   6.886   3.970   4.455 -0.7982  2.0145  0.0994
10396SOL     OW34141   2.715   2.179   1.382  0.0835  0.0825 -0.4753
10396SOL    HW134142   2.660   2.106   1.411  0.6862 -0.7256 -1.2958
10396SOL    HW234143   2.653   2.243   1.348 -0.4629 -0.0255  0.2911
10397SOL     OW34144   0.061   3.406   7.849 -0.1052  0.6647  0.0432
10397SOL    HW134145  -0.029   3.378   7.838  0.2082 -0.3664  0.0405
10397SOL    HW234146   0.058   3.502   7.840 -1.0202  0.5497 -1.1291
10398SOL     OW34147   0.184   2.629   1.585  0.4275  0.0202 -0.2537
10398SOL    HW134148   0.113   2.688   1.560  1.0784  0.2715 -1.6226
10398SOL    HW234149   0.263   2.672   1.553  0.9826 -1.2343 -0.6240
10399SOL     OW34150   0.069   7.206   0.694  0.2991  0.3105 -0.3753
10399SOL    HW134151   0.062   7.290   0.740  0.3305  0.2933 -0.3391
10399SOL    HW234152   0.071   7.140   0.763 -0.2052  0.2470 -0.4158
10400SOL     OW34153   4.501   1.414   4.464 -0.2710 -0.2906 -0.3883
10400SOL    HW134154   4.515   1.339   4.406 -2.1852  0.6320 -2.1407
10400SOL    HW234155   4.553   1.485   4.425  1.2527 -0.5268  1.0683
10401SOL     OW34156   4.764   1.945   3.688  0.0949 -0.8039  0.3307
10401SOL    HW134157   4.825   1.972   3.619  0.1236  1.3900  1.1309
10401SOL    HW234158   4.711   1.877   3.647  0.4215  0.0777 -1.7277
10402SOL     OW34159   0.964   2.829   1.517  0.6893 -0.3234  0.1507
10402SOL    HW134160   0.979   2.891   1.589  1.1937 -0.1437 -0.1026
10402SOL    HW234161   1.043   2.836   1.463  0.5148 -0.7962 -0.1711
10403SOL     OW34162   8.095   2.054   5.301 -0.1774  0.0830  0.2263
10403SOL    HW134163   8.145   2.124   5.342  1.5087 -0.8448 -0.1657
10403SOL    HW234164   8.160   1.998   5.258 -1.4346 -1.7909  0.5896
10404SOL     OW34165   5.497   7.003   7.906 -0.5932  0.2183  0.2670
10404SOL    HW134166   5.494   6.976   7.814  0.7459 -0.9334  0.5149
10404SOL    HW234167   5.412   7.044   7.922 -0.4780  1.3511 -1.7346
10405SOL     OW34168   1.193   7.565   4.932 -0.0671  0.2309  0.2497
10405SOL    HW134169   1.125   7.625   4.899 -0.2196  0.0771  0.2852
10405SOL    HW234170   1.168   7.480   4.897  0.1115  0.1755  0.2604
10406SOL     OW34171   2.527   3.939   5.973 -0.3203 -0.1219 -0.5931
10406SOL    HW134172   2.483   3.936   6.058  1.4526  0.0952  0.3729
10406SOL    HW234173   2.549   3.848   5.954 -1.6790 -0.3177 -1.3933
10407SOL     OW34174   2.641   5.439   5.132 -0.1264  0.7395  0.4682
10407SOL    HW134175   2.575   5.507   5.144  1.5269  3.0455 -2.2952
10407SOL    HW234176   2.719   5.472   5.177  0.5122  0.3754 -0.3349
10408SOL     OW34177   6.389   0.437   3.021  0.8722  0.3570  0.1057
10408SOL    HW134178   6.310   0.453   2.969  1.0778 -1.0821 -0.7060
10408SOL    HW234179   6.367   0.361   3.075  0.4390  2.1812  2.6853
10409SOL     OW34180   2.528   5.280   8.059  0.3713 -0.2936  0.1440
10409SOL    HW134181   2.501   5.334   8.133 -0.3680  0.1664 -0.4514
10409SOL    HW234182   2.604   5.232   8.092  0.7236  0.7093  0.8562
10410SOL     OW34183   1.676   7.082   4.035  0.2450 -0.2087  0.7137
10410SOL    HW134184   1.761   7.098   3.993  0.8234 -0.0871  1.8889
10410SOL    HW234185   1.678   6.989   4.058  0.5441  0.0271  1.7212
10411SOL     OW34186   0.743   5.677   4.087 -0.0217 -0.5631  0.8243
10411SOL    HW134187   0.815   5.614   4.085  0.4751  0.0041 -0.4347
10411SOL    HW234188   0.770   5.742   4.152  0.1813 -0.8449  1.0223
10412SOL     OW34189   1.827   4.697   4.432  0.0886 -0.1311  0.3287
10412SOL    HW134190   1.821   4.754   4.509 -1.2874 -0.9203  0.8277
10412SOL    HW234191   1.898   4.735   4.380  0.6790  0.7420  1.7118
10413SOL     OW34192   3.075   2.530   6.299  0.1637 -0.0697 -0.0406
10413SOL    HW134193   2.999   2.578   6.266  0.7225  1.4822  0.8635
10413SOL    HW234194   3.038   2.450   6.337 -1.1914  1.2116  1.4853
10414SOL     OW34195   2.561   5.789   5.476  0.2577  0.4149 -0.0122
10414SOL    HW134196   2.655   5.808   5.472  0.4271 -0.5608 -1.0304
10414SOL    HW234197   2.527   5.821   5.393 -0.3981  1.1069  0.5054
10415SOL     OW34198   1.512   3.659   4.889  0.4674 -0.4696 -1.0372
10415SOL    HW134199   1.541   3.569   4.907 -0.3669 -0.4568  0.5255
10415SOL    HW234200   1.426   3.665   4.931  1.0416  1.4405 -0.0138
10416SOL     OW34201   4.030   1.411   7.585 -0.6824  0.3103  0.0428
10416SOL    HW134202   4.039   1.346   7.655 -0.0724  1.3459  0.9413
10416SOL    HW234203   4.039   1.359   7.504 -1.0558 -0.8465  0.7175
10417SOL     OW34204   1.497   4.807   3.113 -0.2278  0.2726  0.1271
10417SOL    HW134205   1.578   4.842   3.149 -0.3574  0.3126  0.3864
10417SOL    HW234206   1.468   4.872   3.049 -0.9825  1.1450  1.3090
10418SOL     OW34207   3.889   2.774   5.962  0.1100 -0.0897  0.2956
10418SOL    HW134208   3.979   2.777   5.930 -0.2101 -0.3755 -0.6737
10418SOL    HW234209   3.859   2.686   5.939 -0.7902  0.3983 -0.4943
10419SOL     OW34210   6.847   0.428   4.178  0.2666  0.8850 -0.0813
10419SOL    HW134211   6.874   0.452   4.089 -0.1678  1.9368  0.0532
10419SOL    HW234212   6.811   0.509   4.214 -0.3249  0.2551  0.7655
10420SOL     OW34213   1.990   8.132   3.419  0.0983 -0.1665  0.1726
10420SOL    HW134214   1.994   8.110   3.512  0.6809 -1.4623 -0.1375
10420SOL    HW234215   2.081   8.148   3.394 -0.2085  1.8557  0.1735
10421SOL     OW34216   7.355   5.521   5.130 -0.1522 -0.3127  0.1441
10421SOL    HW134217   7.422   5.571   5.082 -1.6727  1.5819 -0.0914
10421SOL    HW234218   7.386   5.430   5.126  2.3753  0.4749  0.0156
10422SOL     OW34219   2.624   3.077   0.632  0.1795 -0.5237 -0.3584
10422SOL    HW134220   2.580   3.156   0.598  2.1699  0.1626 -1.5282
10422SOL    HW234221   2.592   3.068   0.722  0.4257  2.0758  0.0692
10423SOL     OW34222   5.794   0.525   6.617 -0.2513 -0.6456  0.2370
10423SOL    HW134223   5.778   0.516   6.711  0.8285 -0.7614  0.4240
10423SOL    HW234224   5.872   0.579   6.611 -2.1918  2.3341 -0.6923
10424SOL     OW34225   1.118   5.154   4.424 -0.2234 -0.6562  0.1239
10424SOL    HW134226   1.181   5.203   4.477 -1.7692 -0.3535  1.7451
10424SOL    HW234227   1.069   5.221   4.377  0.2966 -0.8697 -0.7466
10425SOL     OW34228   2.782   2.484   4.375  0.2163  0.2164 -0.5375
10425SOL    HW134229   2.857   2.426   4.390 -2.0958 -2.6072  1.2194
10425SOL    HW234230   2.739   2.448   4.298 -0.3830  0.5940 -0.3813
10426SOL     OW34231   7.733   0.797   2.621  0.0653  0.5398 -0.1010
10426SOL    HW134232   7.755   0.890   2.631  0.4430  0.5560 -0.9503
10426SOL    HW234233   7.787   0.767   2.548  0.9007 -0.6907  0.9793
10427SOL     OW34234   0.726   0.772   1.654 -0.4868 -0.1698  0.3379
10427SOL    HW134235   0.638   0.805   1.634 -0.1612 -0.4585 -1.7995
10427SOL    HW234236   0.747   0.715   1.580  0.9994 -1.1398  1.4513
10428SOL     OW34237   0.418   5.659   0.019  0.0116 -0.0666  0.1167
10428SOL    HW134238   0.503   5.696  -0.006 -0.7549  0.4081 -2.0289
10428SOL    HW234239   0.381   5.723   0.080  0.7888  0.2167  0.2951
10429SOL     OW34240   6.568   8.009   4.084  0.1613  0.4081 -0.1456
10429SOL    HW134241   6.518   8.083   4.049  0.1427  0.6622  0.4059
10429SOL    HW234242   6.601   7.964   4.006  0.0011  0.8762 -0.4950
10430SOL     OW34243   2.207   7.222   0.955  0.4045  0.4429 -0.0262
10430SOL    HW134244   2.158   7.228   1.037  0.7068  0.8894  0.1195
10430SOL    HW234245   2.175   7.141   0.915  0.8765 -0.2353  0.9276
10431SOL     OW34246   5.778   6.440   0.310 -0.2830 -0.1147 -0.6657
10431SOL    HW134247   5.818   6.401   0.388  0.8288 -1.2178 -1.7345
10431SOL    HW234248   5.684   6.424   0.321 -0.0914 -0.7318  0.2020
10432SOL     OW34249   4.061   5.642   4.826  0.1939 -0.6448 -0.0961
10432SOL    HW134250   4.010   5.577   4.874  0.8553 -0.5364  0.7872
10432SOL    HW234251   4.132   5.666   4.886  1.6767 -1.2687 -1.5134
10433SOL     OW34252   4.674   6.233   7.968 -0.6817  0.3303  0.4284
10433SOL    HW134253   4.681   6.329   7.969  1.3694  0.3437 -2.2401
10433SOL    HW234254   4.756   6.204   7.929 -2.7211 -2.2671 -2.3979
10434SOL     OW34255   5.866   2.189   6.938 -0.3649  0.0944 -0.3683
10434SOL    HW134256   5.899   2.222   7.021 -1.2717 -1.0822  0.4959
10434SOL    HW234257   5.881   2.260   6.876 -3.8431  3.0097  1.7201
10435SOL     OW34258   0.059   3.569   7.542  0.0855  0.1778  0.3667
10435SOL    HW134259   0.086   3.618   7.620 -2.4465  0.8317  0.9119
10435SOL    HW234260  -0.029   3.540   7.562  0.6718 -2.7476 -0.8779
10436SOL     OW34261   4.677   2.103   2.617 -0.8431  0.2883 -0.5955
10436SOL    HW134262   4.633   2.141   2.693  0.5203  0.2310  0.2755
10436SOL    HW234263   4.761   2.150   2.613 -0.5492 -0.2975 -1.5581
10437SOL     OW34264   6.726   7.205   4.714  0.2814  0.5909 -0.0324
10437SOL    HW134265   6.638   7.243   4.719  0.8644  2.3173 -1.6236
10437SOL    HW234266   6.732   7.148   4.790 -2.5643 -0.3816 -0.4405
10438SOL     OW34267   2.261   0.706   1.456 -0.3876 -0.1514  0.0989
10438SOL    HW134268   2.251   0.651   1.533  0.8263 -0.4981  0.0304
10438SOL    HW234269   2.179   0.696   1.407  0.0019 -2.2967 -0.1774
10439SOL     OW34270   2.442   2.796   4.937 -0.7550 -0.1441 -0.6195
10439SOL    HW134271   2.350   2.811   4.959  0.0111  0.7365  2.5728
10439SOL    HW234272   2.471   2.878   4.898 -1.1004 -0.0856 -0.7574
10440SOL     OW34273   1.947   3.136   0.164 -0.1800 -0.3913 -0.3522
10440SOL    HW134274   2.029   3.087   0.173 -0.4004 -0.5876  0.7359
10440SOL    HW234275   1.887   3.075   0.121  0.3055 -0.1552 -1.4030
10441SOL     OW34276   7.411   5.209   6.935 -0.0509  0.1467 -0.0783
10441SOL    HW134277   7.373   5.230   6.850  0.7788  1.3355 -0.1795
10441SOL    HW234278   7.407   5.113   6.940 -2.2146  0.1673 -0.4465
10442SOL     OW34279   7.462   4.979   5.672  0.1838 -0.4512 -0.3212
10442SOL    HW134280   7.427   4.893   5.695 -2.3988  0.5176 -0.3461
10442SOL    HW234281   7.528   4.996   5.740 -0.6184 -1.6412  0.8145
10443SOL     OW34282   4.682   0.425   2.834  0.1180  0.1584 -0.7436
10443SOL    HW134283   4.597   0.386   2.854  0.2530  0.0521 -0.3811
10443SOL    HW234284   4.678   0.512   2.873  1.2737 -0.8857  1.9273
10444SOL     OW34285   4.370   4.842   0.018  0.4092 -0.5276  0.3360
10444SOL    HW134286   4.377   4.767  -0.041  1.4109 -0.5989  0.5295
10444SOL    HW234287   4.370   4.803   0.106  1.7974 -0.2824  0.4755
10445SOL     OW34288   1.700   4.838   3.282 -0.4701  0.0336 -0.1876
10445SOL    HW134289   1.756   4.788   3.341  0.1894  0.4965 -0.4086
10445SOL    HW234290   1.632   4.874   3.338 -0.2018 -0.0388  0.1835
10446SOL     OW34291   2.064   2.128   5.147 -0.1404 -0.2035 -0.0035
10446SOL    HW134292   1.978   2.142   5.107 -0.3683  2.7749  1.3076
10446SOL    HW234293   2.125   2.131   5.073 -0.9695 -0.1348 -0.7006
10447SOL     OW34294   3.671   3.499   2.256 -0.6539  0.3660  0.0377
10447SOL    HW134295   3.635   3.414   2.232 -1.0651 -0.2858  2.7070
10447SOL    HW234296   3.764   3.482   2.273 -0.6785  0.4972  0.3124
10448SOL     OW34297   3.772   1.625   0.763  0.0086  0.3047  0.1194
10448SOL    HW134298   3.726   1.693   0.812  0.2568  0.6354 -0.1006
10448SOL    HW234299   3.732   1.543   0.792 -0.6941  0.5851 -0.0497
10449SOL     OW34300   3.061   3.432   6.558  0.2904  0.1157 -0.3115
10449SOL    HW134301   3.085   3.346   6.522  1.0107  0.4379 -0.6123
10449SOL    HW234302   3.017   3.411   6.641 -0.5028 -0.5872 -0.8892
10450SOL     OW34303   2.404   1.904   5.034  0.0725 -0.1038 -0.0857
10450SOL    HW134304   2.365   1.992   5.041 -1.3051 -0.5294 -1.6233
10450SOL    HW234305   2.497   1.918   5.051 -0.0768  1.7006 -0.4841
10451SOL     OW34306   2.715   1.038   1.698 -0.0702  0.3049 -0.1389
10451SOL    HW134307   2.761   1.076   1.773 -1.7794  0.7484  0.7251
10451SOL    HW234308   2.645   1.099   1.678  0.2368  0.1140 -2.0357
10452SOL     OW34309   2.951   4.085   0.522  0.8125  0.0828 -0.2012
10452SOL    HW134310   3.024   4.039   0.482  0.6230  0.5814 -1.1545
10452SOL    HW234311   2.939   4.042   0.607 -0.3283 -2.7040 -1.6169
10453SOL     OW34312   0.526   5.933   4.253 -0.2725 -0.1372 -0.0807
10453SOL    HW134313   0.462   5.983   4.304  0.9273 -0.0735  1.4396
10453SOL    HW234314   0.536   5.851   4.301  0.4980 -0.2974 -0.5020
10454SOL     OW34315   5.449   7.545   6.516 -0.3554  0.0070  0.0891
10454SOL    HW134316   5.444   7.578   6.427 -0.5213  0.2390  0.1821
10454SOL    HW234317   5.370   7.580   6.559 -1.1300 -1.4242 -0.1148
10455SOL     OW34318   4.385   3.185   4.100  0.6308 -0.4839  0.1358
10455SOL    HW134319   4.338   3.108   4.133  1.7007 -0.6626  1.3425
10455SOL    HW234320   4.376   3.250   4.170 -2.3658  1.4985 -1.8390
10456SOL     OW34321   7.528   3.118   2.976  0.3279  0.4021 -0.2187
10456SOL    HW134322   7.505   3.119   2.883 -1.7605  0.7297  0.2522
10456SOL    HW234323   7.447   3.096   3.021  1.0393  1.2532  1.5991
10457SOL     OW34324   0.462   4.868   2.148  0.3266  0.8582  0.1990
10457SOL    HW134325   0.411   4.852   2.068 -0.5775  0.5863  0.8100
10457SOL    HW234326   0.425   4.949   2.184  1.3479  1.4820 -0.1287
10458SOL     OW34327   1.152   4.744   3.537 -0.3271 -0.1062 -0.0983
10458SOL    HW134328   1.177   4.826   3.495 -0.0709 -0.7605 -1.2546
10458SOL    HW234329   1.169   4.677   3.471 -0.3710 -1.1112  0.8882
10459SOL     OW34330   7.630   1.944   4.624 -0.0920  0.2668 -0.3306
10459SOL    HW134331   7.629   2.008   4.695  0.1758  0.4444 -0.4850
10459SOL    HW234332   7.561   1.882   4.647  0.2913  0.0708  0.3174
10460SOL     OW34333   0.468   0.359   5.523  0.3298  0.3544  0.6501
10460SOL    HW134334   0.515   0.440   5.501  2.3527 -1.0024 -0.2941
10460SOL    HW234335   0.470   0.308   5.443  0.2720 -1.1969  1.6049
10461SOL     OW34336   6.747   4.329   3.853  0.5524 -0.2990  0.1383
10461SOL    HW134337   6.831   4.282   3.844  0.0734 -1.3656  0.9834
10461SOL    HW234338   6.692   4.270   3.905 -0.7205  0.4026 -0.3753
10462SOL     OW34339   4.494   6.915   6.637 -0.1075  0.3838 -0.5568
10462SOL    HW134340   4.587   6.894   6.623  0.0754 -0.2251  1.2671
10462SOL    HW234341   4.452   6.830   6.650 -1.0290  0.6240 -1.8393
10463SOL     OW34342   3.984   3.002   1.118 -0.1464 -0.5707  0.0515
10463SOL    HW134343   3.974   3.044   1.203 -0.9995 -0.3719 -0.1362
10463SOL    HW234344   4.057   3.048   1.077 -1.3808  1.1085 -0.3598
10464SOL     OW34345   5.906   4.737   2.282 -0.0979  0.0672  0.0592
10464SOL    HW134346   5.826   4.684   2.279  0.4685 -0.7753 -0.9107
10464SOL    HW234347   5.915   4.771   2.193  0.0890  0.9968  0.4220
10465SOL     OW34348   2.920   6.910   1.216  0.0712  0.1837  0.1518
10465SOL    HW134349   2.952   6.825   1.249  0.1288  0.2651  0.3083
10465SOL    HW234350   2.935   6.906   1.122 -1.6367 -0.7235 -0.1221
10466SOL     OW34351   1.576   1.940   0.710  0.4518 -0.1001  0.0669
10466SOL    HW134352   1.545   2.028   0.731  0.3377 -0.3091  0.8002
10466SOL    HW234353   1.596   1.943   0.616 -1.5600  0.1033 -0.3916
10467SOL     OW34354   2.905   0.009   0.486  0.1210  0.0009 -0.1226
10467SOL    HW134355   2.831  -0.011   0.429 -0.5044 -1.1521  1.0381
10467SOL    HW234356   2.980  -0.034   0.445 -0.2737 -0.6086 -0.2141
10468SOL     OW34357   6.855   2.718   1.046  0.8764 -0.1757  0.1595
10468SOL    HW134358   6.760   2.719   1.029  0.9997  0.8973 -0.6015
10468SOL    HW234359   6.873   2.804   1.085  1.7133  0.0995 -0.8014
10469SOL     OW34360   4.647   2.688   5.221  0.1073  0.2512  0.3650
10469SOL    HW134361   4.665   2.782   5.228  1.3863 -0.0195  1.0350
10469SOL    HW234362   4.602   2.679   5.137 -0.0950  1.4690  0.3225
10470SOL     OW34363   5.621   0.662   7.966  0.2458  0.2457 -0.3964
10470SOL    HW134364   5.658   0.575   7.976 -1.0994 -0.1716  1.6684
10470SOL    HW234365   5.540   0.648   7.918 -1.3904 -0.1819  2.2350
10471SOL     OW34366   4.264   2.733   3.399 -0.0404  0.0527 -0.1876
10471SOL    HW134367   4.309   2.760   3.479  0.2557  1.0349 -0.6650
10471SOL    HW234368   4.173   2.760   3.412 -0.1814 -0.5781  0.1663
10472SOL     OW34369   5.223   3.144   0.027  0.3062  0.6184  0.1119
10472SOL    HW134370   5.165   3.107  -0.040  0.9491 -0.1254 -0.0567
10472SOL    HW234371   5.213   3.239   0.018  0.7062  0.5525 -1.3512
10473SOL     OW34372   0.440   2.622   0.138  0.0785 -0.2359 -0.8301
10473SOL    HW134373   0.463   2.537   0.175 -2.5882 -0.1862  1.2998
10473SOL    HW234374   0.349   2.612   0.109 -0.0475  1.6662 -1.2249
10474SOL     OW34375   3.588   7.174   1.879 -0.6708 -0.1009  0.3771
10474SOL    HW134376   3.612   7.190   1.970 -0.9601 -0.9183  0.6068
10474SOL    HW234377   3.572   7.079   1.874 -1.3772  0.0378 -0.3456
10475SOL     OW34378   6.749   0.835   2.580 -0.3124  0.1792 -0.0489
10475SOL    HW134379   6.785   0.835   2.669 -0.6930 -3.6962  0.2866
10475SOL    HW234380   6.655   0.817   2.593 -0.1538 -1.7421 -1.1845
10476SOL     OW34381   7.449   4.029   7.506 -0.7247  0.5219 -0.3624
10476SOL    HW134382   7.506   3.955   7.526 -0.9964 -0.6881 -3.5495
10476SOL    HW234383   7.367   4.009   7.551  0.4108  1.0001  2.1116
10477SOL     OW34384   1.536   7.882   3.323  0.7138 -0.4751 -0.4901
10477SOL    HW134385   1.617   7.920   3.359 -0.2356  0.8063  0.3746
10477SOL    HW234386   1.466   7.935   3.361 -0.4435 -0.1051 -2.9730
10478SOL     OW34387   4.538   3.607   2.198  0.4184  0.2004 -0.0653
10478SOL    HW134388   4.471   3.560   2.249 -1.3551  0.4366 -2.0527
10478SOL    HW234389   4.512   3.699   2.204 -0.3400  0.1606 -2.0047
10479SOL     OW34390   6.798   1.816   0.181  0.3901 -0.0759 -0.7209
10479SOL    HW134391   6.866   1.750   0.163 -0.1878 -0.6891 -0.7096
10479SOL    HW234392   6.829   1.860   0.260  0.4422 -0.8278 -0.3059
10480SOL     OW34393   3.139   3.163   6.463 -0.0317  0.5555 -0.1667
10480SOL    HW134394   3.206   3.094   6.457  0.5373  0.8112  2.2054
10480SOL    HW234395   3.063   3.119   6.502  0.4368  1.2522  1.6506
10481SOL     OW34396   7.222   7.702   3.482 -0.1584  0.8029  0.7292
10481SOL    HW134397   7.286   7.770   3.503 -0.5887  1.1975  0.7646
10481SOL    HW234398   7.212   7.653   3.564  1.5823 -0.5228  0.2118
10482SOL     OW34399   1.763   0.177   3.244  0.6899 -0.5336 -0.1684
10482SOL    HW134400   1.808   0.115   3.302  1.4329 -0.6126 -0.8125
10482SOL    HW234401   1.736   0.248   3.302 -0.4218 -1.5711  0.6310
10483SOL     OW34402   6.825   7.094   2.659  0.1299  0.5040 -0.3949
10483SOL    HW134403   6.785   7.112   2.745  0.2542  1.1998 -0.4747
10483SOL    HW234404   6.907   7.144   2.660 -0.4746  1.5634 -1.3979
10484SOL     OW34405   6.557   8.013   3.386 -0.3077  0.0284  0.0767
10484SOL    HW134406   6.608   8.062   3.451 -0.1884 -0.8792  0.6795
10484SOL    HW234407   6.608   7.935   3.369 -1.0042 -0.3991 -0.0838
10485SOL     OW34408   1.494   4.513   6.739  0.8411 -0.0336 -0.5071
10485SOL    HW134409   1.438   4.552   6.671 -0.6568  1.5014  1.4782
10485SOL    HW234410   1.440   4.443   6.777  2.5719 -2.5690 -2.3597
10486SOL     OW34411   0.563   4.309   0.877  0.5936 -0.4336 -0.2494
10486SOL    HW134412   0.543   4.310   0.784 -0.5700 -0.5233 -0.0226
10486SOL    HW234413   0.572   4.216   0.899  0.1102 -0.4592 -0.1372
10487SOL     OW34414   1.977   8.127   6.907  0.1736 -0.1502  0.0794
10487SOL    HW134415   2.007   8.094   6.822  1.5088  0.5094  0.2675
10487SOL    HW234416   2.051   8.178   6.940  0.5713 -2.1947  2.6659
10488SOL     OW34417   0.513   3.698   2.187 -0.4670 -0.1204 -0.7854
10488SOL    HW134418   0.517   3.684   2.281 -0.8469  0.9273 -0.6034
10488SOL    HW234419   0.441   3.759   2.174  0.7386  1.2063 -1.5617
10489SOL     OW34420   1.706   4.764   6.452 -0.2617 -0.0907 -0.5591
10489SOL    HW134421   1.711   4.711   6.532 -0.7045  1.2243  0.3904
10489SOL    HW234422   1.620   4.743   6.415  0.1474 -1.0758 -0.9793
10490SOL     OW34423   4.450   4.027   1.424  0.0589 -0.1898  0.0962
10490SOL    HW134424   4.491   4.055   1.342 -1.9920 -1.5101 -1.4848
10490SOL    HW234425   4.358   4.013   1.401 -0.2008 -2.4400  2.1479
10491SOL     OW34426   5.075   0.136   0.451  0.0303  0.1527  0.5282
10491SOL    HW134427   5.029   0.078   0.391 -1.4560  2.4069 -0.6565
10491SOL    HW234428   5.137   0.183   0.395 -0.0768  0.9838  1.0993
10492SOL     OW34429   0.266   4.132   4.270 -0.2921  0.7849 -0.2616
10492SOL    HW134430   0.353   4.091   4.274 -0.4743  0.2558 -1.3341
10492SOL    HW234431   0.217   4.088   4.340 -0.7601 -1.6098 -1.9517
10493SOL     OW34432   2.072   7.002   0.822  0.4254  0.1509 -0.0242
10493SOL    HW134433   2.011   7.039   0.758 -0.4665 -1.2200  0.0002
10493SOL    HW234434   2.020   6.994   0.902  1.0782  0.3488  0.4319
10494SOL     OW34435   2.081   0.697   1.199  0.0911  0.3373 -0.1703
10494SOL    HW134436   2.033   0.771   1.162 -1.0481 -1.1611 -1.8396
10494SOL    HW234437   2.121   0.654   1.123  3.1754  0.8203  1.0314
10495SOL     OW34438   5.392   6.119   3.192  0.0227  0.3897  0.0853
10495SOL    HW134439   5.485   6.114   3.212 -0.7476 -0.3028  4.4981
10495SOL    HW234440   5.372   6.033   3.154  0.8109 -0.4064  1.3836
10496SOL     OW34441   5.194   5.671   0.752 -0.5355  0.4166  0.2379
10496SOL    HW134442   5.150   5.748   0.715 -1.7116 -0.3043  0.0730
10496SOL    HW234443   5.175   5.675   0.846 -1.2304 -0.0596  0.1225
10497SOL     OW34444   1.220   2.468   2.150 -0.6644 -0.9327 -0.2027
10497SOL    HW134445   1.306   2.477   2.109 -0.3244 -0.2572  0.6163
10497SOL    HW234446   1.194   2.377   2.134  0.8073 -1.5381  0.6899
10498SOL     OW34447   6.140   4.641   5.299 -1.0965  0.6506 -0.5153
10498SOL    HW134448   6.167   4.608   5.213 -1.3912  0.0495 -0.3802
10498SOL    HW234449   6.222   4.662   5.343 -0.8558 -0.5935 -0.3351
10499SOL     OW34450   6.343   8.035   4.396 -0.4071  0.1248 -0.0182
10499SOL    HW134451   6.415   7.995   4.445  0.0770  0.9347 -0.0403
10499SOL    HW234452   6.368   8.026   4.304 -0.0286  0.9398 -0.0041
10500SOL     OW34453   4.443   2.592   6.859  0.1671 -0.0025 -0.0766
10500SOL    HW134454   4.424   2.683   6.884  1.3267  0.3390 -0.3404
10500SOL    HW234455   4.407   2.539   6.930  1.9954  0.8453  1.5962
10501SOL     OW34456   7.323   6.139   1.356  0.1976  0.3765  0.5334
10501SOL    HW134457   7.273   6.213   1.392 -0.5702 -0.3246  0.9424
10501SOL    HW234458   7.270   6.062   1.376  0.9082 -0.2786 -0.0294
10502SOL     OW34459   8.077   5.794   6.496 -0.1127 -0.0291 -0.2918
10502SOL    HW134460   8.029   5.738   6.434  0.2461 -0.5809 -0.0748
10502SOL    HW234461   8.092   5.875   6.447 -0.0637 -0.3618 -0.8409
10503SOL     OW34462   4.177   7.382   4.683 -0.3799  0.3061  0.3347
10503SOL    HW134463   4.161   7.461   4.631  1.9041  0.7964  0.2431
10503SOL    HW234464   4.118   7.389   4.757 -1.0726  1.4903 -0.3027
10504SOL     OW34465   3.672   0.579   2.171 -0.5019  0.3222 -0.1794
10504SOL    HW134466   3.681   0.667   2.208 -0.1093 -0.1726  0.9641
10504SOL    HW234467   3.700   0.521   2.242 -1.4234 -0.7555 -0.6681
10505SOL     OW34468   3.354   7.364   4.326 -0.3963  0.0392  0.4597
10505SOL    HW134469   3.259   7.366   4.326 -0.4016 -0.1116  0.2907
10505SOL    HW234470   3.380   7.408   4.407 -0.6219 -0.4762  0.8210
10506SOL     OW34471   3.853   7.634   4.410 -0.0719  0.3776 -0.1813
10506SOL    HW134472   3.924   7.699   4.413 -0.4208  0.7944 -0.6771
10506SOL    HW234473   3.775   7.685   4.389 -0.4947 -0.1012  0.2026
10507SOL     OW34474   2.722   0.602   5.842 -0.4753 -0.0519 -0.2223
10507SOL    HW134475   2.710   0.518   5.798 -2.0220 -0.4883  0.9165
10507SOL    HW234476   2.639   0.648   5.827  0.8685  1.9279 -2.0631
10508SOL     OW34477   2.203   7.596   7.688  0.5200 -0.3641  0.2352
10508SOL    HW134478   2.276   7.630   7.636 -0.1653  0.0521 -0.4793
10508SOL    HW234479   2.137   7.571   7.623 -1.0101  1.6552  0.9157
10509SOL     OW34480   5.584   6.525   2.772 -0.6115  0.4293 -0.1677
10509SOL    HW134481   5.577   6.621   2.769 -0.6753  0.4170 -0.3793
10509SOL    HW234482   5.650   6.509   2.839 -1.8438  0.5712  1.1340
10510SOL     OW34483   1.755   4.124   3.929 -0.1248 -0.2254  0.1644
10510SOL    HW134484   1.790   4.089   3.847 -0.6727  0.0721 -0.2062
10510SOL    HW234485   1.832   4.154   3.978  0.0646  2.0259 -1.3706
10511SOL     OW34486   2.518   4.031   4.046 -0.3733 -0.1076  0.2671
10511SOL    HW134487   2.499   3.958   3.987 -0.8336 -0.5417  0.9339
10511SOL    HW234488   2.580   3.994   4.109  2.1794  1.0459 -1.3901
10512SOL     OW34489   4.062   0.880   2.927 -0.1892  0.1876 -0.6046
10512SOL    HW134490   4.112   0.819   2.873 -0.2628  0.2893 -0.7895
10512SOL    HW234491   4.128   0.929   2.975 -0.1650 -1.1702  0.8056
10513SOL     OW34492   6.069   4.220   7.276  0.1062  0.5363 -0.0475
10513SOL    HW134493   6.045   4.312   7.272  2.3299  1.1815  0.1960
10513SOL    HW234494   5.986   4.174   7.290 -1.4120  2.2557 -2.5680
10514SOL     OW34495   6.146   7.846   4.243  0.3548 -0.2232  0.3126
10514SOL    HW134496   6.216   7.896   4.201  0.7723  0.2927  1.5908
10514SOL    HW234497   6.166   7.755   4.224  0.0836  0.0243 -1.2798
10515SOL     OW34498   7.394   6.179   4.670 -0.1786  0.3957 -0.0203
10515SOL    HW134499   7.366   6.223   4.590 -0.3972 -0.0420 -0.1913
10515SOL    HW234500   7.321   6.190   4.731 -0.3276  0.0828 -0.1395
10516SOL     OW34501   4.272   3.464   2.053  0.8099  0.1010 -0.5394
10516SOL    HW134502   4.322   3.455   2.134  3.7800 -1.0433 -2.3438
10516SOL    HW234503   4.279   3.557   2.030 -0.1204  0.4475  0.5065
10517SOL     OW34504   5.615   5.809   2.176  0.6291  0.1038 -0.6098
10517SOL    HW134505   5.633   5.872   2.246 -3.3347  0.4585  0.3040
10517SOL    HW234506   5.618   5.724   2.219  0.4932  0.1196 -0.5699
10518SOL     OW34507   7.524   4.030   7.244  0.0466 -0.8419 -0.5291
10518SOL    HW134508   7.600   3.973   7.254  0.5779  0.0602  0.8444
10518SOL    HW234509   7.467   4.007   7.317  1.0808  1.5063  1.1713
10519SOL     OW34510   6.531   1.486   1.571  0.8070 -0.5667 -0.1408
10519SOL    HW134511   6.588   1.440   1.510 -0.3697 -0.7644 -1.1196
10519SOL    HW234512   6.507   1.566   1.526  0.7959 -0.1866  0.5240
10520SOL     OW34513   1.540   1.868   5.709  0.1368  0.0272  0.4514
10520SOL    HW134514   1.581   1.830   5.632  1.1544 -1.9183  1.8673
10520SOL    HW234515   1.591   1.947   5.728 -0.5891  0.9432 -1.2382
10521SOL     OW34516   4.668   3.824   0.607  0.3099  0.4348 -0.4340
10521SOL    HW134517   4.759   3.800   0.586  0.2809  0.9363 -1.1577
10521SOL    HW234518   4.647   3.771   0.684  0.7830 -0.6671 -1.0428
10522SOL     OW34519   0.635   1.268   6.658  0.0813 -0.1647  0.1722
10522SOL    HW134520   0.547   1.301   6.642  0.3428  0.4571 -0.0274
10522SOL    HW234521   0.623   1.190   6.713 -0.6958 -1.0343 -1.1806
10523SOL     OW34522   7.147   0.589   4.481 -0.3224  0.7286 -0.2212
10523SOL    HW134523   7.239   0.566   4.469  0.1548  2.0445  0.6906
10523SOL    HW234524   7.102   0.544   4.410  0.6634 -1.9071  0.7024
10524SOL     OW34525   3.346   4.131   5.937 -0.1229  0.1916  0.3500
10524SOL    HW134526   3.333   4.225   5.949  1.8710  0.6532 -0.6483
10524SOL    HW234527   3.376   4.100   6.023  0.6289  0.7759  0.3155
10525SOL     OW34528   6.461   7.721   5.595 -0.1226  0.6155  0.0938
10525SOL    HW134529   6.515   7.648   5.626  0.3884  0.7874 -0.3961
10525SOL    HW234530   6.522   7.794   5.584 -0.8249  1.5776  1.9680
10526SOL     OW34531   6.542   6.473   1.358 -0.4121  0.6574  0.0745
10526SOL    HW134532   6.447   6.479   1.345 -0.3297 -0.1753 -1.0836
10526SOL    HW234533   6.576   6.553   1.318 -0.5849  0.6580 -0.0755
10527SOL     OW34534   7.487   1.736   3.258  0.3785 -0.3845  0.5358
10527SOL    HW134535   7.505   1.674   3.328  2.7671  0.1824  0.4970
10527SOL    HW234536   7.555   1.720   3.193 -0.3029  0.7852 -0.5219
10528SOL     OW34537   4.415   2.827   0.621  0.1216 -0.1186  0.0586
10528SOL    HW134538   4.392   2.906   0.670 -0.2866 -0.4152  0.3480
10528SOL    HW234539   4.453   2.769   0.687  0.3775 -0.1841 -0.1454
10529SOL     OW34540   1.329   6.697   3.586 -0.1110 -0.1506 -0.7169
10529SOL    HW134541   1.341   6.790   3.567 -0.3194 -0.6535 -3.8410
10529SOL    HW234542   1.416   6.667   3.613 -0.2014  1.0412  1.0330
10530SOL     OW34543   6.434   5.790   0.732  0.7006  0.2211  0.2964
10530SOL    HW134544   6.491   5.721   0.698  0.0175 -1.4141  2.2585
10530SOL    HW234545   6.468   5.807   0.820 -0.4339  0.8983  0.6188
10531SOL     OW34546   1.916   6.001   4.664  0.4626 -0.6127 -0.1177
10531SOL    HW134547   1.850   5.985   4.731 -0.0615 -1.7510 -0.8839
10531SOL    HW234548   1.913   6.096   4.649 -1.5010 -0.7133 -0.6264
10532SOL     OW34549   1.495   2.715   1.567 -0.0875  0.3573  0.0663
10532SOL    HW134550   1.576   2.670   1.591 -0.9346 -1.0499  0.3762
10532SOL    HW234551   1.521   2.777   1.499  0.8508 -1.8747 -1.7273
10533SOL     OW34552   6.590   1.040   1.480  0.2927 -0.9630 -0.5069
10533SOL    HW134553   6.655   1.004   1.540 -2.2223 -0.8620  2.4961
10533SOL    HW234554   6.533   0.965   1.459 -1.4975 -0.1247  1.0314
10534SOL     OW34555   3.659   4.635   2.733 -0.3168 -0.4758  0.1455
10534SOL    HW134556   3.727   4.568   2.728 -1.4579 -1.7037  0.4616
10534SOL    HW234557   3.594   4.607   2.668 -0.1614  1.1188 -0.7379
10535SOL     OW34558   6.694   6.107   5.474 -0.0930  0.2466  0.0987
10535SOL    HW134559   6.779   6.146   5.457  0.5841 -0.3121  2.0062
10535SOL    HW234560   6.695   6.024   5.426  0.0655  0.6450 -0.5997
10536SOL     OW34561   3.488   6.314   2.878  0.0389 -0.1361 -0.5196
10536SOL    HW134562   3.562   6.374   2.889  0.8007 -0.8077 -1.7755
10536SOL    HW234563   3.437   6.351   2.806 -0.9297  0.3680  0.3885
10537SOL     OW34564   1.089   7.081   7.654  0.1870  0.3218  0.1830
10537SOL    HW134565   1.070   7.041   7.739 -1.3393 -0.7099 -0.5769
10537SOL    HW234566   1.092   7.175   7.671  1.2591  0.0642  1.5817
10538SOL     OW34567   0.476   6.581   5.714 -0.0217 -0.4038 -0.5622
10538SOL    HW134568   0.441   6.663   5.679  0.5566  0.3104  0.4833
10538SOL    HW234569   0.432   6.512   5.664 -0.0419  0.5537 -1.9063
10539SOL     OW34570   2.445   7.266   0.813 -0.1414 -0.3536  0.1491
10539SOL    HW134571   2.359   7.258   0.854 -0.2935  0.9883  0.1381
10539SOL    HW234572   2.429   7.245   0.721 -0.6791  0.8528 -0.0555
10540SOL     OW34573   3.692   4.405   7.817 -0.2791  0.1149  0.0438
10540SOL    HW134574   3.657   4.493   7.809 -3.4062 -1.1909 -2.5878
10540SOL    HW234575   3.631   4.360   7.875 -0.0076 -0.8783 -0.4216
10541SOL     OW34576   7.985   5.015   5.539  0.3178  0.1873 -0.2597
10541SOL    HW134577   8.031   4.934   5.518 -1.5708 -0.2240 -3.3527
10541SOL    HW234578   7.894   4.999   5.513 -1.1480  1.8656  3.1216
10542SOL     OW34579   5.502   4.362   4.910  0.0965 -0.0950  0.1602
10542SOL    HW134580   5.416   4.365   4.952 -0.5158 -0.6972 -1.0145
10542SOL    HW234581   5.501   4.282   4.858  1.7573 -0.6557  0.9136
10543SOL     OW34582   0.356   2.096   1.344  0.3365  0.1414  0.2718
10543SOL    HW134583   0.385   2.168   1.400  1.1898  0.6479 -0.7880
10543SOL    HW234584   0.391   2.017   1.387  0.3324  0.4524  0.8549
10544SOL     OW34585   7.677   0.001   4.760 -0.3028 -0.1504  0.0573
10544SOL    HW134586   7.657  -0.080   4.713  1.2989 -0.3435 -0.3227
10544SOL    HW234587   7.660   0.071   4.697  2.9928 -0.4562 -1.3535
10545SOL     OW34588   5.708   5.410   0.850 -0.3945 -0.0630 -0.4124
10545SOL    HW134589   5.642   5.440   0.787  1.0085 -0.2101 -2.0285
10545SOL    HW234590   5.774   5.365   0.796  0.5734 -0.7287  1.2491
10546SOL     OW34591   2.626   2.129   0.060 -0.1374  0.3836 -0.5772
10546SOL    HW134592   2.721   2.121   0.062 -0.1836 -0.2837 -0.9421
10546SOL    HW234593   2.610   2.223   0.070  0.4494  0.2484  2.6304
10547SOL     OW34594   0.540   1.688   7.246 -0.5043 -0.1379 -0.1638
10547SOL    HW134595   0.498   1.634   7.312  0.1557 -1.6244 -0.8978
10547SOL    HW234596   0.565   1.768   7.292  1.4348 -1.7872  1.8603
10548SOL     OW34597   6.573   6.691   6.861  0.6564  0.2714  0.7290
10548SOL    HW134598   6.512   6.756   6.827 -0.4219 -2.0414 -2.1510
10548SOL    HW234599   6.660   6.724   6.837  0.3642  1.8743  1.7311
10549SOL     OW34600   3.277   2.590   7.381 -0.1165 -0.2177 -0.1161
10549SOL    HW134601   3.292   2.652   7.453  2.1067 -3.1920  2.2591
10549SOL    HW234602   3.365   2.567   7.351 -0.9173  1.9322 -5.0289
10550SOL     OW34603   5.313   1.518   3.427 -0.8581  0.6313 -0.0482
10550SOL    HW134604   5.385   1.484   3.480 -0.6570  1.5302  0.2655
10550SOL    HW234605   5.347   1.514   3.337 -0.2898  1.3365  0.1243
10551SOL     OW34606   8.047   7.104   3.066 -0.2295 -0.0691  0.0253
10551SOL    HW134607   8.121   7.164   3.075  1.1321 -1.8575  1.7671
10551SOL    HW234608   8.051   7.075   2.975  0.8518  0.3454 -0.0770
10552SOL     OW34609   5.838   2.670   5.922 -0.2043 -0.1214  0.0382
10552SOL    HW134610   5.835   2.634   5.834 -3.4147 -0.2008  0.0610
10552SOL    HW234611   5.846   2.765   5.909  0.6680 -0.2388 -0.2878
10553SOL     OW34612   3.827   3.302   1.637  0.5057 -0.5270  0.0689
10553SOL    HW134613   3.864   3.359   1.705  0.1650  0.7640 -0.7875
10553SOL    HW234614   3.829   3.355   1.557 -1.6008 -0.9942 -0.3700
10554SOL     OW34615   1.398   4.440   1.460 -0.2538  0.1919 -0.2551
10554SOL    HW134616   1.458   4.375   1.425 -0.6953 -0.6155  0.4290
10554SOL    HW234617   1.322   4.389   1.489 -1.3067  1.1849 -1.1556
10555SOL     OW34618   3.990   7.696   2.546 -0.5038 -0.3205  0.5556
10555SOL    HW134619   4.009   7.606   2.520  0.6810  0.3537 -1.0578
10555SOL    HW234620   3.901   7.712   2.515  0.9079  0.5389 -3.6894
10556SOL     OW34621   6.743   7.378   3.061 -0.7213  0.7525  0.3950
10556SOL    HW134622   6.740   7.438   2.986  0.2401  0.1986 -0.1009
10556SOL    HW234623   6.664   7.399   3.111  0.1020  3.1350  0.8023
10557SOL     OW34624   1.308   1.003   1.098  0.2622 -1.1060  0.0387
10557SOL    HW134625   1.243   1.055   1.052  0.6511 -1.0747 -0.4863
10557SOL    HW234626   1.373   1.067   1.128  0.2621 -1.1822  0.2027
10558SOL     OW34627   2.692   7.883   5.145  0.0737 -0.5603  0.2261
10558SOL    HW134628   2.669   7.849   5.232 -0.1666 -1.7144 -0.2733
10558SOL    HW234629   2.784   7.906   5.152 -0.1639  0.2211  1.0433
10559SOL     OW34630   4.493   7.203   7.320  0.0103  0.1512  0.6604
10559SOL    HW134631   4.452   7.271   7.267  1.0348  0.6330  0.4637
10559SOL    HW234632   4.508   7.131   7.259 -1.2362 -0.3478  0.9067
10560SOL     OW34633   6.081   0.252   1.011  0.0960  0.7205  0.0355
10560SOL    HW134634   6.030   0.323   1.049  1.1023  2.5223 -1.7448
10560SOL    HW234635   6.172   0.273   1.033  0.4201  0.0969 -0.6409
10561SOL     OW34636   1.950   2.206   0.833  0.5288  0.0109 -0.0158
10561SOL    HW134637   1.881   2.242   0.777  1.3413 -0.2933 -1.2559
10561SOL    HW234638   1.972   2.278   0.893 -1.4923 -0.1826  1.0804
10562SOL     OW34639   0.375   1.034   1.308  0.5092  0.1255  0.0180
10562SOL    HW134640   0.320   1.042   1.386  0.0552  0.2979 -0.3201
10562SOL    HW234641   0.452   1.088   1.328  0.5751 -0.1350  0.4994
10563SOL     OW34642   3.243   5.195   8.096  0.3914  0.8345 -0.2860
10563SOL    HW134643   3.175   5.177   8.032  0.1867 -0.7751  0.3468
10563SOL    HW234644   3.252   5.114   8.147  3.7353  0.4329 -1.2350
10564SOL     OW34645   6.283   0.512   5.263  0.3522  0.1892 -0.3161
10564SOL    HW134646   6.335   0.517   5.183 -1.8745  0.3431 -1.8420
10564SOL    HW234647   6.337   0.555   5.330  2.1226  0.3536 -1.7877
10565SOL     OW34648   7.021   0.375   0.697  0.2716 -0.4368  0.6189
10565SOL    HW134649   6.965   0.433   0.748 -0.4833 -0.2713 -0.3742
10565SOL    HW234650   7.075   0.331   0.763  0.4456  0.9310  1.4360
10566SOL     OW34651   0.207   0.328   3.050 -0.6651  0.1733  0.1134
10566SOL    HW134652   0.143   0.266   3.085 -0.8730 -0.1597 -0.8302
10566SOL    HW234653   0.239   0.288   2.969  3.6371 -1.5207  2.3606
10567SOL     OW34654   7.630   1.941   5.751 -0.3084  0.5428 -0.3198
10567SOL    HW134655   7.711   1.930   5.702 -0.2180 -1.8395  0.2557
10567SOL    HW234656   7.562   1.948   5.684  0.0968 -0.1412 -0.8171
10568SOL     OW34657   8.133   0.131   3.114  0.2259  0.2412 -0.0768
10568SOL    HW134658   8.175   0.052   3.148 -0.3883 -0.1753 -0.2715
10568SOL    HW234659   8.042   0.124   3.143 -0.2367  0.0436 -1.4900
10569SOL     OW34660   4.815   1.564   0.133  0.1581 -0.0279  0.1054
10569SOL    HW134661   4.769   1.537   0.053 -1.0907 -0.9087  1.0751
10569SOL    HW234662   4.745   1.597   0.190  0.8300 -0.6373  1.3162
10570SOL     OW34663   4.563   4.715   0.232  0.6428  0.1816 -0.2840
10570SOL    HW134664   4.604   4.762   0.159 -0.2855  1.2388 -0.1564
10570SOL    HW234665   4.570   4.776   0.306 -1.3918  0.5487 -0.3259
10571SOL     OW34666   8.019   0.893   4.486  0.3108  0.0853  0.1304
10571SOL    HW134667   7.963   0.846   4.548 -0.1475 -1.0252 -1.0804
10571SOL    HW234668   7.960   0.952   4.440 -0.1806 -1.9186 -1.9665
10572SOL     OW34669   2.197   5.971   7.177 -0.9078  0.2108 -0.7734
10572SOL    HW134670   2.144   6.012   7.108 -2.8616 -1.7351 -0.5445
10572SOL    HW234671   2.139   5.971   7.253  1.4970  3.1516  1.3028
10573SOL     OW34672   1.781   2.642   6.063  0.0278 -0.3141  0.4633
10573SOL    HW134673   1.794   2.724   6.015  0.8971 -0.4881  0.3781
10573SOL    HW234674   1.719   2.592   6.010  0.1588 -0.0678  0.0736
10574SOL     OW34675   7.410   0.615   3.476 -0.1420 -0.5057 -0.2227
10574SOL    HW134676   7.402   0.605   3.382 -0.2057 -2.8210 -0.0312
10574SOL    HW234677   7.502   0.639   3.490 -0.5264  1.5534 -0.9211
10575SOL     OW34678   5.316   4.568   5.397  0.3236 -0.4420  0.3147
10575SOL    HW134679   5.232   4.545   5.438 -0.4867  1.8072  0.0382
10575SOL    HW234680   5.359   4.624   5.461  0.9168 -0.3069 -0.1980
10576SOL     OW34681   2.550   7.188   2.549 -0.5962  0.0693  0.0093
10576SOL    HW134682   2.556   7.158   2.640 -0.1334 -0.5890 -0.2338
10576SOL    HW234683   2.458   7.215   2.539  0.0263  3.3029  1.6307
10577SOL     OW34684   2.656   1.516   4.045 -0.4686 -0.3659  0.3240
10577SOL    HW134685   2.666   1.611   4.056  0.5176 -0.5288  0.9949
10577SOL    HW234686   2.585   1.492   4.105 -0.2653 -0.1376  0.6621
10578SOL     OW34687   6.372   7.083   5.605  0.3465  0.8012  0.0998
10578SOL    HW134688   6.380   6.996   5.566  0.2904  0.1246  1.5260
10578SOL    HW234689   6.316   7.131   5.544 -2.5100 -1.2313  0.8632
10579SOL     OW34690   0.006   4.947   8.036 -0.4198  0.0342 -0.1822
10579SOL    HW134691   0.031   5.034   8.067  0.2614 -0.5664  1.0078
10579SOL    HW234692   0.085   4.914   7.993 -0.1604 -0.6198  0.7809
10580SOL     OW34693   5.889   2.325   6.713 -0.1782  0.4727  0.6439
10580SOL    HW134694   5.971   2.368   6.738  0.8380 -1.0893  0.1574
10580SOL    HW234695   5.820   2.380   6.751  1.1364  0.9932  2.3927
10581SOL     OW34696   1.407   0.762   3.388 -0.2113  0.1068 -0.5741
10581SOL    HW134697   1.372   0.691   3.441 -0.4764  0.7282  0.1000
10581SOL    HW234698   1.483   0.724   3.344  0.4247 -0.2387  0.7864
10582SOL     OW34699   7.827   2.562   1.959 -0.1008  0.9349 -0.5040
10582SOL    HW134700   7.830   2.466   1.964 -1.3708  0.8948 -0.0746
10582SOL    HW234701   7.918   2.588   1.946  0.5206 -0.2298  1.1291
10583SOL     OW34702   4.470   6.562   6.000  0.6455 -0.0530  0.2890
10583SOL    HW134703   4.520   6.622   6.056  0.4206  0.3022  0.1152
10583SOL    HW234704   4.479   6.477   6.042  0.2729  0.2505  1.0110
10584SOL     OW34705   3.084   7.407   4.268  0.1379  0.1843 -0.1850
10584SOL    HW134706   3.004   7.375   4.227  0.8166  0.9086 -2.1994
10584SOL    HW234707   3.060   7.422   4.359 -2.1804  0.9090 -0.8415
10585SOL     OW34708   0.376   1.469   7.627 -0.3152  0.6159 -0.0809
10585SOL    HW134709   0.409   1.427   7.548 -0.1074 -0.8970  0.7709
10585SOL    HW234710   0.344   1.554   7.597  0.3471  0.3472 -1.6693
10586SOL     OW34711   3.196   2.626   2.262  0.1352  0.4909  0.2730
10586SOL    HW134712   3.237   2.539   2.260 -0.3236  0.2750  0.0949
10586SOL    HW234713   3.236   2.669   2.338  1.1729  0.5297 -0.2709
10587SOL     OW34714   0.751   4.372   5.540 -0.0392  0.6638 -0.2215
10587SOL    HW134715   0.694   4.433   5.493 -1.2250  0.3970  0.8340
10587SOL    HW234716   0.734   4.390   5.632 -0.3929 -1.2364  0.1217
10588SOL     OW34717   8.057   5.190   7.703 -0.0509 -0.1499 -0.2083
10588SOL    HW134718   8.132   5.137   7.731  0.0297 -0.8030 -1.6107
10588SOL    HW234719   7.984   5.128   7.700 -1.0216  0.7083  2.3688
10589SOL     OW34720   2.531   3.985   5.223  0.2642 -0.5373  0.1681
10589SOL    HW134721   2.506   4.040   5.297  0.9689 -1.7195  1.3241
10589SOL    HW234722   2.456   3.927   5.209  0.4192 -0.7980  0.4239
10590SOL     OW34723   3.821   4.079   1.303  0.1154  0.1852 -0.5973
10590SOL    HW134724   3.780   4.143   1.245  1.1175  0.5069 -0.9704
10590SOL    HW234725   3.791   4.104   1.391  0.8610  1.4756 -0.6868
10591SOL     OW34726   0.952   0.745   5.081 -0.4090 -0.1328 -0.2100
10591SOL    HW134727   1.003   0.665   5.070  1.5422  1.0364 -0.1602
10591SOL    HW234728   0.861   0.715   5.087  0.4743 -2.6853  3.4603
10592SOL     OW34729   6.999   3.688   2.479  0.2884  0.1175 -0.0728
10592SOL    HW134730   7.021   3.736   2.559 -0.2472  1.1885 -0.5530
10592SOL    HW234731   7.068   3.623   2.470  0.4694  0.1217  1.1520
10593SOL     OW34732   0.081   5.305   5.338  0.4526  0.9935  0.5069
10593SOL    HW134733   0.000   5.334   5.381  0.0501 -0.2288  0.5932
10593SOL    HW234734   0.142   5.377   5.352 -0.0180  1.1105  2.1344
10594SOL     OW34735   7.855   2.210   1.325 -0.4372 -0.3653 -0.0440
10594SOL    HW134736   7.949   2.228   1.320 -0.6418  0.8178  0.0240
10594SOL    HW234737   7.846   2.120   1.293  0.8652 -0.9991  1.2457
10595SOL     OW34738   5.402   6.370   2.639  0.2683  0.5365  0.0220
10595SOL    HW134739   5.471   6.418   2.685 -0.5642  2.8099 -0.9298
10595SOL    HW234740   5.351   6.438   2.595 -1.8361 -1.1616 -0.3340
10596SOL     OW34741   5.998   0.710   0.445 -0.1930  0.0170  0.3885
10596SOL    HW134742   5.918   0.700   0.497 -1.0061  0.2090 -0.7867
10596SOL    HW234743   5.971   0.692   0.355  1.1501 -0.1591 -0.0025
10597SOL     OW34744   0.702   5.505   4.388 -0.1355  0.1880 -0.3927
10597SOL    HW134745   0.739   5.587   4.422  0.5859  0.1135 -0.9740
10597SOL    HW234746   0.749   5.436   4.436 -1.2804  0.1009  0.6531
10598SOL     OW34747   1.341   4.835   6.026  0.2291  0.0168 -0.1456
10598SOL    HW134748   1.367   4.811   6.115 -1.5208  1.5130  0.8304
10598SOL    HW234749   1.414   4.888   5.993  1.4261 -1.5475 -0.0900
10599SOL     OW34750   6.846   1.770   5.037 -0.2913  0.3090  0.2167
10599SOL    HW134751   6.889   1.772   4.952 -0.4484  1.9163  0.1466
10599SOL    HW234752   6.860   1.858   5.073 -3.1614  0.8067  0.3432
10600SOL     OW34753   0.243   1.214   5.069 -0.0536 -0.0817 -0.7592
10600SOL    HW134754   0.234   1.206   5.164 -1.3338 -1.2133 -0.9471
10600SOL    HW234755   0.276   1.303   5.055  0.7720 -0.1191  0.7604
10601SOL     OW34756   6.605   4.576   2.445 -0.1771 -0.1421  0.5735
10601SOL    HW134757   6.524   4.620   2.419 -1.4674 -2.3137  0.6505
10601SOL    HW234758   6.671   4.607   2.382 -1.3481  0.7858 -0.2240
10602SOL     OW34759   6.118   2.751   2.949 -0.4914  0.4989  0.1903
10602SOL    HW134760   6.034   2.724   2.988 -1.1618 -0.1332 -1.5941
10602SOL    HW234761   6.178   2.681   2.972 -1.2521 -0.6270 -1.0811
10603SOL     OW34762   5.887   2.672   7.671  0.6138  0.3088 -0.0690
10603SOL    HW134763   5.930   2.611   7.611 -0.6001 -1.7272  1.0293
10603SOL    HW234764   5.846   2.616   7.737  1.1351  2.4051  2.1800
10604SOL     OW34765   1.964   7.536   4.730 -0.0575  0.2065  0.3072
10604SOL    HW134766   2.021   7.466   4.764 -0.9740  0.8709  3.4971
10604SOL    HW234767   1.884   7.490   4.703  0.6966 -0.3372 -1.1388
10605SOL     OW34768   7.125   6.877   4.736 -0.2512 -0.1509 -0.0850
10605SOL    HW134769   7.119   6.972   4.748  0.6932 -0.0472 -0.3690
10605SOL    HW234770   7.206   6.864   4.688 -0.0742 -1.1523  0.4570
10606SOL     OW34771   4.183   2.098   4.818  0.6111  0.1381  0.1013
10606SOL    HW134772   4.119   2.147   4.870  0.9242  0.8770 -0.2018
10606SOL    HW234773   4.153   2.007   4.823 -0.2772  0.4287  0.2330
10607SOL     OW34774   5.416   1.811   7.878 -0.1965 -0.2170 -0.1966
10607SOL    HW134775   5.421   1.721   7.847  2.0007 -0.3317  0.3587
10607SOL    HW234776   5.385   1.861   7.802 -1.6637 -1.4342 -0.4419
10608SOL     OW34777   5.135   3.603   6.423  0.6867 -0.4535  0.2006
10608SOL    HW134778   5.049   3.566   6.443  2.2350 -3.4251  2.1545
10608SOL    HW234779   5.162   3.558   6.342  0.8687 -0.4398  0.2525
10609SOL     OW34780   5.677   0.184   4.725 -0.2412 -0.1819  0.4287
10609SOL    HW134781   5.732   0.120   4.679  0.2347 -0.0442  0.8091
10609SOL    HW234782   5.736   0.255   4.749 -0.9140  0.7839 -0.6714
10610SOL     OW34783   2.134   1.420   7.081 -0.1592  0.1753 -0.2398
10610SOL    HW134784   2.110   1.510   7.062  1.9173  1.3019  1.9730
10610SOL    HW234785   2.230   1.421   7.083 -0.0937 -2.0279  0.1125
10611SOL     OW34786   3.201   2.138   7.007 -0.0927 -0.0262  0.2895
10611SOL    HW134787   3.112   2.153   6.975 -0.1266  0.2710  0.5218
10611SOL    HW234788   3.190   2.083   7.085  0.1436 -3.1288 -1.6961
10612SOL     OW34789   0.057   3.714   2.506 -0.6027 -0.2736  0.2091
10612SOL    HW134790   0.064   3.618   2.507  2.4458 -0.1529  0.2631
10612SOL    HW234791   0.148   3.744   2.516 -1.5349  2.6377  0.6606
10613SOL     OW34792   4.410   3.759   2.786 -0.2756 -0.4930 -0.1493
10613SOL    HW134793   4.446   3.676   2.815 -0.5123 -0.7121 -0.4674
10613SOL    HW234794   4.442   3.769   2.696  1.2186  0.6262  0.4774
10614SOL     OW34795   7.994   6.390   7.802 -0.2714  0.1523  0.0678
10614SOL    HW134796   7.969   6.362   7.714 -1.6548  0.0212  0.4882
10614SOL    HW234797   7.975   6.484   7.804 -1.2389 -0.0460  0.5536
10615SOL     OW34798   2.999   6.260   7.960  0.1567 -0.0049  0.1124
10615SOL    HW134799   3.074   6.321   7.960  1.1286 -1.1602  0.2339
10615SOL    HW234800   3.010   6.210   8.041 -0.3725 -0.6446 -0.2107
10616SOL     OW34801   7.542   4.201   5.913 -0.8854 -0.4690  0.0778
10616SOL    HW134802   7.539   4.296   5.909 -0.9450 -0.4595  0.3689
10616SOL    HW234803   7.520   4.179   6.003  0.2586 -0.7117  0.3081
10617SOL     OW34804   3.868   3.627   3.620 -0.6084  0.2065  0.5645
10617SOL    HW134805   3.894   3.634   3.712 -0.0594  0.5944  0.3895
10617SOL    HW234806   3.944   3.588   3.577 -1.7306 -2.2416  0.6454
10618SOL     OW34807   0.668   2.096   6.098  0.0840  0.6545 -0.1293
10618SOL    HW134808   0.726   2.118   6.171 -1.0147 -1.0460  1.3087
10618SOL    HW234809   0.580   2.113   6.131 -0.6387 -2.7967  0.0326
10619SOL     OW34810   6.570   0.856   1.817  0.1333 -0.1748  0.4042
10619SOL    HW134811   6.545   0.799   1.744 -0.2809 -1.4652  1.5136
10619SOL    HW234812   6.646   0.904   1.785 -1.2338  0.8069 -1.5943
10620SOL     OW34813   2.087   1.820   7.891  0.1209  0.3214  0.1798
10620SOL    HW134814   2.029   1.887   7.854 -0.0560  1.2719  2.0542
10620SOL    HW234815   2.174   1.860   7.887 -0.0475  0.9021  1.7247
10621SOL     OW34816   7.620   0.335   5.438  0.1215  0.1618 -0.2708
10621SOL    HW134817   7.670   0.353   5.518 -2.7077  1.1908  1.4096
10621SOL    HW234818   7.599   0.422   5.403 -1.7485 -0.1520 -0.0222
10622SOL     OW34819   1.345   3.752   0.472  0.7551  0.1485  0.4457
10622SOL    HW134820   1.430   3.795   0.475  1.0619 -0.4294  0.1718
10622SOL    HW234821   1.318   3.757   0.380  0.1908  0.9020  0.6448
10623SOL     OW34822   1.939   0.565   5.184 -0.4842  0.5324  0.3747
10623SOL    HW134823   2.029   0.585   5.211  0.3294 -0.7628 -1.1673
10623SOL    HW234824   1.885   0.624   5.236  1.2716  1.5859  1.1213
10624SOL     OW34825   6.199   3.497   4.029  0.5179 -0.9571 -0.0975
10624SOL    HW134826   6.148   3.569   3.991  0.5865 -1.2565 -0.7690
10624SOL    HW234827   6.132   3.439   4.065  0.4981 -0.0209  1.4770
10625SOL     OW34828   6.129   6.838   6.915 -0.0563 -0.0175 -0.0059
10625SOL    HW134829   6.121   6.867   6.824 -0.5944  1.4374  0.4710
10625SOL    HW234830   6.156   6.916   6.963 -1.5954 -0.2535  1.3561
10626SOL     OW34831   4.882   5.566   5.616  0.4659  0.2548  0.3682
10626SOL    HW134832   4.894   5.629   5.687  0.7629 -0.7257  1.2046
10626SOL    HW234833   4.787   5.561   5.604  0.4063  0.3558  0.7689
10627SOL     OW34834   5.818   6.012   0.451 -0.5451 -1.0973  0.5266
10627SOL    HW134835   5.880   6.081   0.475 -0.3198 -0.8637 -0.6442
10627SOL    HW234836   5.870   5.950   0.400 -1.2853 -0.8256 -0.5919
10628SOL     OW34837   5.047   7.151   5.114  0.0474  0.0097 -0.3217
10628SOL    HW134838   4.954   7.133   5.124 -0.0919  0.5959 -0.4951
10628SOL    HW234839   5.087   7.065   5.099 -0.0156 -0.7173  2.8495
10629SOL     OW34840   0.787   7.494   4.797 -0.4677  0.2111  0.3673
10629SOL    HW134841   0.699   7.456   4.787 -0.3512 -0.2586  1.0433
10629SOL    HW234842   0.830   7.437   4.861  1.3868 -1.4035 -2.1498
10630SOL     OW34843   6.419   7.034   4.677 -0.4696 -0.2784 -0.1588
10630SOL    HW134844   6.418   7.124   4.708 -2.9631 -0.2978 -0.0031
10630SOL    HW234845   6.332   7.001   4.696  0.9317 -3.3780  1.5148
10631SOL     OW34846   7.743   6.315   6.479  0.1907  0.9995 -0.5883
10631SOL    HW134847   7.666   6.292   6.427 -0.0724  0.4735  0.0295
10631SOL    HW234848   7.804   6.242   6.464 -0.6404 -0.1470  1.3710
10632SOL     OW34849   1.924   5.037   3.570  0.1887 -0.0811 -0.1435
10632SOL    HW134850   2.018   5.023   3.583 -0.2455 -2.0764  1.3924
10632SOL    HW234851   1.891   4.951   3.545 -1.1084  0.8334 -1.7642
10633SOL     OW34852   1.926   5.485   5.240 -0.2927 -0.6578 -0.0020
10633SOL    HW134853   1.931   5.510   5.332 -0.9303  1.0053 -0.3815
10633SOL    HW234854   1.854   5.423   5.236 -1.3118  0.4604  0.4114
10634SOL     OW34855   7.855   4.783   7.524 -0.0110 -0.0250  0.6811
10634SOL    HW134856   7.793   4.777   7.597  0.5619 -0.4259  1.1491
10634SOL    HW234857   7.840   4.704   7.473  1.2425 -0.9963  1.7352
10635SOL     OW34858   8.006   0.332   3.573  0.5426  0.2212  0.4052
10635SOL    HW134859   7.975   0.366   3.656  2.0264 -0.6449  1.3722
10635SOL    HW234860   7.990   0.238   3.578 -1.2734  0.3808 -1.2070
10636SOL     OW34861   6.413   7.167   7.678 -0.1506 -0.6017 -0.4743
10636SOL    HW134862   6.387   7.168   7.770  1.3243  1.8232  0.0036
10636SOL    HW234863   6.467   7.089   7.669 -1.9598 -1.9974  0.1530
10637SOL     OW34864   1.206   6.009   5.446  0.9354 -0.1215 -0.4066
10637SOL    HW134865   1.302   6.007   5.444  1.0175 -2.6045  1.3500
10637SOL    HW234866   1.185   6.053   5.529  0.7840 -3.4882  1.5202
10638SOL     OW34867   2.788   1.616   4.415 -0.5791  0.1088 -0.7081
10638SOL    HW134868   2.796   1.528   4.454  0.3871  0.2283 -0.5958
10638SOL    HW234869   2.709   1.653   4.454  1.1249  0.8270  2.4430
10639SOL     OW34870   1.153   0.086   1.020  0.2770 -0.2230 -0.0415
10639SOL    HW134871   1.133   0.055   1.108  0.9570 -0.0924  0.1661
10639SOL    HW234872   1.137   0.180   1.023  0.8028 -0.1349  0.0956
10640SOL     OW34873   3.817   3.842   1.741 -0.0549 -0.4600  0.4394
10640SOL    HW134874   3.893   3.803   1.784  0.1417  0.5656  1.0541
10640SOL    HW234875   3.834   3.936   1.742 -1.8070 -0.1137  1.5347
10641SOL     OW34876   7.564   0.061   5.434 -0.6424 -0.1789  0.0653
10641SOL    HW134877   7.488   0.057   5.376 -0.0942  0.4159 -0.7169
10641SOL    HW234878   7.589   0.154   5.435 -1.4579  0.0854  2.3616
10642SOL     OW34879   3.141   5.251   2.593 -0.3708 -0.3212 -1.0275
10642SOL    HW134880   3.212   5.299   2.635 -0.6506  0.5958 -1.5633
10642SOL    HW234881   3.139   5.166   2.638  1.7706 -0.8014 -1.7564
10643SOL     OW34882   7.187   4.461   7.354  0.1820 -0.5008  0.3388
10643SOL    HW134883   7.164   4.443   7.445 -1.6141 -1.2357 -0.2276
10643SOL    HW234884   7.114   4.512   7.320  0.2062 -1.3461 -1.0484
10644SOL     OW34885   2.271   7.103   4.850  0.5415  0.2563 -0.1672
10644SOL    HW134886   2.276   7.198   4.844  1.6089  0.1195 -2.6206
10644SOL    HW234887   2.310   7.082   4.935  0.5342  1.9791  0.2962
10645SOL     OW34888   1.897   7.883   1.626  0.0589 -0.5143  0.0730
10645SOL    HW134889   1.833   7.845   1.687 -0.3974 -2.2889 -1.3980
10645SOL    HW234890   1.848   7.948   1.577 -0.3133 -1.0285 -0.2442
10646SOL     OW34891   3.245   5.417   2.142  0.1551 -0.2102 -0.0290
10646SOL    HW134892   3.287   5.437   2.227  0.4641  0.2491 -0.2849
10646SOL    HW234893   3.317   5.383   2.088  0.8403  3.0052 -1.3252
10647SOL     OW34894   6.578   4.561   5.827  0.4686  0.5705 -0.4499
10647SOL    HW134895   6.610   4.492   5.885  0.2727 -0.3045 -1.3548
10647SOL    HW234896   6.502   4.597   5.873  3.0665  3.2665  2.1544
10648SOL     OW34897   0.484   7.321   6.429 -0.1915 -0.2585 -0.1467
10648SOL    HW134898   0.442   7.235   6.424 -1.4593  0.4088 -2.6760
10648SOL    HW234899   0.574   7.305   6.401  0.3267 -1.1167  1.8377
10649SOL     OW34900   7.767   7.987   4.342  0.2026 -0.1234 -0.4548
10649SOL    HW134901   7.751   7.992   4.247 -0.8938  0.4966 -0.2583
10649SOL    HW234902   7.718   7.910   4.371 -0.9198  0.6725 -0.1494
10650SOL     OW34903   5.509   7.002   4.320  0.1326  0.0882 -0.1901
10650SOL    HW134904   5.548   6.969   4.239  0.6228  0.7514 -0.2424
10650SOL    HW234905   5.540   7.093   4.325  2.0677 -0.5830  1.9275
10651SOL     OW34906   1.838   0.536   4.061 -0.4531 -0.2459 -0.7046
10651SOL    HW134907   1.800   0.622   4.080 -1.3580 -0.4928 -1.3020
10651SOL    HW234908   1.881   0.547   3.976 -0.4279 -0.3315 -0.7032
10652SOL     OW34909   6.978   6.202   5.467  0.1668 -0.5649  0.2204
10652SOL    HW134910   7.048   6.264   5.447  0.2806 -0.7236  0.1363
10652SOL    HW234911   6.994   6.176   5.558 -0.1278 -0.1437  0.4023
10653SOL     OW34912   8.000   4.416   6.428  0.2058 -0.0645  0.1545
10653SOL    HW134913   7.957   4.424   6.513 -0.3319 -1.4600  0.0332
10653SOL    HW234914   7.929   4.424   6.364  0.5839  0.8208 -0.1798
10654SOL     OW34915   6.041   5.460   6.050  0.4091 -0.6841  0.1600
10654SOL    HW134916   5.957   5.436   6.010  0.5890  0.5338 -0.9981
10654SOL    HW234917   6.091   5.378   6.049 -0.1319 -1.0266 -0.7643
10655SOL     OW34918   2.145   2.391   3.099 -0.5332  0.0312  0.1375
10655SOL    HW134919   2.211   2.330   3.131  1.3124 -0.4510 -3.9265
10655SOL    HW234920   2.062   2.348   3.119  0.3245 -0.3640  3.5098
10656SOL     OW34921   3.145   0.202   4.166 -0.1065 -0.4790  0.3648
10656SOL    HW134922   3.152   0.268   4.235 -3.1782  1.0193 -0.5963
10656SOL    HW234923   3.149   0.251   4.085 -0.1765 -1.7967 -0.4664
10657SOL     OW34924   1.308   4.384   4.791  0.0028 -0.0240 -0.1512
10657SOL    HW134925   1.327   4.363   4.700  0.2932  1.5507 -0.4878
10657SOL    HW234926   1.231   4.331   4.813  1.3673 -2.2706 -0.5161
10658SOL     OW34927   6.521   6.868   2.945 -0.3076  0.3989  0.0560
10658SOL    HW134928   6.493   6.959   2.931 -1.3115  0.1761  0.5165
10658SOL    HW234929   6.555   6.840   2.860  1.0707  1.5459  0.1863
10659SOL     OW34930   0.801   3.437   6.665  0.2260  1.2046 -0.0061
10659SOL    HW134931   0.850   3.385   6.601 -1.0410  0.9898 -0.8350
10659SOL    HW234932   0.731   3.478   6.615 -0.7223  1.1483  1.2156
10660SOL     OW34933   2.176   0.403   7.611  0.6979  0.0471 -0.2772
10660SOL    HW134934   2.132   0.476   7.654 -1.5297 -0.2313 -1.9064
10660SOL    HW234935   2.150   0.326   7.662  2.2522  0.2334  0.8568
10661SOL     OW34936   5.575   2.381   0.766 -0.2040 -0.5084  0.0348
10661SOL    HW134937   5.594   2.423   0.850  0.4775 -0.1922 -0.2657
10661SOL    HW234938   5.573   2.453   0.703 -0.5138 -0.7648 -0.2541
10662SOL     OW34939   4.697   3.798   0.263  0.0008  0.5500  0.3397
10662SOL    HW134940   4.745   3.766   0.340 -0.3468  0.4886  0.5335
10662SOL    HW234941   4.673   3.888   0.286  0.1070  0.6147  0.2020
10663SOL     OW34942   3.102   7.391   5.630  0.3837  0.1803  0.4492
10663SOL    HW134943   3.171   7.404   5.565 -0.1581 -0.6957 -0.3090
10663SOL    HW234944   3.079   7.480   5.657 -0.2075  0.6463 -1.4320
10664SOL     OW34945   0.697   2.093   7.159  0.4154  0.0097  0.1585
10664SOL    HW134946   0.646   2.157   7.208  0.3546  0.9282 -1.0330
10664SOL    HW234947   0.707   2.018   7.218  1.0323  1.3582  1.8448
10665SOL     OW34948   6.345   3.151   4.965  0.2390  0.1557 -0.1900
10665SOL    HW134949   6.260   3.119   4.994 -0.1693  0.8290 -0.6111
10665SOL    HW234950   6.367   3.222   5.026 -0.5731  1.5018 -1.3748
10666SOL     OW34951   0.172   4.774   2.046  0.1692 -0.1330  0.3311
10666SOL    HW134952   0.124   4.711   1.993 -1.1202  1.4139 -0.3862
10666SOL    HW234953   0.226   4.822   1.984  1.0210 -0.3816  0.8542
10667SOL     OW34954   7.482   3.901   5.506 -0.2697 -0.1478 -0.4671
10667SOL    HW134955   7.524   3.977   5.545 -0.3926  0.1980 -1.0004
10667SOL    HW234956   7.486   3.916   5.412 -1.1801 -0.3227 -0.5484
10668SOL     OW34957   4.687   6.324   2.535 -0.4728  0.6045 -0.5897
10668SOL    HW134958   4.649   6.247   2.491  0.2263  0.4497 -0.9408
10668SOL    HW234959   4.777   6.297   2.556 -0.3963  1.1383 -0.2271
10669SOL     OW34960   1.989   3.177   1.302 -0.5421  0.0050 -0.1511
10669SOL    HW134961   2.001   3.272   1.302 -0.1328 -0.0309 -1.1407
10669SOL    HW234962   2.072   3.143   1.268 -0.1346 -0.7963  1.5488
10670SOL     OW34963   5.447   4.341   6.004 -0.0970  0.4707  0.0559
10670SOL    HW134964   5.384   4.331   5.932  1.2106  0.1948 -1.1044
10670SOL    HW234965   5.530   4.361   5.960  0.4677  1.6672  1.5844
10671SOL     OW34966   8.098   7.348   2.495  0.6587 -0.4076 -0.3916
10671SOL    HW134967   8.178   7.382   2.455  1.0371 -1.8500 -0.9178
10671SOL    HW234968   8.028   7.400   2.456  1.2306 -0.0043 -0.9059
10672SOL     OW34969   1.803   1.145   4.253 -0.1124 -0.4518 -0.1728
10672SOL    HW134970   1.721   1.125   4.208  0.1298 -0.4974 -0.5988
10672SOL    HW234971   1.829   1.231   4.219  0.1998 -0.5981 -0.3072
10673SOL     OW34972   4.189   7.161   3.697 -0.2957 -0.6742  0.2954
10673SOL    HW134973   4.191   7.123   3.609  1.6974 -1.7195  0.7247
10673SOL    HW234974   4.113   7.120   3.739 -3.2014  2.1345 -1.7712
10674SOL     OW34975   2.999   3.749   2.989 -0.2839 -0.0543  0.0574
10674SOL    HW134976   3.054   3.674   2.968  1.0319  0.2901  2.0561
10674SOL    HW234977   2.962   3.728   3.074 -0.9062  1.0276  0.0647
10675SOL     OW34978   3.248   1.664   2.393  0.3152  0.5424  0.3243
10675SOL    HW134979   3.183   1.608   2.435  0.6729  0.3697  0.6425
10675SOL    HW234980   3.195   1.729   2.346 -0.0930  0.2300  0.3417
10676SOL     OW34981   7.565   6.148   6.888  0.3098  0.6879 -0.3221
10676SOL    HW134982   7.569   6.223   6.947 -0.4296 -0.1134  0.7850
10676SOL    HW234983   7.520   6.080   6.938 -1.1254  0.2401 -2.0977
10677SOL     OW34984   2.735   7.753   0.228 -0.2853 -0.6496 -0.9568
10677SOL    HW134985   2.758   7.681   0.168  0.9943 -1.1387  0.0517
10677SOL    HW234986   2.743   7.714   0.315  1.8703  1.0468 -0.3089
10678SOL     OW34987   1.510   5.448   6.165  0.3248  1.0181  0.1296
10678SOL    HW134988   1.599   5.472   6.192  0.0510  0.9089  1.1809
10678SOL    HW234989   1.455   5.475   6.239 -0.1862 -1.4013  0.7345
10679SOL     OW34990   1.560   4.663   3.969 -0.3286  0.6717 -0.4554
10679SOL    HW134991   1.525   4.574   3.979  1.0799 -0.0548 -1.6260
10679SOL    HW234992   1.652   4.655   3.993  0.1047  1.5365 -1.7359
10680SOL     OW34993   4.692   1.292   7.526  0.1281  0.1666  0.0766
10680SOL    HW134994   4.734   1.209   7.503 -0.0496  0.5533 -1.8513
10680SOL    HW234995   4.761   1.357   7.515 -0.6838  0.7203 -2.4444
10681SOL     OW34996   4.253   5.675   5.385 -0.3237 -0.1199 -0.2255
10681SOL    HW134997   4.296   5.643   5.305  0.3714 -0.9605  0.4627
10681SOL    HW234998   4.306   5.750   5.412 -0.8380  0.4618 -0.8009
10682SOL     OW34999   3.174   2.991   2.667  0.0794  0.0073  0.3216
10682SOL    HW135000   3.265   2.965   2.671 -0.2881 -1.2697  0.7725
10682SOL    HW235001   3.149   3.006   2.759 -0.8241 -2.1493  0.4933
10683SOL     OW35002   4.811   5.396   7.569  0.2793 -0.2570 -0.2456
10683SOL    HW135003   4.733   5.361   7.612  0.3215 -1.2307 -0.9330
10683SOL    HW235004   4.779   5.430   7.485  0.2395  1.4104  0.4045
10684SOL     OW35005   2.187   0.274   3.158 -0.5658 -0.1794 -0.7059
10684SOL    HW135006   2.224   0.186   3.148  0.2955 -0.2109  1.9301
10684SOL    HW235007   2.213   0.320   3.079  2.7782 -1.0744 -0.3159
10685SOL     OW35008   2.237   1.720   0.682 -0.1777 -0.0541 -0.2419
10685SOL    HW135009   2.269   1.773   0.755  0.6994  0.9282 -1.2912
10685SOL    HW235010   2.189   1.648   0.723  1.4028 -0.2671  1.3341
10686SOL     OW35011   4.457   2.371   3.483  0.2258 -0.2685 -0.3044
10686SOL    HW135012   4.391   2.350   3.550  0.8376  0.6630  0.6160
10686SOL    HW235013   4.512   2.437   3.524 -0.3384  1.5377 -2.3202
10687SOL     OW35014   1.015   0.481   2.577  0.4744 -0.1055 -0.3551
10687SOL    HW135015   1.060   0.549   2.628 -0.9867  0.2095  0.5980
10687SOL    HW235016   0.978   0.423   2.644  0.4864 -1.0166 -1.1360
10688SOL     OW35017   7.525   6.412   2.195  0.1247 -0.2829  0.4826
10688SOL    HW135018   7.478   6.443   2.272  1.0526 -0.4594  1.1261
10688SOL    HW235019   7.505   6.477   2.128 -0.9296 -0.2840  0.7674
10689SOL     OW35020   3.313   3.977   3.611 -0.4453 -0.7670 -0.2969
10689SOL    HW135021   3.234   3.958   3.560 -1.2737 -1.0932  1.0668
10689SOL    HW235022   3.294   4.060   3.655  0.1886 -0.5797 -0.3680
10690SOL     OW35023   4.666   7.963   0.773  0.1885  0.2399  0.6057
10690SOL    HW135024   4.581   8.002   0.754  0.7796  1.1664 -0.2143
10690SOL    HW235025   4.662   7.942   0.867 -0.5882  1.1572  0.7934
10691SOL     OW35026   6.532   3.372   5.594 -0.1134 -0.2426  0.0173
10691SOL    HW135027   6.442   3.361   5.565 -0.1966  0.7990 -0.1455
10691SOL    HW235028   6.529   3.362   5.689 -0.8446  2.2537  0.3260
10692SOL     OW35029   3.184   6.432   0.128 -0.6069 -0.3251 -0.1674
10692SOL    HW135030   3.131   6.357   0.102  0.3800 -0.9421 -0.4797
10692SOL    HW235031   3.274   6.399   0.125 -0.3084 -0.1059  2.9294
10693SOL     OW35032   5.542   0.069   2.140  0.7271 -0.4544  0.4586
10693SOL    HW135033   5.499   0.053   2.224  1.1309 -1.5635  0.4633
10693SOL    HW235034   5.615   0.008   2.138  0.2301 -1.0323 -1.0487
10694SOL     OW35035   7.857   7.196   6.949 -1.1733 -0.1649  0.4060
10694SOL    HW135036   7.808   7.256   7.005 -0.6206  0.9080 -0.2159
10694SOL    HW235037   7.937   7.176   6.998 -0.9638  0.3009  0.2600
10695SOL     OW35038   7.563   7.239   6.590  0.2406 -0.2742  0.2141
10695SOL    HW135039   7.491   7.197   6.637  0.9822 -1.5911  0.2239
10695SOL    HW235040   7.642   7.201   6.627  0.8556 -2.0617 -2.6119
10696SOL     OW35041   6.913   4.706   0.350 -0.4783  0.2184 -0.5572
10696SOL    HW135042   6.843   4.682   0.289  0.7862 -0.2857 -1.8484
10696SOL    HW235043   6.883   4.670   0.434 -1.1011 -1.3122 -1.3833
10697SOL     OW35044   0.409   6.251   7.270  0.2264 -0.6122 -0.0829
10697SOL    HW135045   0.490   6.200   7.265  0.1709 -0.8295  0.9323
10697SOL    HW235046   0.434   6.330   7.317 -0.4929 -1.4718  1.8618
10698SOL     OW35047   1.527   1.378   2.813 -0.0888 -0.0845 -0.0496
10698SOL    HW135048   1.530   1.473   2.803 -2.3384 -0.1533 -2.4781
10698SOL    HW235049   1.619   1.350   2.806  0.5153  1.8093 -0.2711
10699SOL     OW35050   3.750   1.623   6.811  0.3643  0.0106  0.1581
10699SOL    HW135051   3.756   1.535   6.849  1.3304  0.1683  0.4055
10699SOL    HW235052   3.781   1.613   6.721 -0.3931 -0.0633 -0.1007
10700SOL     OW35053   0.628   2.634   1.974 -0.1358 -0.1167  0.3922
10700SOL    HW135054   0.607   2.725   1.954  1.3210  0.1746  0.0480
10700SOL    HW235055   0.722   2.626   1.956  0.3113 -1.0583  2.7151
10701SOL     OW35056   1.882   1.644   2.801  0.2788  0.3395 -0.5502
10701SOL    HW135057   1.965   1.629   2.844 -0.6698 -1.8399  0.6380
10701SOL    HW235058   1.901   1.635   2.708  1.7310  1.9606 -0.4602
10702SOL     OW35059   7.123   1.895   1.220 -0.0918  0.4229 -0.2288
10702SOL    HW135060   7.106   1.978   1.177  0.2195  0.5575 -0.0927
10702SOL    HW235061   7.108   1.829   1.152 -1.3723  0.5170 -0.0594
10703SOL     OW35062   3.533   2.248   2.942  0.5532 -0.3538 -0.0235
10703SOL    HW135063   3.474   2.195   2.889  0.2616  0.1751 -0.2353
10703SOL    HW235064   3.570   2.187   3.006  2.2225 -1.3835 -1.8632
10704SOL     OW35065   4.817   4.281   3.207 -0.4817 -0.0429 -0.1555
10704SOL    HW135066   4.748   4.234   3.160 -1.5922  2.2830 -1.0526
10704SOL    HW235067   4.771   4.353   3.250  0.8629 -0.7269  2.6244
10705SOL     OW35068   2.327   2.958   6.560 -0.1079 -0.3308  0.7596
10705SOL    HW135069   2.312   3.004   6.477  1.7585 -1.9912 -0.5879
10705SOL    HW235070   2.373   2.878   6.535 -0.8602 -1.6546  3.2774
10706SOL     OW35071   4.284   7.004   4.295 -0.0846  0.0180 -0.0695
10706SOL    HW135072   4.309   6.927   4.345  1.9662  0.2891 -0.5551
10706SOL    HW235073   4.195   6.986   4.265  0.6086 -2.5276 -0.8542
10707SOL     OW35074   8.017   5.157   4.308  0.0319 -0.2332  0.1968
10707SOL    HW135075   7.933   5.191   4.340  0.1325 -0.1864  0.4155
10707SOL    HW235076   8.075   5.163   4.384  0.6314  1.0856 -0.3250
10708SOL     OW35077   1.521   0.395   3.803 -0.9865 -0.3914  0.7070
10708SOL    HW135078   1.574   0.324   3.768  0.4196  0.4727  1.0154
10708SOL    HW235079   1.559   0.414   3.889 -0.7539  1.3221  0.2601
10709SOL     OW35080   6.324   4.630   0.310  0.6874  0.0457  0.2576
10709SOL    HW135081   6.342   4.547   0.353  1.4760  1.9341  4.0815
10709SOL    HW235082   6.233   4.623   0.280  0.3368 -1.7773  1.6189
10710SOL     OW35083   2.222   5.924   3.384  0.3057  0.3455 -0.5111
10710SOL    HW135084   2.198   5.839   3.348 -0.0246  0.0434  0.3830
10710SOL    HW235085   2.286   5.959   3.323 -1.0089  0.3339 -1.9591
10711SOL     OW35086   2.021   7.836   1.978 -0.0973  0.5341  0.6654
10711SOL    HW135087   2.106   7.873   2.005 -0.8193  2.1825  0.7814
10711SOL    HW235088   1.960   7.909   1.986 -1.2802 -0.2635 -0.7635
10712SOL     OW35089   5.010   0.525   3.367  0.1936 -0.1040 -0.4488
10712SOL    HW135090   4.964   0.441   3.365 -1.8024  0.9072  0.5714
10712SOL    HW235091   5.085   0.510   3.425 -0.0300 -1.2206 -0.4312
10713SOL     OW35092   6.560   7.421   3.239 -0.1486 -0.0883  0.3741
10713SOL    HW135093   6.539   7.511   3.263  1.0325 -0.0183  1.2537
10713SOL    HW235094   6.483   7.390   3.191 -1.8694  0.4053  2.6224
10714SOL     OW35095   2.151   7.241   6.720  0.1065  0.2599 -0.3878
10714SOL    HW135096   2.115   7.300   6.787 -1.2665 -0.3960 -0.5078
10714SOL    HW235097   2.074   7.202   6.680  0.9433 -0.0123 -1.7740
10715SOL     OW35098   2.275   4.494   4.405 -0.2788  0.5139 -0.8604
10715SOL    HW135099   2.333   4.526   4.474 -0.6031  1.4412 -0.9979
10715SOL    HW235100   2.266   4.400   4.422  1.1722  0.3679 -0.7839
10716SOL     OW35101   1.721   7.970   5.841  0.7349 -0.1090  0.0843
10716SOL    HW135102   1.685   8.035   5.781  0.8576  1.3482  1.5058
10716SOL    HW235103   1.668   7.979   5.921  0.0976 -2.4827  0.0263
10717SOL     OW35104   2.727   4.108   4.564  0.2862 -0.5070  0.1939
10717SOL    HW135105   2.786   4.148   4.500  0.0386 -0.7049 -0.1575
10717SOL    HW235106   2.639   4.134   4.536  0.1966 -0.3171  0.6439
10718SOL     OW35107   0.891   0.548   4.770  0.3483  0.5142 -0.2658
10718SOL    HW135108   0.916   0.640   4.773 -2.2136  1.3539 -1.2640
10718SOL    HW235109   0.809   0.548   4.720 -0.0741 -2.2380  0.2870
10719SOL     OW35110   6.858   1.800   5.915  0.1411  0.3143 -0.0110
10719SOL    HW135111   6.766   1.813   5.939 -0.1534  0.7560 -1.2629
10719SOL    HW235112   6.860   1.714   5.873  0.1945  0.4816 -0.3634
10720SOL     OW35113   0.273   0.631   1.608  0.2498 -0.4784  0.3468
10720SOL    HW135114   0.355   0.590   1.636  0.4262 -1.4327 -1.4081
10720SOL    HW235115   0.282   0.639   1.513 -0.8523  1.3458  0.3589
10721SOL     OW35116   0.233   3.774   3.313  0.2518 -0.1318 -0.0958
10721SOL    HW135117   0.167   3.837   3.284  0.8454 -0.0440 -1.3327
10721SOL    HW235118   0.314   3.805   3.273  0.6251 -1.4481 -0.3912
10722SOL     OW35119   1.863   6.940   6.642 -0.0344 -0.2434 -0.0244
10722SOL    HW135120   1.780   6.947   6.596 -0.3083 -1.1907  0.2972
10722SOL    HW235121   1.919   7.006   6.601 -1.2092  1.0643  0.3859
10723SOL     OW35122   0.367   4.304   5.069 -0.2543  0.4309 -0.4596
10723SOL    HW135123   0.291   4.285   5.013 -1.4992  1.2029  0.9207
10723SOL    HW235124   0.330   4.330   5.153  1.5306 -2.9771  1.6327
10724SOL     OW35125   2.953   6.718   6.818  0.0747 -0.2861 -0.4150
10724SOL    HW135126   2.989   6.763   6.742  0.9563  0.3048  0.3514
10724SOL    HW235127   2.887   6.659   6.780  1.2002 -0.7491 -1.7428
10725SOL     OW35128   4.002   4.045   0.743  0.3421  0.4432 -0.1191
10725SOL    HW135129   4.076   4.056   0.803  0.0488  1.8096  0.0314
10725SOL    HW235130   3.925   4.054   0.799  0.0657  0.9933 -0.5817
10726SOL     OW35131   2.957   4.489   4.931 -0.0717 -0.5020 -0.2233
10726SOL    HW135132   2.939   4.415   4.872  0.8860 -0.5135 -0.5150
10726SOL    HW235133   3.016   4.452   4.997 -1.9831 -0.7845  1.4237
10727SOL     OW35134   3.318   5.468   2.675  0.3474  0.2378  0.3827
10727SOL    HW135135   3.268   5.549   2.686  1.2441  0.6353  1.8267
10727SOL    HW235136   3.368   5.460   2.756 -0.3583 -2.2120  0.6680
10728SOL     OW35137   0.368   4.178   5.527  0.2792  0.1371  0.1770
10728SOL    HW135138   0.387   4.150   5.437 -0.5237  0.5856 -0.1467
10728SOL    HW235139   0.420   4.119   5.582  2.0227  0.8694 -0.6080
10729SOL     OW35140   2.145   5.625   4.454  0.0277  0.5503 -0.2420
10729SOL    HW135141   2.106   5.711   4.472 -0.2027  0.1643  1.2553
10729SOL    HW235142   2.085   5.563   4.496  0.9643 -0.2314 -0.0310
10730SOL     OW35143   6.026   2.513   2.250 -0.7808 -0.3597 -0.3978
10730SOL    HW135144   5.934   2.525   2.272 -1.3808 -2.9060 -1.2799
10730SOL    HW235145   6.058   2.448   2.312 -0.5891 -2.1852 -2.2922
10731SOL     OW35146   0.527   5.906   0.195  0.0045 -0.1532  0.0727
10731SOL    HW135147   0.451   5.901   0.253 -0.9554  0.9720 -1.0219
10731SOL    HW235148   0.552   5.999   0.198  2.3412 -0.7474  1.5998
10732SOL     OW35149   1.634   1.438   1.726 -0.0192 -0.4687  0.0312
10732SOL    HW135150   1.693   1.499   1.771 -0.6444  0.3124 -0.1750
10732SOL    HW235151   1.654   1.353   1.764 -0.7400  0.2017  2.0301
10733SOL     OW35152   2.141   3.922   0.619 -0.2392  0.3114  0.0929
10733SOL    HW135153   2.091   3.912   0.538  0.6761  1.5639 -0.6587
10733SOL    HW235154   2.196   3.843   0.623  0.9052  0.9653 -1.4057
10734SOL     OW35155   0.656   5.692   1.594 -0.3347  0.6892  0.0616
10734SOL    HW135156   0.564   5.667   1.588 -0.3522  0.8968 -0.5965
10734SOL    HW235157   0.698   5.649   1.519  0.1565  0.3964  0.4921
10735SOL     OW35158   1.026   1.216   5.072  0.0936 -0.0217  0.2878
10735SOL    HW135159   1.085   1.263   5.013  0.0725  0.4183  0.6049
10735SOL    HW235160   1.018   1.129   5.035 -1.7720  0.8917 -1.7075
10736SOL     OW35161   4.874   2.281   2.978 -0.4769  0.9610 -0.4085
10736SOL    HW135162   4.787   2.316   2.998 -0.2598  0.7291  1.0037
10736SOL    HW235163   4.879   2.199   3.026  0.4028  0.8044 -0.7492
10737SOL     OW35164   2.172   0.371   5.057 -0.3606  0.2338 -0.4055
10737SOL    HW135165   2.207   0.344   5.142  0.0968  0.3760 -0.5461
10737SOL    HW235166   2.186   0.465   5.054 -1.4665  0.4262 -0.1418
10738SOL     OW35167   7.732   7.088   1.325  0.1028  0.1986  0.1402
10738SOL    HW135168   7.722   7.013   1.383 -1.0389  0.8630  0.8325
10738SOL    HW235169   7.676   7.069   1.250  0.8660 -0.2432 -0.3268
10739SOL     OW35170   0.107   5.649   6.874 -0.2873 -0.2774 -0.2989
10739SOL    HW135171   0.075   5.591   6.944  0.0276  0.5308  0.5291
10739SOL    HW235172   0.032   5.659   6.816 -1.5154  1.3049  1.4167
10740SOL     OW35173   2.511   2.462   0.544  0.0357 -0.1574 -0.3335
10740SOL    HW135174   2.564   2.541   0.538  1.0906 -0.9310 -2.1384
10740SOL    HW235175   2.492   2.453   0.637 -1.2304  2.8759 -0.1771
10741SOL     OW35176   5.316   2.507   0.525 -0.1852 -0.2476  0.1692
10741SOL    HW135177   5.275   2.433   0.571 -2.4713  1.5545  1.2481
10741SOL    HW235178   5.382   2.539   0.586 -1.0985  0.2526  0.9218
10742SOL     OW35179   2.409   6.619   7.379 -0.4952  0.2841  0.7687
10742SOL    HW135180   2.433   6.572   7.459 -2.3434 -1.1731  0.5451
10742SOL    HW235181   2.314   6.626   7.384 -0.4577  2.0125 -0.3467
10743SOL     OW35182   4.558   4.746   6.247  0.4068  0.2923 -0.3085
10743SOL    HW135183   4.610   4.696   6.184  1.0393 -0.7382  0.9796
10743SOL    HW235184   4.573   4.838   6.223  1.1956 -0.0555 -1.2110
10744SOL     OW35185   6.884   7.885   4.745 -0.9174 -0.1698 -0.2053
10744SOL    HW135186   6.859   7.966   4.790 -2.3981 -0.2266 -0.8586
10744SOL    HW235187   6.933   7.915   4.668  0.8422 -0.0418  0.8940
10745SOL     OW35188   1.723   5.851   0.770  0.0774  0.0832 -0.1417
10745SOL    HW135189   1.769   5.934   0.783 -0.2749  0.2689 -0.0400
10745SOL    HW235190   1.693   5.826   0.857 -0.6753  0.3709 -0.2994
10746SOL     OW35191   1.467   1.921   4.853  0.3729  0.4520 -0.4352
10746SOL    HW135192   1.430   1.969   4.779 -1.5295 -0.4644 -0.1509
10746SOL    HW235193   1.545   1.879   4.818 -1.0081 -0.7828 -2.2719
10747SOL     OW35194   6.558   2.140   0.202  0.4398  0.3370 -0.3522
10747SOL    HW135195   6.521   2.214   0.252  1.7234  0.4274  0.5010
10747SOL    HW235196   6.538   2.064   0.256  0.8801  0.3053 -0.2331
10748SOL     OW35197   1.414   6.794   7.492 -0.4853  0.0018 -1.0156
10748SOL    HW135198   1.406   6.887   7.468 -0.4040  0.1517 -0.4662
10748SOL    HW235199   1.371   6.788   7.577  0.7610 -0.1878 -0.3809
10749SOL     OW35200   4.225   7.684   8.046  0.5294 -0.3826  0.3829
10749SOL    HW135201   4.138   7.672   8.006  0.6083  0.2373  0.0056
10749SOL    HW235202   4.285   7.680   7.972  0.7862 -0.3834  0.5921
10750SOL     OW35203   6.891   4.478   7.819 -0.6172  0.5187  0.2377
10750SOL    HW135204   6.892   4.396   7.769 -0.5366  1.3639 -1.2107
10750SOL    HW235205   6.969   4.474   7.874 -0.7379 -0.4717  0.3579
10751SOL     OW35206   3.799   2.636   6.212  0.3029  0.2823  0.3033
10751SOL    HW135207   3.833   2.688   6.285  0.2878  1.8889 -0.7674
10751SOL    HW235208   3.834   2.680   6.134 -0.0578 -1.1114 -0.6733
10752SOL     OW35209   6.029   0.528   1.721  0.2141 -0.0358 -0.5183
10752SOL    HW135210   5.990   0.598   1.668  1.1028 -1.0147 -2.5538
10752SOL    HW235211   6.031   0.452   1.663 -0.1464 -1.6178  1.4384
10753SOL     OW35212   4.908   4.108   3.708  0.4506 -0.4072 -0.1698
10753SOL    HW135213   4.938   4.131   3.620 -0.7444 -2.3738 -1.1718
10753SOL    HW235214   4.812   4.113   3.703  0.3386 -1.0785  0.8375
10754SOL     OW35215   4.453   7.897   1.545  0.6579 -0.2465  0.0958
10754SOL    HW135216   4.532   7.937   1.510  0.6125 -0.5431 -0.3472
10754SOL    HW235217   4.427   7.955   1.618  3.6793 -2.3980  3.1762
10755SOL     OW35218   7.939   0.725   5.110 -0.2463 -0.4062  0.8522
10755SOL    HW135219   7.970   0.738   5.020  0.4847 -0.4353  1.0957
10755SOL    HW235220   7.948   0.812   5.150 -1.1697 -0.2430  0.7204
10756SOL     OW35221   3.303   3.571   6.582 -0.4083  0.7857  0.6483
10756SOL    HW135222   3.218   3.529   6.593 -0.5764  0.5012 -1.3251
10756SOL    HW235223   3.359   3.530   6.648 -1.4874  0.0973  1.1646
10757SOL     OW35224   2.380   7.447   7.257  0.8316 -0.0764 -0.3873
10757SOL    HW135225   2.398   7.399   7.338 -0.5614  0.2828  0.1759
10757SOL    HW235226   2.415   7.392   7.187  2.5789 -0.1287  0.4875
10758SOL     OW35227   6.462   5.820   7.995 -0.0514  0.4657  0.1967
10758SOL    HW135228   6.456   5.877   8.072 -1.0692  0.3744  0.1899
10758SOL    HW235229   6.491   5.736   8.029 -4.3185 -0.8258  1.1676
10759SOL     OW35230   5.349   0.403   6.073 -0.2539  0.3848  0.2000
10759SOL    HW135231   5.389   0.369   6.152  1.4951  0.0231 -0.8049
10759SOL    HW235232   5.408   0.378   6.002 -1.3266  1.4347 -1.1346
10760SOL     OW35233   6.617   7.010   1.768 -0.2873 -0.4419 -0.1731
10760SOL    HW135234   6.608   7.026   1.862 -0.2620  1.2420 -0.4132
10760SOL    HW235235   6.583   6.922   1.755 -1.0628 -0.3913  1.2912
10761SOL     OW35236   5.086   6.915   1.602  0.5941 -0.0083  0.2004
10761SOL    HW135237   5.109   6.962   1.682  1.3983  0.9898 -0.5829
10761SOL    HW235238   5.055   6.983   1.542 -0.4180 -0.7947 -0.2088
10762SOL     OW35239   3.353   6.075   6.989 -0.0829 -0.9083 -0.1951
10762SOL    HW135240   3.257   6.074   6.988 -0.1222 -3.0093 -2.0711
10762SOL    HW235241   3.377   5.997   7.040  0.5481 -1.5701 -1.4386
10763SOL     OW35242   0.683   0.980   3.091  0.3264 -0.9055  0.1198
10763SOL    HW135243   0.737   0.952   3.165  1.0705  0.7096  0.2326
10763SOL    HW235244   0.685   1.076   3.095 -0.0427 -0.7910 -1.6882
10764SOL     OW35245   5.077   2.146   1.836  0.0444  0.0079  0.1900
10764SOL    HW135246   4.986   2.131   1.809 -0.3883  3.3147 -0.6361
10764SOL    HW235247   5.089   2.088   1.912 -2.3211 -1.4010 -0.3804
10765SOL     OW35248   6.585   0.091   7.974 -0.0926 -0.1222  0.3134
10765SOL    HW135249   6.548   0.145   8.044  1.6038 -0.2670  1.3704
10765SOL    HW235250   6.511   0.070   7.918 -0.9541  2.7737  0.2172
10766SOL     OW35251   7.049   4.585   7.538 -0.4998  0.1942  0.2148
10766SOL    HW135252   7.134   4.614   7.506 -0.8704  0.8233 -0.2140
10766SOL    HW235253   6.992   4.661   7.529 -1.0600 -0.1590  0.6887
10767SOL     OW35254   2.525   6.634   6.212 -0.3233  0.3919  0.1141
10767SOL    HW135255   2.609   6.629   6.258 -0.9835  2.4972  1.7126
10767SOL    HW235256   2.518   6.725   6.185 -2.3508  0.4106  0.5444
10768SOL     OW35257   6.507   0.600   0.247  0.4618  0.2021  0.5223
10768SOL    HW135258   6.587   0.651   0.233  0.0429  0.4568 -1.1276
10768SOL    HW235259   6.511   0.575   0.339  2.1477  0.7098  0.6282
10769SOL     OW35260   0.575   0.836   1.243  0.0415 -0.2172  0.2190
10769SOL    HW135261   0.506   0.882   1.291 -0.7223 -1.6491  0.5352
10769SOL    HW235262   0.650   0.895   1.247 -0.6436  0.6117  1.3560
10770SOL     OW35263   2.421   4.742   7.729  0.6670 -0.1359  0.3206
10770SOL    HW135264   2.445   4.832   7.751 -0.9972 -0.0744  2.2447
10770SOL    HW235265   2.354   4.751   7.661 -0.4949  0.2254  1.4555
10771SOL     OW35266   5.847   6.702   4.741 -0.6026 -0.3315  0.6637
10771SOL    HW135267   5.829   6.792   4.715 -1.1152 -0.6152  0.0302
10771SOL    HW235268   5.942   6.693   4.732 -0.5289  0.1805  0.8712
10772SOL     OW35269   0.883   5.745   1.329  0.3021  0.1602  0.2828
10772SOL    HW135270   0.870   5.661   1.372  0.0952 -0.5326 -1.0727
10772SOL    HW235271   0.794   5.776   1.309  0.4106 -0.0716 -0.6189
10773SOL     OW35272   7.595   3.863   2.940 -0.4698  0.2245  0.1469
10773SOL    HW135273   7.652   3.888   2.868  0.8440  2.5662  1.8640
10773SOL    HW235274   7.630   3.780   2.972  1.0630  0.8671  0.1942
10774SOL     OW35275   6.954   7.750   5.022 -0.0713 -0.0710  0.1937
10774SOL    HW135276   6.924   7.780   4.936 -0.8191  1.4000  0.9257
10774SOL    HW235277   7.018   7.681   5.003  0.1246  0.5482 -1.5446
10775SOL     OW35278   1.408   5.017   0.582 -0.2210 -0.7504 -0.2111
10775SOL    HW135279   1.359   5.026   0.500 -1.5543 -0.0939  0.6173
10775SOL    HW235280   1.466   5.093   0.584 -1.2706  0.0726  0.1269
10776SOL     OW35281   3.584   7.664   4.306  0.2534 -0.2248 -0.6496
10776SOL    HW135282   3.496   7.696   4.287  1.3167  2.3216 -1.8081
10776SOL    HW235283   3.625   7.653   4.220  2.0047  1.7036 -0.1494
10777SOL     OW35284   7.598   0.678   1.814  0.6019 -0.5306  0.1059
10777SOL    HW135285   7.565   0.593   1.785 -1.0787 -0.0342  0.4958
10777SOL    HW235286   7.548   0.698   1.894  1.3589  0.5805  0.3316
10778SOL     OW35287   4.353   0.822   7.100  0.1531 -0.0067  0.4383
10778SOL    HW135288   4.410   0.773   7.041 -0.7942 -0.3873 -0.1845
10778SOL    HW235289   4.409   0.889   7.138  1.4339 -1.3987  1.1312
10779SOL     OW35290   4.731   0.055   0.248 -0.4283 -0.7954  0.0912
10779SOL    HW135291   4.822   0.049   0.218 -0.7331 -0.5140 -0.9010
10779SOL    HW235292   4.729   0.135   0.301 -0.3591 -0.1579 -0.8425
10780SOL     OW35293   4.424   4.589   8.079 -0.0561 -0.2473  0.1594
10780SOL    HW135294   4.453   4.527   8.146  0.0091 -0.8353 -0.4081
10780SOL    HW235295   4.451   4.550   7.996 -0.1803  0.4505 -0.2226
10781SOL     OW35296   5.435   1.721   5.449  0.0542  0.1445 -0.2717
10781SOL    HW135297   5.438   1.685   5.538 -0.8356 -0.2981 -0.4140
10781SOL    HW235298   5.527   1.736   5.426  0.4043 -1.3660  0.0625
10782SOL     OW35299   3.317   1.985   6.790  0.8191 -0.0310  0.0134
10782SOL    HW135300   3.325   1.915   6.856 -2.4544 -2.6670 -2.0701
10782SOL    HW235301   3.279   2.058   6.838 -0.9550 -1.6749  1.3044
10783SOL     OW35302   1.808   5.920   1.876 -0.0739  0.2967 -0.4951
10783SOL    HW135303   1.780   5.859   1.944 -0.4967 -0.9206 -1.7117
10783SOL    HW235304   1.767   5.887   1.796  1.1995  1.1021 -1.5218
10784SOL     OW35305   5.099   3.624   6.801 -0.0245  0.1879  0.3279
10784SOL    HW135306   5.088   3.684   6.727  0.0357  1.4571  1.3203
10784SOL    HW235307   5.043   3.659   6.870  0.3200 -0.6683  1.0720
10785SOL     OW35308   3.455   5.750   2.555 -0.2492 -0.1780 -0.2526
10785SOL    HW135309   3.518   5.760   2.626  0.4912  0.3653 -0.9685
10785SOL    HW235310   3.411   5.835   2.549 -0.6319 -0.3689 -0.1392
10786SOL     OW35311   1.517   7.906   4.546  0.1552  0.5522 -0.3563
10786SOL    HW135312   1.466   7.841   4.498 -0.1876 -0.4653  1.3245
10786SOL    HW235313   1.604   7.902   4.506 -0.4549  0.7211 -1.7641
10787SOL     OW35314   7.100   2.726   5.744  0.9585  0.2650  0.0352
10787SOL    HW135315   7.139   2.708   5.658  2.6393 -0.2337  0.8695
10787SOL    HW235316   7.038   2.654   5.757  2.4891 -1.0523  0.2795
10788SOL     OW35317   6.927   4.258   1.952 -0.5734 -0.4113 -0.5123
10788SOL    HW135318   6.955   4.179   1.997 -2.1356 -0.8170 -0.1650
10788SOL    HW235319   6.867   4.227   1.885 -1.9228  0.5048  0.2107
10789SOL     OW35320   1.766   3.996   5.530  0.3466  0.0194 -0.1120
10789SOL    HW135321   1.724   3.987   5.445 -0.5460  0.7328  0.2399
10789SOL    HW235322   1.843   3.940   5.525  1.8103  2.0301 -2.3517
10790SOL     OW35323   5.969   2.339   1.889  0.1971  0.3623  0.6729
10790SOL    HW135324   5.882   2.361   1.857  0.8539  1.1521 -0.6329
10790SOL    HW235325   5.953   2.292   1.971 -1.4536  0.2583  0.3240
10791SOL     OW35326   4.274   6.383   7.518 -0.5025 -0.2186 -0.6752
10791SOL    HW135327   4.228   6.312   7.563 -0.1862  0.0957  0.1680
10791SOL    HW235328   4.238   6.382   7.429 -1.1224 -0.8778 -0.4316
10792SOL     OW35329   6.424   7.539   4.883 -0.4796  0.2271  0.6430
10792SOL    HW135330   6.477   7.606   4.838  0.6761 -1.5845 -0.8133
10792SOL    HW235331   6.334   7.570   4.874 -0.0169  1.3703 -0.3899
10793SOL     OW35332   0.976   5.122   5.578 -0.2762 -0.1010  0.3450
10793SOL    HW135333   0.986   5.041   5.628  0.1900  0.1495  0.6600
10793SOL    HW235334   0.881   5.129   5.564 -0.7641  1.1069  3.3655
10794SOL     OW35335   0.265   3.429   1.060  0.3651 -0.1379  0.4210
10794SOL    HW135336   0.354   3.418   1.029  0.3585 -0.3238  0.4619
10794SOL    HW235337   0.261   3.376   1.140  0.7055  1.2129  1.3740
10795SOL     OW35338   6.288   0.715   3.250  0.1092  0.0839  0.3470
10795SOL    HW135339   6.277   0.809   3.237 -0.5687 -0.1020 -0.4589
10795SOL    HW235340   6.259   0.676   3.168 -0.4754 -0.8854  0.9978
10796SOL     OW35341   3.948   6.500   3.132  0.3465 -0.1901 -0.0921
10796SOL    HW135342   3.930   6.563   3.201 -0.1167 -0.4175 -0.0019
10796SOL    HW235343   3.866   6.451   3.121  0.6217 -0.6144 -0.3224
10797SOL     OW35344   3.254   3.354   0.511 -0.2789 -0.4923  0.3334
10797SOL    HW135345   3.190   3.287   0.536 -0.2007 -0.9083 -0.5450
10797SOL    HW235346   3.317   3.307   0.456 -0.2104  0.2893 -0.2702
10798SOL     OW35347   3.645   0.981   2.864  0.6539  0.1239 -0.2189
10798SOL    HW135348   3.599   0.928   2.930  1.8319 -1.2743 -0.4588
10798SOL    HW235349   3.588   0.979   2.787  0.8597 -1.1585 -0.3546
10799SOL     OW35350   2.670   3.506   3.675  0.3852  0.1646  0.5069
10799SOL    HW135351   2.583   3.515   3.637  0.4096 -1.2699  0.0552
10799SOL    HW235352   2.707   3.428   3.633  1.6687  0.4194  1.1084
10800SOL     OW35353   6.013   2.093   6.539 -0.3706  0.4060 -0.4254
10800SOL    HW135354   5.975   2.170   6.581  0.8992  1.5509 -1.2812
10800SOL    HW235355   5.965   2.084   6.457  0.9320  1.6796 -1.3731
10801SOL     OW35356   2.899   6.054   2.831 -0.2912  0.2146  0.1662
10801SOL    HW135357   2.902   5.991   2.759  2.0971  0.5321 -0.0921
10801SOL    HW235358   2.976   6.034   2.884 -0.6108  1.6069  1.2223
10802SOL     OW35359   5.451   6.653   0.401  0.4126  0.3073  0.4521
10802SOL    HW135360   5.397   6.575   0.413 -0.0958  0.6357  0.3166
10802SOL    HW235361   5.472   6.683   0.490 -0.6614  0.8883  0.5204
10803SOL     OW35362   7.273   7.297   0.427  0.2633  0.0972  0.6228
10803SOL    HW135363   7.359   7.271   0.396  0.7687  0.6458  1.5309
10803SOL    HW235364   7.215   7.226   0.400  0.4252  1.0566 -2.5699
10804SOL     OW35365   4.479   5.106   4.624  0.0332  0.3915  0.0441
10804SOL    HW135366   4.508   5.051   4.697  0.6177  0.0384 -0.4426
10804SOL    HW235367   4.523   5.069   4.548  0.9990  1.9553 -0.1994
10805SOL     OW35368   2.501   6.317   1.371  0.1541 -0.3943  1.0049
10805SOL    HW135369   2.551   6.392   1.405  0.7994 -0.5968  0.5277
10805SOL    HW235370   2.521   6.246   1.431  0.4688 -0.4802  0.8031
10806SOL     OW35371   2.000   6.014   7.400  0.0452 -0.3663 -0.2856
10806SOL    HW135372   1.918   6.064   7.391  0.1096 -0.4517 -1.4519
10806SOL    HW235373   1.992   5.971   7.485 -0.5463  0.6634  0.2022
10807SOL     OW35374   1.016   1.654   2.790  0.1508 -0.3374  0.3842
10807SOL    HW135375   1.049   1.584   2.846  2.5544  0.6838  0.3785
10807SOL    HW235376   0.947   1.695   2.841  0.1616 -1.3719  1.2722
10808SOL     OW35377   1.694   5.596   3.037  0.2048  0.5156 -0.0143
10808SOL    HW135378   1.742   5.665   2.992  0.2045  0.0130 -0.8140
10808SOL    HW235379   1.729   5.596   3.126  0.8600  0.9315 -0.2627
10809SOL     OW35380   4.606   4.915   7.470  0.6882  0.3454 -0.0896
10809SOL    HW135381   4.614   4.921   7.565  0.1016  0.6441 -0.0489
10809SOL    HW235382   4.612   5.006   7.440  0.7671  0.2623 -0.3265
10810SOL     OW35383   2.508   0.098   1.010  0.6216 -0.3781  0.2922
10810SOL    HW135384   2.478   0.189   1.012  2.2462  0.1863  0.6636
10810SOL    HW235385   2.523   0.077   1.102 -0.5145 -1.3252  0.2854
10811SOL     OW35386   1.254   3.881   2.365  0.5459 -0.4250  0.0422
10811SOL    HW135387   1.176   3.831   2.389 -0.6115  1.6231  0.8975
10811SOL    HW235388   1.267   3.863   2.272 -1.2988 -0.4107 -0.2498
10812SOL     OW35389   2.132   2.926   6.153  0.5927  0.0050  0.6145
10812SOL    HW135390   2.060   2.932   6.090  0.0192  2.4629  1.3826
10812SOL    HW235391   2.196   2.869   6.111 -0.2419  0.6450 -1.6866
10813SOL     OW35392   2.633   5.745   1.050 -0.8354  0.1358  0.2713
10813SOL    HW135393   2.547   5.719   1.017 -0.5043 -0.7857  0.0948
10813SOL    HW235394   2.685   5.664   1.047 -0.1257  0.5564  0.8861
10814SOL     OW35395   5.524   3.772   2.698 -0.5290 -0.2609 -0.5525
10814SOL    HW135396   5.558   3.686   2.725 -2.5126 -0.8023  0.4235
10814SOL    HW235397   5.483   3.807   2.778 -0.4392  1.2605 -1.1418
10815SOL     OW35398   3.522   8.110   3.810 -0.4940  0.1662  0.5524
10815SOL    HW135399   3.523   8.084   3.902 -1.3550 -1.5768  0.1126
10815SOL    HW235400   3.451   8.174   3.803 -1.7284 -1.1305  0.7875
10816SOL     OW35401   0.288   6.916   5.890  0.1992  0.3735 -0.2025
10816SOL    HW135402   0.275   6.825   5.915 -1.0111  0.2625 -1.1577
10816SOL    HW235403   0.270   6.918   5.796  0.6754  1.5173 -0.2877
10817SOL     OW35404   3.692   1.566   3.443  0.0711  0.1032 -0.2729
10817SOL    HW135405   3.638   1.620   3.501  0.8067  0.8390 -0.2645
10817SOL    HW235406   3.664   1.590   3.355 -0.8562 -0.8179 -0.2463
10818SOL     OW35407   1.426   2.770   4.563  0.7948  0.4646  0.5869
10818SOL    HW135408   1.453   2.691   4.610  0.7987  0.4440  0.5502
10818SOL    HW235409   1.358   2.808   4.617 -0.0606 -0.2106  0.0145
10819SOL     OW35410   8.043   4.396   2.377  0.8632  0.1821 -0.3463
10819SOL    HW135411   7.980   4.331   2.347  0.8695 -0.4094  0.8889
10819SOL    HW235412   8.002   4.480   2.356  0.3388 -0.2048 -0.8939
10820SOL     OW35413   4.532   3.223   2.216 -0.0550 -1.0521  0.4203
10820SOL    HW135414   4.557   3.156   2.279 -0.1116 -0.3038  1.2500
10820SOL    HW235415   4.443   3.200   2.189 -0.4167 -0.8151  1.3822
10821SOL     OW35416   4.806   3.230   5.567 -0.5455  0.4048 -0.5179
10821SOL    HW135417   4.827   3.200   5.478  0.6908  1.3955 -0.5973
10821SOL    HW235418   4.734   3.292   5.555 -0.8046  0.0603 -0.7520
10822SOL     OW35419   1.356   5.210   3.666  0.1591 -0.3313  0.2099
10822SOL    HW135420   1.450   5.199   3.681  0.1590  0.1732  0.6048
10822SOL    HW235421   1.314   5.165   3.739  0.1134  0.0579  0.4292
10823SOL     OW35422   6.417   5.979   2.050  0.2102 -0.3140  0.8332
10823SOL    HW135423   6.390   6.001   1.961 -0.9770  0.6210  1.3945
10823SOL    HW235424   6.483   5.911   2.039 -0.0811 -0.3783 -0.7486
10824SOL     OW35425   5.746   7.028   7.642 -0.1479  0.8931 -0.1550
10824SOL    HW135426   5.663   7.070   7.617 -0.4576  0.3255 -0.1198
10824SOL    HW235427   5.753   6.953   7.582  0.5239  1.1389 -0.3938
10825SOL     OW35428   6.733   0.627   2.059  0.1293  0.1725 -0.5683
10825SOL    HW135429   6.711   0.630   2.152  2.6435 -0.2167  0.1131
10825SOL    HW235430   6.685   0.700   2.021 -1.9832 -0.4483  0.7507
10826SOL     OW35431   2.359   6.311   2.595 -0.0819 -0.3390  0.5812
10826SOL    HW135432   2.445   6.269   2.593  0.1546  0.1538 -1.2879
10826SOL    HW235433   2.369   6.382   2.658  0.9516 -0.1795  0.2606
10827SOL     OW35434   1.245   4.309   6.774  0.4702  0.3753  0.0447
10827SOL    HW135435   1.266   4.388   6.724  0.4338  0.7236  0.5787
10827SOL    HW235436   1.158   4.284   6.744  1.5067 -0.9808 -2.0730
10828SOL     OW35437   1.096   1.706   2.123  0.0349 -0.0546  0.4547
10828SOL    HW135438   1.090   1.654   2.042 -1.0072 -0.5206  0.8125
10828SOL    HW235439   1.190   1.705   2.144  0.2506 -0.3972 -0.4371
10829SOL     OW35440   2.413   4.595   0.719 -0.2455  0.2852 -0.2981
10829SOL    HW135441   2.395   4.610   0.626  1.2339  2.0417 -0.3380
10829SOL    HW235442   2.501   4.556   0.720 -0.5245 -0.3510  0.3538
10830SOL     OW35443   8.130   1.670   5.854  0.1328 -0.0774 -0.2333
10830SOL    HW135444   8.099   1.707   5.937  1.4862  1.9252 -0.5410
10830SOL    HW235445   8.176   1.590   5.879 -0.6031 -0.2093  0.7892
10831SOL     OW35446   0.665   1.102   5.795 -0.2926 -0.2884 -0.0415
10831SOL    HW135447   0.613   1.179   5.817 -1.2502 -1.1128  0.7168
10831SOL    HW235448   0.753   1.122   5.827 -0.4872  0.5404 -0.0021
10832SOL     OW35449   4.871   6.750   4.516  0.1633  0.6224  0.2694
10832SOL    HW135450   4.860   6.765   4.610 -0.1617  1.0427  0.1699
10832SOL    HW235451   4.786   6.774   4.478  0.1340 -0.0295 -0.0760
10833SOL     OW35452   2.553   4.618   0.015 -0.1429 -0.2343  0.3952
10833SOL    HW135453   2.496   4.634   0.090  0.2918 -0.5399  0.7976
10833SOL    HW235454   2.572   4.705  -0.020 -0.4591 -0.1001  0.5578
10834SOL     OW35455   5.443   0.090   3.819 -0.5326 -0.0485 -0.9238
10834SOL    HW135456   5.522   0.045   3.847  0.5083  2.5878  0.8154
10834SOL    HW235457   5.453   0.099   3.724  0.4759 -1.1060 -0.9342
10835SOL     OW35458   1.463   4.791   4.829 -0.2060  0.5449  0.4647
10835SOL    HW135459   1.514   4.857   4.877 -2.0784  0.3972  2.8225
10835SOL    HW235460   1.480   4.709   4.875  1.2022 -0.5212 -1.7555
10836SOL     OW35461   1.233   5.674   7.654  0.5350  0.0690 -0.8217
10836SOL    HW135462   1.205   5.678   7.745 -1.7058 -0.8044 -1.3945
10836SOL    HW235463   1.271   5.760   7.636  1.0065  0.2498  0.9126
10837SOL     OW35464   4.212   3.883   4.454  1.0080  0.2154  0.0610
10837SOL    HW135465   4.211   3.789   4.436  0.9513  0.2868 -0.3289
10837SOL    HW235466   4.221   3.890   4.549 -2.4513 -0.2363  0.5428
10838SOL     OW35467   1.062   4.400   2.868 -0.6324 -0.2187 -0.2026
10838SOL    HW135468   1.053   4.307   2.849 -0.1408 -0.5064  0.9066
10838SOL    HW235469   1.075   4.404   2.962  0.7773  0.8496 -0.4080
10839SOL     OW35470   5.825   1.794   7.036 -0.1071  0.2293 -0.1691
10839SOL    HW135471   5.743   1.833   7.064  0.9258  2.2496  0.2743
10839SOL    HW235472   5.853   1.847   6.961  1.1859  0.1421  0.2165
10840SOL     OW35473   0.979   0.489   7.471 -0.4078 -0.1760  0.6324
10840SOL    HW135474   0.897   0.536   7.487 -2.3124 -2.8789 -0.3371
10840SOL    HW235475   0.988   0.432   7.548  1.9962  1.8147  1.9333
10841SOL     OW35476   3.185   2.946   2.377 -0.3825  0.5539 -0.3634
10841SOL    HW135477   3.095   2.932   2.345 -0.2556  0.0029 -0.4849
10841SOL    HW235478   3.173   2.975   2.468 -0.6611 -0.5579 -0.0230
10842SOL     OW35479   5.652   8.102   3.889 -0.0448 -0.2575  0.4814
10842SOL    HW135480   5.633   8.009   3.876  0.2049 -0.5046  1.7095
10842SOL    HW235481   5.725   8.120   3.830 -0.5484 -0.6484 -0.2880
10843SOL     OW35482   1.876   5.972   5.694 -0.3760 -0.1027  0.0662
10843SOL    HW135483   1.822   6.028   5.750 -1.1159 -0.1435 -0.5730
10843SOL    HW235484   1.965   5.984   5.725 -0.8211 -0.5310  1.5883
10844SOL     OW35485   7.913   7.643   1.451  0.1655  0.2868 -0.4143
10844SOL    HW135486   7.843   7.580   1.441  0.6293 -0.5792  1.4721
10844SOL    HW235487   7.868   7.727   1.464 -0.4741 -0.0072 -0.6801
10845SOL     OW35488   6.874   0.310   7.139  0.3831 -0.0512 -0.0143
10845SOL    HW135489   6.867   0.390   7.087  0.5109  0.1625  0.2902
10845SOL    HW235490   6.913   0.246   7.080  2.4481  0.7515  0.3909
10846SOL     OW35491   4.983   6.036   3.831 -0.1782  0.6662  0.7681
10846SOL    HW135492   5.052   5.982   3.872  0.1993  1.2217  0.8698
10846SOL    HW235493   4.902   5.990   3.853  0.2863 -1.5874 -1.6913
10847SOL     OW35494   4.499   3.173   1.145 -0.2040 -0.3301  0.6467
10847SOL    HW135495   4.530   3.091   1.106  1.7774  0.0969  1.2347
10847SOL    HW235496   4.567   3.197   1.208  0.2246  2.7218 -0.8236
10848SOL     OW35497   5.928   7.662   2.977  0.1433 -0.0285  0.4857
10848SOL    HW135498   5.968   7.729   3.033 -0.4565  1.3911 -0.7108
10848SOL    HW235499   5.903   7.709   2.898  0.8325 -1.9316 -0.9502
10849SOL     OW35500   2.958   4.845   0.880  0.2557  0.6664  0.0834
10849SOL    HW135501   3.005   4.878   0.956  1.0136  1.2530 -0.6078
10849SOL    HW235502   3.009   4.769   0.851 -1.8582 -1.6246  2.0632
10850SOL     OW35503   4.972   2.131   6.404 -0.0668 -0.3429 -0.2573
10850SOL    HW135504   5.030   2.056   6.420  1.1571  0.4532 -0.8656
10850SOL    HW235505   4.934   2.114   6.318  0.4200 -0.1409 -0.5155
10851SOL     OW35506   3.469   6.589   4.693  0.2455  0.3487 -0.2291
10851SOL    HW135507   3.506   6.676   4.707 -0.5606  0.4050  1.9880
10851SOL    HW235508   3.484   6.543   4.776 -0.1363 -1.3201 -1.0517
10852SOL     OW35509   4.006   5.367   6.817 -0.6041 -0.1539  0.0565
10852SOL    HW135510   4.006   5.320   6.901 -1.7183 -0.9816 -0.3872
10852SOL    HW235511   4.079   5.430   6.825 -1.4771  0.6915  2.1399
10853SOL     OW35512   6.551   0.537   7.915  0.1262  0.3549 -0.5389
10853SOL    HW135513   6.624   0.475   7.922  0.3402  0.5282 -1.1532
10853SOL    HW235514   6.563   0.578   7.830 -1.4653 -0.5924 -1.2659
10854SOL     OW35515   7.361   7.775   5.852 -0.0442 -0.4632 -0.1016
10854SOL    HW135516   7.294   7.817   5.799 -0.7305 -0.1998  0.9412
10854SOL    HW235517   7.396   7.845   5.907  0.2853 -0.8327  0.1633
10855SOL     OW35518   1.609   1.672   6.774  0.2948  0.1617  0.0064
10855SOL    HW135519   1.640   1.702   6.860 -2.3430  0.1657  1.0607
10855SOL    HW235520   1.541   1.608   6.794  1.0290 -1.3912 -2.1602
10856SOL     OW35521   5.763   0.423   7.924 -0.0744 -0.1061  0.1353
10856SOL    HW135522   5.774   0.470   7.840 -0.8906  0.2082  0.1961
10856SOL    HW235523   5.758   0.331   7.899 -0.6801  0.0115 -0.2071
10857SOL     OW35524   1.519   4.390   3.914  0.3027  0.0628 -0.0953
10857SOL    HW135525   1.603   4.395   3.869  0.1243  3.2627 -0.3176
10857SOL    HW235526   1.482   4.307   3.887  1.2197  0.7623 -4.1062
10858SOL     OW35527   6.898   6.838   7.709 -0.1239 -0.6323  0.0096
10858SOL    HW135528   6.912   6.771   7.643 -0.5040 -0.5060 -0.1994
10858SOL    HW235529   6.923   6.920   7.667  1.1837 -0.7303  0.5445
10859SOL     OW35530   5.550   3.804   0.984 -0.0752 -0.3472  0.2141
10859SOL    HW135531   5.493   3.878   0.960 -0.1943 -0.4630  0.1329
10859SOL    HW235532   5.634   3.844   1.005 -0.0233 -0.2218 -0.2194
10860SOL     OW35533   7.388   2.580   3.895  0.2745 -0.8031 -0.6563
10860SOL    HW135534   7.320   2.525   3.932  0.5502 -2.2818 -2.2405
10860SOL    HW235535   7.468   2.556   3.942 -0.0837  0.3576  0.6365
10861SOL     OW35536   6.558   0.783   0.721  0.0073 -0.1476  0.2813
10861SOL    HW135537   6.494   0.762   0.788 -1.9776 -2.1003 -2.0215
10861SOL    HW235538   6.512   0.842   0.661  2.0097  2.2814  0.9659
10862SOL     OW35539   0.083   3.458   3.316 -0.0538  0.3251 -0.1996
10862SOL    HW135540   0.056   3.522   3.250 -0.3825  0.3123 -0.0786
10862SOL    HW235541   0.098   3.378   3.267  0.2034  0.4543 -0.3303
10863SOL     OW35542   2.083   1.605   1.358  0.1702  0.2377  0.8388
10863SOL    HW135543   2.055   1.672   1.420 -0.0176  0.9982 -0.0614
10863SOL    HW235544   2.173   1.630   1.335 -0.4907  1.2143 -0.8403
10864SOL     OW35545   4.208   8.078   5.704  0.0066  0.2760 -0.1296
10864SOL    HW135546   4.251   7.993   5.711  0.7762  0.6136 -0.5484
10864SOL    HW235547   4.133   8.073   5.763  1.1703  0.0044  1.3856
10865SOL     OW35548   7.129   3.699   3.399 -0.0305 -0.3591  0.6019
10865SOL    HW135549   7.054   3.646   3.428  0.4468 -1.2558  0.2491
10865SOL    HW235550   7.154   3.749   3.476 -1.3823  0.4452  0.5545
10866SOL     OW35551   5.875   7.490   5.187 -0.3385 -0.1661 -0.6986
10866SOL    HW135552   5.828   7.553   5.242  0.5848 -1.2230  1.4012
10866SOL    HW235553   5.964   7.524   5.182  0.0893 -1.1358  0.1941
10867SOL     OW35554   4.486   6.266   4.710 -0.6255  0.6639  0.1215
10867SOL    HW135555   4.411   6.293   4.764 -1.5733 -0.3331 -0.6660
10867SOL    HW235556   4.524   6.192   4.757 -2.5263 -1.3873 -1.3491
10868SOL     OW35557   6.026   2.109   1.715 -0.1220  0.0395  0.7901
10868SOL    HW135558   5.965   2.048   1.756 -1.9530  2.3492  1.7008
10868SOL    HW235559   6.019   2.189   1.767  0.8108  1.6426 -1.3926
10869SOL     OW35560   3.633   5.859   3.668  0.0121 -0.2661  0.1397
10869SOL    HW135561   3.683   5.813   3.600 -1.3649 -2.0356  0.2386
10869SOL    HW235562   3.573   5.914   3.618  2.1554  2.1360  0.0208
10870SOL     OW35563   2.853   1.560   3.221  0.1274 -0.0874  0.4525
10870SOL    HW135564   2.933   1.532   3.178  0.0130 -0.6181  0.5759
10870SOL    HW235565   2.816   1.480   3.258 -0.5180  0.1314  0.2983
10871SOL     OW35566   2.621   0.344   0.635 -0.2677  0.6083 -0.6040
10871SOL    HW135567   2.603   0.350   0.541 -0.1988 -0.3615 -0.6873
10871SOL    HW235568   2.712   0.373   0.644 -0.2560  0.6477 -0.8451
10872SOL     OW35569   5.940   3.324   1.957 -0.4806  0.1634 -0.4083
10872SOL    HW135570   5.910   3.410   1.987  2.8938  1.4348 -0.2072
10872SOL    HW235571   5.912   3.320   1.865  1.3345  2.6949 -1.2058
10873SOL     OW35572   4.514   3.400   2.526 -0.4775 -0.2027 -0.3143
10873SOL    HW135573   4.601   3.379   2.559  0.1123  0.5191 -1.3441
10873SOL    HW235574   4.457   3.392   2.602  0.7227  0.7221  0.7190
10874SOL     OW35575   7.176   2.644   5.492  0.5319  0.5350 -0.0184
10874SOL    HW135576   7.234   2.687   5.429  0.5413  0.0005 -0.3827
10874SOL    HW235577   7.111   2.600   5.437  2.1243 -2.2894  0.1714
10875SOL     OW35578   5.935   0.763   4.219  0.0435  0.5216  0.0887
10875SOL    HW135579   6.030   0.758   4.220  0.0500  0.3171 -0.8688
10875SOL    HW235580   5.915   0.840   4.272  0.8224  1.4117 -0.8579
10876SOL     OW35581   0.098   4.001   6.206  0.7681  0.2741 -0.6671
10876SOL    HW135582   0.084   4.034   6.117 -0.3640 -0.9188 -0.9570
10876SOL    HW235583   0.024   3.942   6.222  0.1443  1.5580  1.6167
10877SOL     OW35584   6.802   3.393   4.297 -0.0941  0.1835 -0.9401
10877SOL    HW135585   6.720   3.349   4.274  0.3535 -0.7685 -0.7661
10877SOL    HW235586   6.848   3.404   4.214 -1.2886  2.6806 -1.3726
10878SOL     OW35587   6.769   6.415   7.259 -0.4095 -0.0541 -0.0009
10878SOL    HW135588   6.712   6.490   7.242  0.9810  0.9980 -0.2737
10878SOL    HW235589   6.743   6.383   7.345  0.6817  2.4579  1.3719
10879SOL     OW35590   6.082   7.362   0.886  0.5113  0.6633 -0.3195
10879SOL    HW135591   6.073   7.441   0.833 -0.0588  1.0809  0.3748
10879SOL    HW235592   6.011   7.305   0.858  2.2659 -0.6340 -2.4675
10880SOL     OW35593   4.962   0.054   1.154 -1.0107  0.5111 -0.0629
10880SOL    HW135594   5.041   0.061   1.207 -0.6686 -0.4094 -0.4362
10880SOL    HW235595   4.892   0.036   1.217 -0.8673  0.9529  0.2262
10881SOL     OW35596   4.739   4.286   6.435 -0.3907  0.1310  0.7737
10881SOL    HW135597   4.731   4.380   6.448  0.2367  0.2594  0.2859
10881SOL    HW235598   4.773   4.254   6.519  1.5074  0.6625  0.2757
10882SOL     OW35599   6.882   6.767   4.402 -0.0507  0.5710  0.1306
10882SOL    HW135600   6.883   6.858   4.432  1.3543  1.0075 -1.1287
10882SOL    HW235601   6.962   6.758   4.351 -0.4139 -1.2483 -0.1623
10883SOL     OW35602   2.971   4.994   0.645 -0.7823  0.5039  0.6804
10883SOL    HW135603   3.002   5.054   0.713 -0.1647  1.3017 -0.2680
10883SOL    HW235604   2.947   4.915   0.692  1.1415  0.4451  1.6758
10884SOL     OW35605   1.460   5.266   3.375  0.4650  0.3832  0.1449
10884SOL    HW135606   1.526   5.332   3.397 -0.4591  1.3637  0.0918
10884SOL    HW235607   1.400   5.267   3.450  0.8113 -0.9184  0.4613
10885SOL     OW35608   5.840   1.545   4.077 -0.0531  0.2567  0.1837
10885SOL    HW135609   5.763   1.494   4.099  1.2548 -2.7011 -1.5325
10885SOL    HW235610   5.897   1.539   4.154 -1.1166  1.8122  1.1542
10886SOL     OW35611   7.921   3.963   4.297 -0.0691 -0.1076  0.3728
10886SOL    HW135612   7.949   4.001   4.381 -0.9832  0.2971  0.5073
10886SOL    HW235613   7.902   4.038   4.242  1.3717 -0.3644 -0.5171
10887SOL     OW35614   5.902   8.108   1.936  0.6702  1.0554 -0.2828
10887SOL    HW135615   5.837   8.162   1.892 -3.1927 -3.3833 -0.8078
10887SOL    HW235616   5.868   8.097   2.025  0.9899 -0.8319 -0.3573
10888SOL     OW35617   5.019   4.975   1.448  0.6254  0.1949  0.3741
10888SOL    HW135618   4.998   4.892   1.491 -1.0537  0.0628 -0.6130
10888SOL    HW235619   5.009   4.957   1.354  2.2620  0.9981 -0.0025
10889SOL     OW35620   4.704   4.228   2.252 -0.3811 -0.4831  0.0639
10889SOL    HW135621   4.763   4.176   2.307  1.2446  0.3058 -0.8365
10889SOL    HW235622   4.656   4.284   2.314 -0.7001 -1.6197  0.8741
10890SOL     OW35623   6.890   6.768   7.159 -0.7477  0.2499  1.1367
10890SOL    HW135624   6.940   6.698   7.201 -0.4646  0.0886  0.5417
10890SOL    HW235625   6.811   6.777   7.212 -0.6895 -0.3833  1.3295
10891SOL     OW35626   4.961   1.595   0.972 -0.5492 -0.5962  0.0712
10891SOL    HW135627   5.007   1.595   1.056  0.9146 -0.7049 -0.7025
10891SOL    HW235628   5.024   1.559   0.910 -1.5184 -0.2877 -1.1286
10892SOL     OW35629   5.566   7.748   2.563 -0.4043 -0.3217  0.0741
10892SOL    HW135630   5.492   7.688   2.559 -0.9526  0.3489 -0.1134
10892SOL    HW235631   5.642   7.695   2.538 -1.0861 -0.5918 -1.5845
10893SOL     OW35632   5.234   0.525   3.523 -0.4985  0.2192 -0.3791
10893SOL    HW135633   5.289   0.604   3.520  1.3175 -1.0072 -0.7542
10893SOL    HW235634   5.267   0.475   3.597 -1.9678 -0.0055  0.1663
10894SOL     OW35635   5.182   3.840   0.245 -0.4546  0.3320  0.3092
10894SOL    HW135636   5.173   3.786   0.324 -1.6804  0.6964  0.4437
10894SOL    HW235637   5.095   3.839   0.205 -0.2278  1.3407 -0.2554
10895SOL     OW35638   1.360   1.235   0.479 -0.3476 -0.2951  0.8800
10895SOL    HW135639   1.323   1.168   0.537 -1.4240 -0.1276  0.4072
10895SOL    HW235640   1.374   1.310   0.537 -1.0938 -0.2421  1.0073
10896SOL     OW35641   3.889   4.913   6.285 -0.0066 -0.1232  0.4487
10896SOL    HW135642   3.807   4.955   6.262 -0.4354 -1.3401 -0.3770
10896SOL    HW235643   3.900   4.931   6.379 -0.9433  0.4811  0.4533
10897SOL     OW35644   0.650   0.159   3.948  0.0724 -0.1430 -0.0983
10897SOL    HW135645   0.581   0.223   3.928  0.0167 -0.1238  0.1576
10897SOL    HW235646   0.631   0.085   3.891 -0.4323 -0.3284  0.3017
10898SOL     OW35647   7.967   1.894   7.420  0.4570 -0.4201  0.0277
10898SOL    HW135648   8.033   1.868   7.357  0.5799  1.9797 -0.9279
10898SOL    HW235649   7.903   1.944   7.369 -0.1258  0.4903  1.5778
10899SOL     OW35650   0.501   1.730   2.949  0.3356  0.4799 -0.3317
10899SOL    HW135651   0.462   1.807   2.908  1.1609  1.2117  0.2231
10899SOL    HW235652   0.431   1.666   2.950 -0.5254  1.3991 -0.3312
10900SOL     OW35653   5.423   2.916   6.955  0.1000 -0.1891 -0.1258
10900SOL    HW135654   5.371   2.960   7.023 -0.6764  0.3975 -1.0659
10900SOL    HW235655   5.490   2.980   6.931  0.9512 -0.7417  0.7039
10901SOL     OW35656   0.100   7.090   6.079 -0.0393  0.3837 -0.2230
10901SOL    HW135657   0.014   7.130   6.070  0.3345  1.0152 -1.1725
10901SOL    HW235658   0.145   7.111   5.997  1.1382  0.3665  0.3899
10902SOL     OW35659   6.970   0.428   2.713  0.0182  0.1116 -0.0233
10902SOL    HW135660   7.064   0.439   2.726  0.0133  1.2471 -0.8321
10902SOL    HW235661   6.932   0.438   2.800  0.5619  0.5948  0.1640
10903SOL     OW35662   3.185   7.666   1.435 -0.2576 -0.1872 -1.1651
10903SOL    HW135663   3.270   7.659   1.478  0.0022 -0.0108 -1.6312
10903SOL    HW235664   3.200   7.732   1.366 -1.4457  1.8451  0.3990
10904SOL     OW35665   0.760   7.419   2.861 -0.2806 -0.0979  0.7852
10904SOL    HW135666   0.768   7.478   2.936 -0.3732 -0.2965  0.9502
10904SOL    HW235667   0.701   7.465   2.801  1.8375  1.2852 -0.3450
10905SOL     OW35668   2.928   6.503   0.547  0.4979 -0.3539  0.3980
10905SOL    HW135669   2.843   6.481   0.509 -0.6222  3.0260  0.5982
10905SOL    HW235670   2.989   6.502   0.473  0.0098 -1.4739 -0.0018
10906SOL     OW35671   7.329   1.076   4.859  0.2339  0.2657  0.2940
10906SOL    HW135672   7.249   1.050   4.814 -1.1363 -0.0610  2.7832
10906SOL    HW235673   7.398   1.026   4.815 -0.9833 -0.0300 -1.4039
10907SOL     OW35674   3.456   5.984   7.796  0.3789 -0.6590  0.2676
10907SOL    HW135675   3.414   5.917   7.851  1.1663  0.1176  1.9063
10907SOL    HW235676   3.541   5.998   7.837  0.5657  0.7398 -0.5416
10908SOL     OW35677   3.908   1.933   0.109 -0.4545  0.1300 -0.2331
10908SOL    HW135678   3.856   1.873   0.056  0.5548 -1.8746  0.9296
10908SOL    HW235679   3.844   1.982   0.160 -1.2928 -0.6507 -0.5100
10909SOL     OW35680   7.849   6.105   4.802  0.4914  0.4484 -0.6401
10909SOL    HW135681   7.900   6.182   4.777  0.0675  0.5032 -1.3583
10909SOL    HW235682   7.822   6.066   4.719  2.2426 -1.5397 -0.3615
10910SOL     OW35683   2.563   5.683   6.808  0.0480 -0.1543  0.4778
10910SOL    HW135684   2.558   5.675   6.712 -0.6610 -0.9728  0.5757
10910SOL    HW235685   2.640   5.739   6.823 -0.7385  1.2920 -0.6185
10911SOL     OW35686   4.492   7.154   8.078  0.0272 -0.0321 -0.7913
10911SOL    HW135687   4.438   7.201   8.141  0.9061 -0.4940  0.3537
10911SOL    HW235688   4.443   7.074   8.058  0.2330 -0.4236  0.1996
10912SOL     OW35689   4.305   0.591   7.565 -0.1555 -0.8851 -0.3059
10912SOL    HW135690   4.238   0.653   7.536  0.4741  0.5943  1.2684
10912SOL    HW235691   4.288   0.577   7.658  0.8548 -1.6165 -0.2054
10913SOL     OW35692   0.729   7.234   5.858 -0.1360  0.5085  0.1138
10913SOL    HW135693   0.651   7.196   5.900 -0.5859  0.5691 -0.6460
10913SOL    HW235694   0.781   7.268   5.931  0.0222 -1.0843  0.7869
10914SOL     OW35695   2.389   7.725   6.897 -0.2366 -0.0225 -0.0757
10914SOL    HW135696   2.414   7.716   6.989  2.0686  1.1084 -0.5078
10914SOL    HW235697   2.358   7.638   6.871  1.5458 -1.0631  1.1200
10915SOL     OW35698   3.731   1.542   1.626 -0.4267 -0.1480  0.0184
10915SOL    HW135699   3.822   1.546   1.597 -0.3338 -0.3010  0.2878
10915SOL    HW235700   3.689   1.481   1.566 -0.4344  0.1898 -0.3251
10916SOL     OW35701   3.813   0.351   0.472 -0.6145  0.5459 -0.3484
10916SOL    HW135702   3.894   0.300   0.468 -1.1124 -0.2191 -0.8696
10916SOL    HW235703   3.835   0.426   0.528 -0.0252 -0.4979  0.8517
10917SOL     OW35704   5.857   1.624   3.055 -0.2098  0.0338  0.3963
10917SOL    HW135705   5.761   1.622   3.052 -0.2228  0.2164  0.6530
10917SOL    HW235706   5.882   1.696   2.998 -0.0836 -1.9709 -2.2797
10918SOL     OW35707   0.937   0.522   0.841 -0.0721 -0.5976 -0.0171
10918SOL    HW135708   0.993   0.445   0.831  1.9634  0.4832  2.0500
10918SOL    HW235709   0.898   0.513   0.928  0.7642  1.0133  0.5653
10919SOL     OW35710   6.376   2.773   3.612 -0.3711  0.7421  0.3410
10919SOL    HW135711   6.336   2.720   3.543  0.6929  2.2624 -1.5394
10919SOL    HW235712   6.301   2.813   3.657 -1.0839  0.3084 -0.4259
10920SOL     OW35713   2.408   0.873   1.785  0.8321  0.2662  0.0822
10920SOL    HW135714   2.466   0.934   1.830  2.2908 -0.9021 -0.1352
10920SOL    HW235715   2.381   0.919   1.706  0.4418  1.2856  0.7748
10921SOL     OW35716   0.392   1.753   4.337 -0.1831  0.1341 -0.0110
10921SOL    HW135717   0.358   1.838   4.362  0.0572  0.2392 -0.0386
10921SOL    HW235718   0.322   1.691   4.359 -0.9080  0.4747 -1.2262
10922SOL     OW35719   4.527   0.147   0.105 -0.5781 -0.2580 -0.2815
10922SOL    HW135720   4.577   0.100   0.172  1.5480  0.2892 -1.3810
10922SOL    HW235721   4.494   0.225   0.149  0.6461  0.0095  0.1962
10923SOL     OW35722   3.888   4.631   6.234  0.5230 -1.1977 -0.1166
10923SOL    HW135723   3.821   4.596   6.293  0.3554 -1.0698 -0.2304
10923SOL    HW235724   3.890   4.725   6.252 -1.1672 -0.7485 -1.9100
10924SOL     OW35725   2.474   1.729   7.164 -0.2820  0.0153  0.9321
10924SOL    HW135726   2.559   1.740   7.206 -0.4135 -1.0361  1.5123
10924SOL    HW235727   2.412   1.724   7.236 -0.7054 -0.2465  0.5573
10925SOL     OW35728   1.932   4.969   6.631 -0.5791  0.1132 -0.2051
10925SOL    HW135729   1.963   5.046   6.677 -1.3708  0.5878 -0.4505
10925SOL    HW235730   1.963   4.895   6.683  1.9496  0.4880 -1.0212
10926SOL     OW35731   3.650   1.402   1.360 -0.4352  0.6170 -0.8815
10926SOL    HW135732   3.707   1.331   1.390 -1.2393 -0.2588 -1.3837
10926SOL    HW235733   3.668   1.409   1.266 -0.5593  0.9015 -0.8860
10927SOL     OW35734   1.211   3.496   0.588  0.3418  0.3897 -0.0050
10927SOL    HW135735   1.230   3.590   0.590  0.2693  0.4007  1.8958
10927SOL    HW235736   1.283   3.458   0.538  1.4832  1.2441  0.9334
10928SOL     OW35737   2.679   3.120   6.229 -0.2486 -0.5629 -0.8872
10928SOL    HW135738   2.748   3.147   6.168 -0.8508 -0.3846 -1.4989
10928SOL    HW235739   2.612   3.187   6.220  0.5395  0.6742  1.5482
10929SOL     OW35740   2.398   6.029   4.827  0.9771 -0.0606  0.2168
10929SOL    HW135741   2.330   6.000   4.767 -0.1855  2.5150  0.1454
10929SOL    HW235742   2.368   5.999   4.913 -0.2813  0.9622  0.1736
10930SOL     OW35743   4.682   4.920   2.126  0.4225 -0.2101  0.0288
10930SOL    HW135744   4.708   4.856   2.060 -1.0893 -1.1216  0.2556
10930SOL    HW235745   4.593   4.946   2.100  0.3377  0.4535  0.9234
10931SOL     OW35746   2.772   1.808   3.189  0.5668 -0.3992 -0.0085
10931SOL    HW135747   2.822   1.726   3.198 -0.1030 -0.9478 -1.0940
10931SOL    HW235748   2.721   1.796   3.108  0.7141  1.2288 -0.3747
10932SOL     OW35749   4.111   7.720   6.091  0.6476  0.3436  0.0908
10932SOL    HW135750   4.114   7.758   6.179 -2.2085  0.8821  0.0301
10932SOL    HW235751   4.126   7.794   6.032 -1.5985  0.8625  0.0761
10933SOL     OW35752   4.790   4.761   7.319  0.3408 -0.0649 -0.1872
10933SOL    HW135753   4.876   4.802   7.322  0.1236  0.3811  0.2527
10933SOL    HW235754   4.737   4.814   7.379 -0.0621 -0.7316  0.0536
10934SOL     OW35755   3.520   6.519   2.039 -0.5669  0.9560  0.0121
10934SOL    HW135756   3.527   6.613   2.022 -1.6863  0.9640 -0.4856
10934SOL    HW235757   3.586   6.480   1.982  0.2726  1.4687  0.6138
10935SOL     OW35758   7.750   6.898   1.565 -0.5379 -0.1524  0.2497
10935SOL    HW135759   7.740   6.854   1.650 -0.1270 -0.8656 -0.0608
10935SOL    HW235760   7.676   6.958   1.560  0.4348  1.2508  1.8975
10936SOL     OW35761   0.634   5.221   6.748  0.7563  0.0193 -0.1144
10936SOL    HW135762   0.643   5.260   6.835 -0.8064  0.2809 -0.0412
10936SOL    HW235763   0.603   5.132   6.765 -0.1549  0.2681 -0.3979
10937SOL     OW35764   6.283   1.860   4.224 -0.2723  0.1207 -0.5537
10937SOL    HW135765   6.242   1.946   4.236 -0.1051 -0.0627  1.8004
10937SOL    HW235766   6.265   1.813   4.305  0.5899 -1.6836 -1.3488
10938SOL     OW35767   3.427   6.960   4.461 -0.5199 -0.4602 -0.6247
10938SOL    HW135768   3.483   6.931   4.533 -2.0153  1.2602  1.3634
10938SOL    HW235769   3.363   6.890   4.450 -0.1533 -0.8281 -0.4252
10939SOL     OW35770   6.572   3.108   4.603  0.1362 -0.0226 -0.2730
10939SOL    HW135771   6.654   3.150   4.575 -0.2110  0.5764 -0.3967
10939SOL    HW235772   6.569   3.027   4.554  1.1240 -0.4996  0.4122
10940SOL     OW35773   2.702   5.297   0.856 -0.9728  0.7671  0.0754
10940SOL    HW135774   2.738   5.249   0.781  0.8923  1.5245  0.4419
10940SOL    HW235775   2.652   5.231   0.904 -0.3120 -0.2787 -0.6266
10941SOL     OW35776   4.776   5.744   0.614 -0.4252  0.5716  0.2868
10941SOL    HW135777   4.817   5.707   0.536  0.7326  1.3825  0.5012
10941SOL    HW235778   4.733   5.669   0.656  1.5924 -0.5035  0.5357
10942SOL     OW35779   1.393   0.346   7.484 -0.4874 -0.4980 -0.1276
10942SOL    HW135780   1.488   0.360   7.484 -0.4309 -0.8896 -0.2229
10942SOL    HW235781   1.371   0.324   7.394 -0.7417  0.0679 -0.2068
10943SOL     OW35782   3.343   1.003   6.529  0.0869  0.1262  0.2885
10943SOL    HW135783   3.327   0.962   6.615  1.6627 -0.6162  0.2606
10943SOL    HW235784   3.264   0.985   6.479  0.1634 -1.7106  0.7581
10944SOL     OW35785   6.361   6.524   5.301  0.1110  0.1968  0.5819
10944SOL    HW135786   6.321   6.610   5.284 -1.2418  0.4259  4.0781
10944SOL    HW235787   6.287   6.464   5.304  0.6951 -0.4903  1.3729
10945SOL     OW35788   2.782   5.539   5.611  0.0836  0.3645 -0.3461
10945SOL    HW135789   2.836   5.466   5.640  2.0256  1.5591 -0.7228
10945SOL    HW235790   2.692   5.505   5.611  0.7775 -1.6128  0.6376
10946SOL     OW35791   2.513   6.350   6.149 -0.7511 -0.3085  0.3832
10946SOL    HW135792   2.503   6.388   6.061  1.9814 -0.3234 -0.0214
10946SOL    HW235793   2.456   6.273   6.148 -2.2219  0.7340 -0.6796
10947SOL     OW35794   6.720   7.871   2.344 -0.0637  0.4993 -0.1571
10947SOL    HW135795   6.631   7.886   2.376 -0.3809 -0.2459 -0.6754
10947SOL    HW235796   6.776   7.917   2.406 -0.6872 -0.5892  1.2637
10948SOL     OW35797   7.583   7.898   0.308  0.7289  0.1823  0.3064
10948SOL    HW135798   7.535   7.975   0.340  0.1157 -0.1298  0.1507
10948SOL    HW235799   7.556   7.827   0.366  0.5384 -0.1213 -0.1424
10949SOL     OW35800   0.162   7.264   0.120  0.1700 -0.2606  0.2593
10949SOL    HW135801   0.197   7.247   0.207  0.8212  1.3347  0.3532
10949SOL    HW235802   0.145   7.178   0.083  0.0436 -0.9763  1.8924
10950SOL     OW35803   7.363   4.025   5.062  0.4555  0.8999  0.2768
10950SOL    HW135804   7.322   4.082   5.126 -2.5949 -0.1042 -0.6333
10950SOL    HW235805   7.352   4.070   4.978 -0.1695 -0.0869 -0.1859
10951SOL     OW35806   5.300   1.863   3.947 -0.1574  0.3858  0.3534
10951SOL    HW135807   5.212   1.830   3.927 -0.4466  1.0859  0.4421
10951SOL    HW235808   5.330   1.901   3.864 -0.4945  1.3682  0.6674
10952SOL     OW35809   6.464   7.749   4.724  0.4120 -0.4597  0.2943
10952SOL    HW135810   6.373   7.763   4.696  0.3101 -0.2927  0.7011
10952SOL    HW235811   6.515   7.754   4.643 -0.0690 -1.7591 -0.1094
10953SOL     OW35812   4.656   0.391   0.785 -0.5026 -0.5656  0.0618
10953SOL    HW135813   4.673   0.482   0.806  0.1769 -0.0955 -2.2085
10953SOL    HW235814   4.742   0.351   0.778 -0.7716 -1.2126  0.2993
10954SOL     OW35815   4.223   4.074   7.657  0.1847 -0.2404 -0.1937
10954SOL    HW135816   4.222   3.986   7.619 -0.1187  0.0301 -0.8281
10954SOL    HW235817   4.155   4.121   7.610  1.1398  0.6830 -0.6871
10955SOL     OW35818   6.939   6.867   3.640 -0.1399  0.1624 -0.1236
10955SOL    HW135819   6.965   6.779   3.667 -1.5514 -0.4385 -0.6320
10955SOL    HW235820   6.858   6.854   3.591  0.1199  1.6575 -1.0101
10956SOL     OW35821   2.383   1.908   2.197 -0.7448  0.3946  0.2866
10956SOL    HW135822   2.338   1.990   2.219 -2.4966 -0.0955 -1.1705
10956SOL    HW235823   2.440   1.891   2.272 -1.4503  2.1573  1.2953
10957SOL     OW35824   4.337   2.205   5.815  0.1864 -0.0249  0.1962
10957SOL    HW135825   4.395   2.281   5.820 -0.1489  0.3059 -0.6986
10957SOL    HW235826   4.251   2.240   5.839  0.0158 -0.1032 -0.3019
10958SOL     OW35827   1.778   3.353   6.619 -0.1239 -0.1146 -0.0973
10958SOL    HW135828   1.807   3.301   6.694 -0.6314 -0.8996 -0.4288
10958SOL    HW235829   1.739   3.289   6.559  0.5961  0.4550 -1.1993
10959SOL     OW35830   5.244   5.295   7.553  0.3873 -0.2133 -0.3037
10959SOL    HW135831   5.181   5.366   7.564  0.3414 -0.0929 -1.2404
10959SOL    HW235832   5.318   5.319   7.609  0.3091  0.4989 -0.4958
10960SOL     OW35833   2.544   0.549   3.595  0.1539 -0.1508 -0.0207
10960SOL    HW135834   2.571   0.478   3.652  2.6350  0.4902 -0.2783
10960SOL    HW235835   2.539   0.626   3.652  0.9645  0.1490 -0.3360
10961SOL     OW35836   3.958   6.131   3.364 -0.2397 -0.1546 -0.1682
10961SOL    HW135837   4.000   6.148   3.448  0.5215 -0.9634 -0.3657
10961SOL    HW235838   3.909   6.211   3.344  0.7906  0.6176  0.3250
10962SOL     OW35839   3.977   5.300   2.854  0.4382 -0.1075  0.2009
10962SOL    HW135840   4.032   5.379   2.857 -1.3974  1.2342  1.8498
10962SOL    HW235841   4.038   5.227   2.856  2.1873  1.2814 -0.4284
10963SOL     OW35842   6.067   7.781   4.966  0.4806 -0.2028 -0.5997
10963SOL    HW135843   6.072   7.705   5.024  0.2825 -0.7350 -1.2694
10963SOL    HW235844   6.149   7.828   4.982 -0.1340  0.3568  1.0409
10964SOL     OW35845   7.462   4.994   0.196  0.0407 -0.0104  0.1201
10964SOL    HW135846   7.555   5.013   0.205  0.4962 -0.0451 -3.1442
10964SOL    HW235847   7.419   5.078   0.208  0.8603  0.6867 -1.4480
10965SOL     OW35848   0.241   3.484   2.687  0.5065 -0.5536 -0.4348
10965SOL    HW135849   0.148   3.474   2.667  0.2047  0.7907  0.1898
10965SOL    HW235850   0.286   3.452   2.609 -0.4265 -2.3154 -0.3031
10966SOL     OW35851   6.899   3.592   0.917 -0.5125  0.6146 -0.6429
10966SOL    HW135852   6.849   3.648   0.976  2.3829  1.5997  1.0846
10966SOL    HW235853   6.912   3.645   0.838  0.0464  1.4161 -0.0284
10967SOL     OW35854   1.591   0.889   0.550  0.8403 -0.2994  0.6148
10967SOL    HW135855   1.536   0.875   0.473 -0.0270 -2.3621  1.5295
10967SOL    HW235856   1.663   0.826   0.539  2.0457  1.0744  0.3543
10968SOL     OW35857   1.105   7.948   1.806  0.3871 -0.0546  0.0711
10968SOL    HW135858   1.038   7.964   1.740 -0.8395  2.0768  1.6847
10968SOL    HW235859   1.073   7.873   1.855  0.5959 -0.7620 -0.8491
10969SOL     OW35860   0.957   1.139   5.832  0.1033 -0.1540 -0.4121
10969SOL    HW135861   1.036   1.178   5.793 -0.9636  1.6762 -0.8485
10969SOL    HW235862   0.991   1.082   5.902  1.8500 -0.2232 -1.2557
10970SOL     OW35863   5.193   5.328   7.149 -0.1965 -0.2381  0.0701
10970SOL    HW135864   5.206   5.281   7.231  1.3483 -0.9852 -0.5459
10970SOL    HW235865   5.277   5.373   7.134 -0.1122 -0.8559 -1.5189
10971SOL     OW35866   0.491   1.302   2.641  0.3142  0.0622 -0.6485
10971SOL    HW135867   0.525   1.214   2.657 -0.5829 -0.4867 -1.6456
10971SOL    HW235868   0.569   1.358   2.641  0.7732 -0.4486  1.5595
10972SOL     OW35869   4.185   8.013   4.161  0.2142 -0.2457 -0.1874
10972SOL    HW135870   4.274   7.978   4.152 -0.2028 -2.3791  2.5503
10972SOL    HW235871   4.128   7.937   4.143 -1.0102  0.6886 -0.3719
10973SOL     OW35872   4.527   7.058   7.099 -0.2763  0.0917 -0.6511
10973SOL    HW135873   4.609   7.025   7.062 -1.7698 -3.0148 -1.5763
10973SOL    HW235874   4.480   7.094   7.024  0.4781  2.6584  0.0156
10974SOL     OW35875   7.400   1.968   1.043  0.6317 -0.1665 -0.1293
10974SOL    HW135876   7.342   1.895   1.019  0.0704  0.6898 -1.4508
10974SOL    HW235877   7.472   1.926   1.090 -0.2578 -1.4377  0.1723
10975SOL     OW35878   2.150   7.540   2.443 -0.4302  0.3751 -0.5089
10975SOL    HW135879   2.077   7.508   2.496  0.4904 -0.2493  0.4479
10975SOL    HW235880   2.149   7.486   2.364  1.1354 -2.2341  1.0966
10976SOL     OW35881   4.221   1.022   5.010 -0.6389 -0.0419 -0.0845
10976SOL    HW135882   4.272   1.022   4.929 -0.0804 -1.2783  0.2571
10976SOL    HW235883   4.139   0.979   4.986  0.0881 -1.7156  0.3266
10977SOL     OW35884   5.983   1.696   6.232  0.2357  0.1908 -0.2059
10977SOL    HW135885   6.044   1.635   6.191 -0.6999 -1.2200  0.4184
10977SOL    HW235886   5.896   1.660   6.214 -0.3485  1.2604  0.3131
10978SOL     OW35887   6.831   4.861   0.060  0.1601 -0.2006 -0.5942
10978SOL    HW135888   6.792   4.944   0.088 -1.5157 -1.0691 -0.2281
10978SOL    HW235889   6.775   4.832  -0.012  1.4909 -0.4124 -1.5809
10979SOL     OW35890   0.352   1.377   1.465  0.3154 -0.1896 -0.1216
10979SOL    HW135891   0.353   1.287   1.432 -0.6242  0.2432 -1.3659
10979SOL    HW235892   0.406   1.426   1.403 -1.4905  0.6376 -1.1156
10980SOL     OW35893   3.814   5.920   5.383  0.0487  0.1442 -0.0084
10980SOL    HW135894   3.880   5.929   5.314  0.7953  0.4096  0.7312
10980SOL    HW235895   3.853   5.859   5.446 -0.3316  0.4470  0.5258
10981SOL     OW35896   2.559   4.027   3.509  0.6527  0.1336  0.5533
10981SOL    HW135897   2.567   3.932   3.496 -2.9180 -0.5750  2.3712
10981SOL    HW235898   2.580   4.041   3.601 -0.4621  0.8063  0.7260
10982SOL     OW35899   3.886   2.671   5.524  0.1946 -0.1540  0.6064
10982SOL    HW135900   3.887   2.758   5.564 -0.8678 -0.5562  1.5512
10982SOL    HW235901   3.969   2.631   5.553  0.3169  0.2525  0.8352
10983SOL     OW35902   6.556   2.267   3.107 -0.6052 -0.6950  0.3680
10983SOL    HW135903   6.560   2.321   3.028 -1.1380  0.9765  1.4411
10983SOL    HW235904   6.472   2.222   3.102 -0.9576 -0.0343  0.3350
10984SOL     OW35905   6.021   0.167   6.422  0.0305 -0.2611  0.2411
10984SOL    HW135906   5.945   0.198   6.373  0.6082 -0.9198 -1.1419
10984SOL    HW235907   6.018   0.072   6.415  2.2264 -0.2740 -1.9444
10985SOL     OW35908   5.687   5.294   6.066 -0.0780  0.0703  0.0448
10985SOL    HW135909   5.668   5.312   6.158 -1.0590  1.2321 -0.3579
10985SOL    HW235910   5.667   5.201   6.056  0.1706 -0.1089  1.0299
10986SOL     OW35911   2.715   3.747   6.285  0.0119  0.0579  0.3536
10986SOL    HW135912   2.745   3.746   6.194 -2.7335  1.7496 -0.6845
10986SOL    HW235913   2.671   3.663   6.297  0.2573 -0.1104  0.0799
10987SOL     OW35914   4.686   1.400   5.887 -0.8840  0.2310  0.3682
10987SOL    HW135915   4.675   1.350   5.806 -0.5820  1.5002 -0.4751
10987SOL    HW235916   4.658   1.339   5.956 -0.9749 -0.9328 -0.6587
10988SOL     OW35917   5.866   4.574   3.444 -1.1106  0.2603  0.0781
10988SOL    HW135918   5.926   4.647   3.433  0.1105 -0.6484  0.5056
10988SOL    HW235919   5.799   4.607   3.505  1.1665  0.1108  2.8821
10989SOL     OW35920   8.005   0.426   5.517  0.0838 -0.7083 -0.1215
10989SOL    HW135921   8.100   0.424   5.506  0.4079  3.4116  0.6736
10989SOL    HW235922   7.971   0.452   5.431 -0.2319 -0.8467 -0.0414
10990SOL     OW35923   2.137   4.993   0.313 -0.1072 -0.0549  0.6200
10990SOL    HW135924   2.070   4.925   0.319  0.4212 -0.5743  0.8025
10990SOL    HW235925   2.089   5.073   0.291 -0.8585 -0.2822  1.3889
10991SOL     OW35926   4.399   3.956   3.310 -0.2291 -0.2325  0.3405
10991SOL    HW135927   4.304   3.965   3.309 -0.1871  0.2291 -0.2139
10991SOL    HW235928   4.431   4.036   3.266  0.4183 -0.2762  0.7244
10992SOL     OW35929   6.208   3.838   7.903 -0.0343  0.2053 -0.3397
10992SOL    HW135930   6.176   3.928   7.911  0.9355  0.4083  2.2144
10992SOL    HW235931   6.281   3.845   7.841  0.7439  1.4235  0.6540
10993SOL     OW35932   0.828   5.890   1.689  0.9255 -0.0695 -0.4290
10993SOL    HW135933   0.766   5.825   1.655  2.0677 -0.7738 -1.2544
10993SOL    HW235934   0.776   5.945   1.747 -0.4067 -0.7971 -0.8900
10994SOL     OW35935   1.963   1.208   3.942  0.6382 -0.0233  0.1312
10994SOL    HW135936   1.990   1.122   3.975  1.5836  0.5907  1.0417
10994SOL    HW235937   1.971   1.201   3.847 -1.3846 -1.6004  0.0093
10995SOL     OW35938   5.150   4.923   0.841 -0.2498  0.4788 -0.1162
10995SOL    HW135939   5.191   4.867   0.907 -1.1371 -1.1008 -0.8338
10995SOL    HW235940   5.190   5.009   0.854  0.3475 -0.0378  1.7710
10996SOL     OW35941   4.011   7.421   2.460  0.1675  0.0599 -0.2633
10996SOL    HW135942   3.935   7.467   2.423  0.7601  0.7234 -0.6710
10996SOL    HW235943   4.009   7.335   2.419  0.1021  0.3572 -0.8975
10997SOL     OW35944   4.887   3.682   2.335 -0.2904  0.1801 -0.1415
10997SOL    HW135945   4.895   3.712   2.245  0.7555  1.2967  0.2975
10997SOL    HW235946   4.975   3.653   2.359 -0.5940 -0.2637  0.4780
10998SOL     OW35947   4.827   0.322   1.192 -0.0563 -0.1625 -0.4058
10998SOL    HW135948   4.825   0.408   1.234 -0.6488 -0.9484  1.2665
10998SOL    HW235949   4.920   0.301   1.184  0.0844  0.5199 -0.6135
10999SOL     OW35950   5.666   4.256   4.505  0.4010  0.2648  0.0489
10999SOL    HW135951   5.735   4.320   4.521  1.0772 -0.4846  0.1635
10999SOL    HW235952   5.677   4.231   4.413  0.2533  0.1666  0.0572
11000SOL     OW35953   5.453   5.546   0.743  0.0412  0.0557 -0.3906
11000SOL    HW135954   5.373   5.589   0.713 -0.8362 -0.6020  0.9155
11000SOL    HW235955   5.426   5.497   0.820  2.3615  2.6454  2.3502
11001SOL     OW35956   7.372   5.929   4.528  0.1073  0.0579 -0.5023
11001SOL    HW135957   7.396   6.012   4.568 -1.1059  0.6561 -0.9648
11001SOL    HW235958   7.329   5.880   4.598 -1.8817  1.0457 -0.9552
11002SOL     OW35959   7.861   6.675   4.400 -0.2763 -0.0531 -0.1302
11002SOL    HW135960   7.948   6.693   4.363 -0.6909 -0.4987 -1.3815
11002SOL    HW235961   7.832   6.759   4.435  0.4037  0.2402 -0.2591
11003SOL     OW35962   7.219   7.675   2.878  0.6299 -0.2490  0.2239
11003SOL    HW135963   7.137   7.679   2.829  0.0342 -0.7029  1.1559
11003SOL    HW235964   7.253   7.588   2.860  0.2423 -0.5373  0.8741
11004SOL     OW35965   0.071   3.022   2.666  0.1359  0.7627 -0.4479
11004SOL    HW135966  -0.014   3.044   2.703 -0.0094 -1.3514  0.6345
11004SOL    HW235967   0.128   3.094   2.691 -1.0102  1.5173  0.0468
11005SOL     OW35968   0.648   4.452   0.219 -0.7639  0.2750 -0.1541
11005SOL    HW135969   0.733   4.443   0.263 -1.3684 -2.5057  0.6699
11005SOL    HW235970   0.668   4.447   0.126  0.1322  1.8257 -0.0769
11006SOL     OW35971   3.124   3.299   2.020  0.5913  0.4533 -0.0051
11006SOL    HW135972   3.092   3.213   1.993  0.1896  0.6291 -0.1015
11006SOL    HW235973   3.127   3.350   1.939 -0.2268  0.8562  0.2009
11007SOL     OW35974   8.039   2.137   6.607 -0.0694  0.2277  0.1960
11007SOL    HW135975   8.077   2.049   6.615  1.4276  0.8063 -0.2199
11007SOL    HW235976   8.041   2.172   6.696  0.2488  0.2053  0.1972
11008SOL     OW35977   5.188   5.903   1.470 -0.1381 -0.0680 -1.1605
11008SOL    HW135978   5.159   5.816   1.501  1.2099 -0.7514 -1.7442
11008SOL    HW235979   5.107   5.953   1.463 -0.7427 -0.4883  1.5241
11009SOL     OW35980   3.617   1.081   6.513  0.6706  0.1530 -0.1487
11009SOL    HW135981   3.532   1.052   6.544  1.1583 -0.7035  0.4393
11009SOL    HW235982   3.654   1.130   6.586 -0.8568  3.9996 -1.7054
11010SOL     OW35983   4.892   4.588   4.343 -0.3388 -0.1962  0.7207
11010SOL    HW135984   4.947   4.661   4.314 -1.2808  0.7111  1.1300
11010SOL    HW235985   4.892   4.526   4.270 -1.5387  1.3801 -0.7023
11011SOL     OW35986   0.481   2.891   7.503  0.3496 -0.0192 -0.6031
11011SOL    HW135987   0.437   2.877   7.419  0.1195 -2.7983 -0.1234
11011SOL    HW235988   0.458   2.814   7.555  1.4938  1.0237  1.5911
11012SOL     OW35989   7.578   3.073   6.348 -0.2016  0.2781 -0.2594
11012SOL    HW135990   7.652   3.063   6.288  1.3047  0.7858  1.4133
11012SOL    HW235991   7.559   2.985   6.379  1.2936  0.3506  1.0295
11013SOL     OW35992   4.128   6.921   3.368 -0.3351  0.1729 -0.0880
11013SOL    HW135993   4.218   6.952   3.370 -0.7186  1.6312 -2.1020
11013SOL    HW235994   4.135   6.825   3.371  1.2300  0.2816  0.3540
11014SOL     OW35995   2.042   1.477   3.171 -0.3761  0.1898  0.3102
11014SOL    HW135996   2.053   1.442   3.083 -1.1149  1.7009 -0.4208
11014SOL    HW235997   1.949   1.494   3.180 -0.3768 -0.2937  1.5563
11015SOL     OW35998   6.876   7.460   7.135 -0.0177 -0.1963 -1.0695
11015SOL    HW135999   6.905   7.456   7.227  0.7866 -0.7035 -1.3274
11015SOL    HW236000   6.828   7.542   7.128  0.4924  0.1786 -0.3495
11016SOL     OW36001   3.017   4.274   1.446  0.5409  0.1908  0.4429
11016SOL    HW136002   2.929   4.243   1.425  1.0462 -2.1494  1.4469
11016SOL    HW236003   3.006   4.368   1.461 -1.5731  0.1457 -0.4284
11017SOL     OW36004   7.922   1.517   2.409 -0.4385  0.1826  0.0638
11017SOL    HW136005   7.900   1.508   2.316 -2.7842 -0.2645  0.6110
11017SOL    HW236006   7.997   1.459   2.422 -0.9419 -0.7973 -1.2530
11018SOL     OW36007   6.863   7.223   7.366 -0.2898  0.1041  0.0926
11018SOL    HW136008   6.877   7.153   7.429  0.3820  0.3154  0.1796
11018SOL    HW236009   6.950   7.247   7.336 -0.6512 -0.9163 -1.9512
11019SOL     OW36010   1.345   1.023   4.195 -0.1945  0.0561 -0.0563
11019SOL    HW136011   1.300   0.969   4.130  1.7996  0.0472 -1.4948
11019SOL    HW236012   1.274   1.054   4.252 -2.0694  0.0852 -2.2142
11020SOL     OW36013   2.736   1.291   3.275  0.4734 -0.3046  0.4985
11020SOL    HW136014   2.688   1.265   3.353  0.1044  1.7231  0.9991
11020SOL    HW236015   2.669   1.292   3.206  0.3086  0.1222  0.6613
11021SOL     OW36016   3.796   1.032   1.980  0.2957  0.5429  0.6207
11021SOL    HW136017   3.842   0.948   1.985 -2.0806 -0.8509  0.8718
11021SOL    HW236018   3.703   1.008   1.982 -0.4935  3.1035 -1.0885
11022SOL     OW36019   6.855   6.571   1.545  0.7427 -0.1676  0.3143
11022SOL    HW136020   6.782   6.515   1.519  0.0837  0.3048  1.0908
11022SOL    HW236021   6.842   6.584   1.639  1.3862  0.5631  0.3076
11023SOL     OW36022   7.761   1.801   3.604 -0.2757  0.1686  0.5192
11023SOL    HW136023   7.666   1.788   3.594 -0.2143  0.7664 -1.5130
11023SOL    HW236024   7.769   1.892   3.633 -0.3217  0.5226 -0.5302
11024SOL     OW36025   4.074   7.055   0.347  0.0683 -0.2540 -0.1820
11024SOL    HW136026   4.057   7.107   0.269 -1.1840 -1.0151 -0.4635
11024SOL    HW236027   4.052   7.112   0.420  1.5252  0.5595 -0.3513
11025SOL     OW36028   3.248   7.239   7.809  0.0014  0.0840 -0.1643
11025SOL    HW136029   3.300   7.164   7.837 -0.9227  0.1709  1.9874
11025SOL    HW236030   3.177   7.201   7.758 -1.2664 -0.7467  2.0820
11026SOL     OW36031   7.259   0.042   1.606 -0.7124  0.4070  0.2656
11026SOL    HW136032   7.240   0.010   1.694 -0.2605  0.6104  0.4390
11026SOL    HW236033   7.218  -0.023   1.548 -1.7745  0.7421  0.6179
11027SOL     OW36034   5.024   4.994   4.291  0.4889  0.1257 -0.2831
11027SOL    HW136035   5.077   4.917   4.271 -0.6386 -0.2921 -1.8687
11027SOL    HW236036   5.044   5.056   4.221 -0.0898  0.4813 -0.1405
11028SOL     OW36037   2.310   7.862   2.672 -0.4205 -0.1912 -0.2058
11028SOL    HW136038   2.398   7.830   2.659 -0.5641  0.1338 -2.2288
11028SOL    HW236039   2.253   7.799   2.629 -1.1269  0.0432  0.3403
11029SOL     OW36040   3.377   7.812   6.799  0.6100 -0.6995 -0.5899
11029SOL    HW136041   3.414   7.846   6.880  0.0831  0.4265 -0.8010
11029SOL    HW236042   3.453   7.789   6.746  0.9642 -0.8130 -0.0388
11030SOL     OW36043   3.542   2.221   0.780 -0.0175 -0.3279 -0.1372
11030SOL    HW136044   3.513   2.155   0.843 -0.2813 -0.3418 -0.2722
11030SOL    HW236045   3.610   2.271   0.826 -1.1797  0.5628  0.6609
11031SOL     OW36046   0.824   5.066   7.513 -0.3403  0.0446  0.0293
11031SOL    HW136047   0.830   5.125   7.588 -1.7847 -0.8304  0.8872
11031SOL    HW236048   0.897   5.006   7.524 -0.5073 -0.0418  0.7277
11032SOL     OW36049   0.311   5.073   5.783  0.0386 -0.4265 -0.2446
11032SOL    HW136050   0.234   5.115   5.744  0.5131 -0.3856 -1.1710
11032SOL    HW236051   0.277   5.026   5.859 -1.3517 -2.5418 -2.0728
11033SOL     OW36052   6.457   0.912   4.299  0.2799 -0.3227 -0.0156
11033SOL    HW136053   6.489   0.835   4.252  0.6826 -0.1127 -0.0940
11033SOL    HW236054   6.396   0.877   4.364 -0.3115 -0.6101 -0.7166
11034SOL     OW36055   4.531   4.988   6.919  0.1949 -0.2457  0.1776
11034SOL    HW136056   4.441   4.958   6.910 -0.4087  1.4934 -0.0942
11034SOL    HW236057   4.558   4.961   7.007 -2.4502  3.5752  2.4638
11035SOL     OW36058   3.283   2.705   6.372  0.2012 -0.0304 -0.0772
11035SOL    HW136059   3.194   2.668   6.371  0.4357 -0.8846  2.7835
11035SOL    HW236060   3.317   2.684   6.285 -1.8588 -1.0405 -0.7292
11036SOL     OW36061   7.171   7.271   7.272  0.0188 -0.6848 -0.2258
11036SOL    HW136062   7.257   7.254   7.234  0.5782 -0.6403  0.9917
11036SOL    HW236063   7.109   7.243   7.204  0.9825  0.5744 -1.6751
11037SOL     OW36064   4.283   3.755   3.980  0.9058  0.2612 -0.4390
11037SOL    HW136065   4.241   3.688   4.035  0.5010  0.9631  0.1218
11037SOL    HW236066   4.325   3.814   4.042  1.9197  0.1036 -0.9682
11038SOL     OW36067   3.157   2.944   7.671  0.1430 -0.6439  0.1672
11038SOL    HW136068   3.135   3.032   7.640  0.3919 -0.3679  0.7691
11038SOL    HW236069   3.163   2.953   7.766  1.4714 -1.0211  0.1330
11039SOL     OW36070   6.155   5.802   0.474 -0.1676  0.0002  0.3687
11039SOL    HW136071   6.179   5.723   0.523  1.4224  0.2173 -0.0027
11039SOL    HW236072   6.142   5.869   0.541 -1.3800 -0.5251  0.6780
11040SOL     OW36073   1.106   7.833   2.069 -0.1537 -0.5907 -0.3172
11040SOL    HW136074   1.130   7.756   2.122 -0.0016 -0.9347 -0.8772
11040SOL    HW236075   1.102   7.905   2.132  0.2322 -0.9523  0.1318
11041SOL     OW36076   3.511   2.702   0.983  0.0458 -0.6556 -0.0206
11041SOL    HW136077   3.471   2.615   0.975  0.8047 -0.9886 -0.2916
11041SOL    HW236078   3.560   2.698   1.065 -0.9564 -0.0451  0.6221
11042SOL     OW36079   5.628   3.845   3.673  0.1555  0.3651 -0.1166
11042SOL    HW136080   5.556   3.894   3.632  1.6060  1.3782 -1.5789
11042SOL    HW236081   5.652   3.779   3.607  1.3863  0.8882 -0.2254
11043SOL     OW36082   1.803   0.851   6.734 -0.4400  0.0989 -0.2214
11043SOL    HW136083   1.864   0.924   6.726  0.0187 -0.1417  0.9125
11043SOL    HW236084   1.856   0.774   6.715 -0.7986  0.0100 -0.8885
11044SOL     OW36085   5.474   3.208   0.160 -0.3728  0.0888  0.1891
11044SOL    HW136086   5.416   3.132   0.167 -0.9023  0.5028  0.3622
11044SOL    HW236087   5.415   3.282   0.146  0.2273  0.1699 -2.6341
11045SOL     OW36088   0.569   7.707   3.355  0.2308 -0.0739  0.2176
11045SOL    HW136089   0.592   7.798   3.339  1.1465 -0.3808 -0.3113
11045SOL    HW236090   0.620   7.657   3.290 -0.0507 -0.9727  0.6614
11046SOL     OW36091   7.660   5.363   4.906 -0.6862 -0.2836 -0.4536
11046SOL    HW136092   7.622   5.275   4.907 -1.0268 -0.1748  1.7946
11046SOL    HW236093   7.629   5.403   4.988  0.8837  1.3064 -0.5777
11047SOL     OW36094   6.621   0.667   3.620  0.0771 -0.4083  0.5797
11047SOL    HW136095   6.570   0.726   3.676  0.1737 -0.4545  0.7166
11047SOL    HW236096   6.700   0.716   3.598  1.6422 -1.5307  3.1632
11048SOL     OW36097   6.235   3.609   0.745 -0.1123 -0.4319 -0.4874
11048SOL    HW136098   6.139   3.608   0.745 -0.1260 -0.0530 -1.0756
11048SOL    HW236099   6.257   3.698   0.717  0.4254  0.2367  1.8602
11049SOL     OW36100   1.861   6.429   5.227  0.2288 -1.0091 -0.9223
11049SOL    HW136101   1.779   6.389   5.256  0.0795  0.5719  1.0737
11049SOL    HW236102   1.907   6.451   5.308  1.3607  0.6210 -1.9377
11050SOL     OW36103   7.286   7.400   2.895 -0.2694  0.0473 -0.0092
11050SOL    HW136104   7.251   7.311   2.897 -1.1908  0.2941 -2.3393
11050SOL    HW236105   7.380   7.389   2.876 -0.2402 -0.4256  0.3923
11051SOL     OW36106   4.080   3.190   1.967  0.6035 -0.3528 -0.0103
11051SOL    HW136107   4.162   3.235   1.986 -0.1120  0.3989  1.4342
11051SOL    HW236108   4.017   3.260   1.951  0.1959 -0.9196 -0.9551
11052SOL     OW36109   2.594   6.148   2.582  0.0753 -0.0786  0.2043
11052SOL    HW136110   2.670   6.196   2.550  0.1400  1.6879  2.7117
11052SOL    HW236111   2.629   6.090   2.650 -0.5357 -0.9732 -0.2190
11053SOL     OW36112   7.436   5.809   4.258  0.0777 -0.5306  0.6837
11053SOL    HW136113   7.404   5.830   4.346 -1.3466  2.1017 -0.3716
11053SOL    HW236114   7.512   5.866   4.245  0.3524 -0.9867  0.2120
11054SOL     OW36115   4.187   4.959   6.591 -0.0284 -0.4174  0.6253
11054SOL    HW136116   4.120   4.984   6.528 -1.4036 -1.9442  1.4184
11054SOL    HW236117   4.266   4.944   6.537 -0.6230  0.2381 -0.4657
11055SOL     OW36118   3.466   0.914   2.617 -0.3212 -0.1989 -0.0983
11055SOL    HW136119   3.431   0.990   2.570  2.0300  0.3877 -1.0690
11055SOL    HW236120   3.548   0.895   2.573  0.3169 -1.8298  1.6548
11056SOL     OW36121   1.798   5.829   7.939  0.4326  0.1633 -0.1432
11056SOL    HW136122   1.773   5.818   7.847 -0.5331 -0.9763  0.2295
11056SOL    HW236123   1.832   5.744   7.965 -2.1250 -0.5263  1.3369
11057SOL     OW36124   6.318   6.168   6.932  0.2319 -0.2860 -0.3668
11057SOL    HW136125   6.229   6.203   6.924  0.4808  0.4054 -0.2241
11057SOL    HW236126   6.345   6.191   7.021  0.0656 -1.6936  0.0649
11058SOL     OW36127   6.713   0.640   0.516  0.0494 -0.3541 -0.0041
11058SOL    HW136128   6.671   0.710   0.465  0.1346 -0.0397  0.3492
11058SOL    HW236129   6.675   0.648   0.603  1.3154  0.3715  0.5067
11059SOL     OW36130   0.737   5.267   7.804 -0.2644 -0.9605 -0.9681
11059SOL    HW136131   0.681   5.210   7.857  0.3682 -0.5448  0.1799
11059SOL    HW236132   0.675   5.323   7.757 -0.8799  1.2078  2.1626
11060SOL     OW36133   5.686   5.801   0.535  0.8472  0.8692  0.3228
11060SOL    HW136134   5.591   5.817   0.541  0.5093 -0.7373 -0.1988
11060SOL    HW236135   5.724   5.888   0.524 -0.5504  1.5687  0.7077
11061SOL     OW36136   2.227   3.977   3.560  0.1287  0.1964  0.0082
11061SOL    HW136137   2.237   4.043   3.628  0.3105 -2.6072  2.9363
11061SOL    HW236138   2.134   3.980   3.537 -0.3635 -0.0722  1.8467
11062SOL     OW36139   4.841   6.441   1.234  0.2708 -0.6040 -0.3052
11062SOL    HW136140   4.812   6.517   1.284 -0.2208  1.0000 -2.8654
11062SOL    HW236141   4.936   6.450   1.230  0.5073 -1.6935  1.6804
11063SOL     OW36142   1.759   0.543   7.980 -0.2228 -0.2845  0.5541
11063SOL    HW136143   1.691   0.495   8.028 -2.3939  3.1169  1.1780
11063SOL    HW236144   1.711   0.595   7.916  2.1400 -0.1048 -1.2121
11064SOL     OW36145   1.582   5.308   5.714  0.0933  0.2979 -0.3031
11064SOL    HW136146   1.657   5.311   5.774  0.4352  1.3915 -0.7497
11064SOL    HW236147   1.511   5.270   5.766  1.0690 -1.2451 -0.0239
11065SOL     OW36148   0.863   6.516   3.796 -0.0357  0.2271  0.1428
11065SOL    HW136149   0.818   6.463   3.729  0.7742 -0.3362  0.0341
11065SOL    HW236150   0.951   6.529   3.760  0.4673 -0.2332  1.1722
11066SOL     OW36151   7.696   2.921   2.836 -0.0943 -0.3439  0.3977
11066SOL    HW136152   7.778   2.970   2.840  0.7848 -1.6185 -0.8832
11066SOL    HW236153   7.633   2.982   2.799  0.6242  0.2558  0.1321
11067SOL     OW36154   5.346   5.819   0.243  0.2207 -0.1797  0.1700
11067SOL    HW136155   5.303   5.757   0.301  1.1191 -0.3713  0.6527
11067SOL    HW236156   5.375   5.766   0.169 -3.3614  0.4877 -1.9364
11068SOL     OW36157   7.120   7.078   4.387 -0.1603 -0.3083  0.0902
11068SOL    HW136158   7.057   7.150   4.396 -0.2384 -0.3944  0.2362
11068SOL    HW236159   7.132   7.068   4.293  0.1460  0.1534  0.0784
11069SOL     OW36160   1.106   7.105   3.665  1.0156 -0.2567 -0.3211
11069SOL    HW136161   1.184   7.062   3.628  1.1486 -0.4293  0.1573
11069SOL    HW236162   1.140   7.159   3.736  0.8877  0.9180 -1.1321
11070SOL     OW36163   7.364   4.234   5.559 -0.2269 -0.0700 -0.1671
11070SOL    HW136164   7.440   4.183   5.586 -0.5469  0.1455  1.2345
11070SOL    HW236165   7.355   4.301   5.627 -0.7833  0.8339 -1.1101
11071SOL     OW36166   2.931   1.771   2.558  0.1980  0.2671  0.1171
11071SOL    HW136167   3.000   1.727   2.608 -0.0276 -0.3100 -0.0716
11071SOL    HW236168   2.893   1.702   2.504 -1.1773  0.3663  0.9257
11072SOL     OW36169   2.222   0.318   1.027 -0.4045  0.1316  0.1399
11072SOL    HW136170   2.199   0.372   1.103  0.3091 -0.5412  0.8558
11072SOL    HW236171   2.233   0.230   1.063  0.7814 -0.0451 -0.5974
11073SOL     OW36172   1.347   7.015   1.143 -0.5576 -0.2573 -0.4454
11073SOL    HW136173   1.291   7.073   1.195 -1.5109 -2.2716  0.9078
11073SOL    HW236174   1.435   7.032   1.176 -0.6866  0.9883 -0.6751
11074SOL     OW36175   3.688   4.197   4.793 -0.2425 -0.3062 -0.3386
11074SOL    HW136176   3.776   4.232   4.781 -0.8505  1.5037  0.1130
11074SOL    HW236177   3.675   4.137   4.720  1.5648 -1.0607 -0.0772
11075SOL     OW36178   5.247   3.444   7.034 -0.0835 -0.0145  0.4652
11075SOL    HW136179   5.225   3.483   7.119 -0.9436 -1.4184  0.9286
11075SOL    HW236180   5.290   3.362   7.056 -0.7810 -0.6419 -0.4547
11076SOL     OW36181   5.226   2.286   0.127 -0.2594  0.2538 -0.4461
11076SOL    HW136182   5.177   2.368   0.118 -2.2673 -0.6831  1.1975
11076SOL    HW236183   5.192   2.229   0.058 -0.1236  0.2243 -0.4891
11077SOL     OW36184   2.389   1.973   5.334  0.2220  0.0665  0.0420
11077SOL    HW136185   2.397   1.979   5.239 -1.4275  0.1899 -0.1095
11077SOL    HW236186   2.479   1.975   5.365  0.9050 -1.7562 -1.6073
11078SOL     OW36187   5.710   6.829   5.428  0.4241 -0.2035  0.0397
11078SOL    HW136188   5.695   6.843   5.522 -0.8955 -1.4888  0.0437
11078SOL    HW236189   5.684   6.912   5.388  0.6743  0.2447  0.7764
11079SOL     OW36190   1.407   5.085   7.136 -0.2509  0.3204  0.0548
11079SOL    HW136191   1.312   5.074   7.150 -0.3185 -0.7758 -1.0893
11079SOL    HW236192   1.417   5.094   7.042  0.8069  0.1658  0.1382
11080SOL     OW36193   4.529   1.862   2.604  0.0975 -0.4616  0.0037
11080SOL    HW136194   4.509   1.917   2.679  3.8223  1.1791  0.0031
11080SOL    HW236195   4.594   1.911   2.554 -0.0556 -2.7613 -2.7630
11081SOL     OW36196   6.209   0.053   2.321  0.0055 -0.0611  0.3615
11081SOL    HW136197   6.162  -0.016   2.275  1.4000 -0.4714 -0.4948
11081SOL    HW236198   6.291   0.063   2.273  0.8319  0.5883  1.8404
11082SOL     OW36199   4.799   3.951   3.997 -0.7109  0.7735  0.3779
11082SOL    HW136200   4.855   3.894   3.945  0.3815  2.5884 -0.5140
11082SOL    HW236201   4.750   3.891   4.054 -1.1819 -1.2109 -1.9719
11083SOL     OW36202   1.677   5.218   0.340 -0.2929 -0.4332 -0.3990
11083SOL    HW136203   1.708   5.251   0.424 -1.0465 -0.4731 -0.0962
11083SOL    HW236204   1.658   5.296   0.289  2.6875 -0.3351 -1.5518
11084SOL     OW36205   2.566   5.842   1.723 -0.4025 -0.7504 -0.3915
11084SOL    HW136206   2.498   5.851   1.790 -0.1719  0.4581 -0.2960
11084SOL    HW236207   2.546   5.759   1.680 -0.9420 -1.2296  0.7318
11085SOL     OW36208   4.968   4.099   2.159 -0.5511 -0.1223 -0.1069
11085SOL    HW136209   4.931   4.014   2.181 -0.4812 -0.3881 -0.9826
11085SOL    HW236210   4.892   4.156   2.144 -0.6813  0.7892  3.2670
11086SOL     OW36211   4.282   6.356   3.704  0.0406 -0.4911 -0.0090
11086SOL    HW136212   4.317   6.417   3.769 -0.8775 -0.3613  0.3670
11086SOL    HW236213   4.360   6.327   3.655  0.7152 -0.4338  0.9964
11087SOL     OW36214   5.608   4.029   5.876  0.0051 -0.5862 -0.2932
11087SOL    HW136215   5.593   4.019   5.782 -1.8306  1.2685 -0.2720
11087SOL    HW236216   5.703   4.026   5.886  0.3000  0.3081 -2.3677
11088SOL     OW36217   6.200   7.518   7.345  0.1212 -0.1973  0.2642
11088SOL    HW136218   6.202   7.423   7.359 -2.3661 -0.1670  1.4087
11088SOL    HW236219   6.258   7.554   7.411  1.7803 -0.9224 -0.7423
11089SOL     OW36220   4.673   0.105   1.540 -0.3299 -0.0812  0.4387
11089SOL    HW136221   4.588   0.144   1.562 -0.8766 -0.2520 -1.1947
11089SOL    HW236222   4.651   0.021   1.500  0.6087 -0.1188 -0.0214
11090SOL     OW36223   5.561   7.295   4.631  0.6807 -0.3279  0.5186
11090SOL    HW136224   5.535   7.214   4.676 -2.7822  0.9595  1.1093
11090SOL    HW236225   5.539   7.365   4.692  0.6982  1.2168 -1.1585
11091SOL     OW36226   3.922   3.002   3.664 -0.4009  0.4956 -0.3472
11091SOL    HW136227   3.860   3.075   3.659  0.1776  0.9273 -2.4412
11091SOL    HW236228   3.935   2.976   3.573  1.2055 -0.6868  0.1765
11092SOL     OW36229   4.402   0.174   1.617  0.0246  0.2056  0.2182
11092SOL    HW136230   4.403   0.088   1.660 -0.9332  0.0326 -0.0745
11092SOL    HW236231   4.313   0.182   1.582 -0.3394  1.8937  1.3982
11093SOL     OW36232   1.327   6.135   7.377  0.1457 -0.2588 -0.3683
11093SOL    HW136233   1.394   6.107   7.315 -1.5020 -0.6898 -2.0331
11093SOL    HW236234   1.337   6.230   7.383  0.8557 -0.3157 -0.6512
11094SOL     OW36235   4.261   1.915   3.347  0.2635  0.0425 -0.4843
11094SOL    HW136236   4.192   1.854   3.320  0.6269 -0.2554 -0.7538
11094SOL    HW236237   4.234   1.999   3.310 -1.2119  0.4873  1.4572
11095SOL     OW36238   5.461   5.843   1.972 -0.3501  0.1249  0.1979
11095SOL    HW136239   5.495   5.775   1.915  0.6040  1.6806 -1.1896
11095SOL    HW236240   5.519   5.841   2.049  1.4445  1.1159 -1.0577
11096SOL     OW36241   7.158   3.222   3.240 -0.3002 -0.3840 -0.5020
11096SOL    HW136242   7.234   3.182   3.199  0.6454 -0.1348  0.9175
11096SOL    HW236243   7.186   3.312   3.260 -1.5880  0.2937 -1.5313
11097SOL     OW36244   6.560   0.000   4.805 -0.0877  0.0337  0.2540
11097SOL    HW136245   6.570   0.009   4.710 -1.4609 -3.0799 -0.3056
11097SOL    HW236246   6.595   0.082   4.840  0.4234  1.3335 -2.9079
11098SOL     OW36247   7.379   1.080   3.285 -0.0951 -0.0057  0.4454
11098SOL    HW136248   7.450   1.137   3.254 -0.7403 -0.3405 -1.8939
11098SOL    HW236249   7.394   0.998   3.239 -1.1947 -0.5531  1.0365
11099SOL     OW36250   2.097   0.303   5.531 -0.1496  0.1776  0.8631
11099SOL    HW136251   2.126   0.392   5.510 -0.4964 -0.2320 -1.7821
11099SOL    HW236252   2.166   0.246   5.496  0.2739 -0.6259  2.8929
11100SOL     OW36253   0.055   7.871   2.856 -0.0606  0.0911 -0.7300
11100SOL    HW136254  -0.022   7.831   2.897  0.9702 -1.9470 -0.6841
11100SOL    HW236255   0.100   7.799   2.812  3.1841  0.6266  1.3331
11101SOL     OW36256   3.721   6.095   6.053  0.1691 -0.3352 -0.5870
11101SOL    HW136257   3.631   6.091   6.023  0.3971 -0.2119 -1.3059
11101SOL    HW236258   3.737   6.010   6.094 -0.2112 -0.4227 -0.6232
11102SOL     OW36259   7.811   0.719   4.091  0.3198  0.0587  0.2757
11102SOL    HW136260   7.873   0.774   4.044  1.1672 -0.6472  0.5427
11102SOL    HW236261   7.860   0.686   4.167 -0.6298  0.1460  0.9491
11103SOL     OW36262   6.677   5.131   7.593  0.2241 -0.7086  0.4117
11103SOL    HW136263   6.610   5.064   7.610  1.1473 -1.4653  1.1839
11103SOL    HW236264   6.663   5.155   7.501 -0.1908 -1.8943  0.1407
11104SOL     OW36265   6.229   4.244   1.793  0.1948 -0.2265 -0.0242
11104SOL    HW136266   6.200   4.322   1.745 -0.5064 -0.6687 -0.3421
11104SOL    HW236267   6.280   4.278   1.866 -1.1342  0.6049  0.5533
11105SOL     OW36268   2.502   0.426   6.871  0.2856  0.3274  0.0344
11105SOL    HW136269   2.574   0.437   6.808 -1.3690 -0.7192 -2.1850
11105SOL    HW236270   2.532   0.357   6.930  1.1346 -0.0927 -0.8519
11106SOL     OW36271   5.212   7.534   2.986  0.1007 -0.0020  0.2811
11106SOL    HW136272   5.236   7.625   2.971 -0.7835 -0.0062 -1.4917
11106SOL    HW236273   5.144   7.516   2.920  1.1297 -2.2908 -0.2488
11107SOL     OW36274   3.035   4.269   6.145 -0.4876  0.5568 -0.0610
11107SOL    HW136275   3.101   4.335   6.166  0.6646  0.2951 -2.5249
11107SOL    HW236276   3.023   4.220   6.227  0.5645  2.1306  1.0936
11108SOL     OW36277   3.834   5.438   4.301  0.0876  0.0370  0.4218
11108SOL    HW136278   3.758   5.408   4.252 -0.8694  0.6174  1.4773
11108SOL    HW236279   3.903   5.447   4.236 -0.8016 -0.3281 -0.6019
11109SOL     OW36280   6.189   0.973   0.168  0.4578  0.2733 -0.9128
11109SOL    HW136281   6.278   0.975   0.132  1.2375 -1.4881  0.7468
11109SOL    HW236282   6.184   0.890   0.216 -1.6070  0.9747  0.2198
11110SOL     OW36283   7.624   0.425   1.505 -0.6820 -0.9260 -0.0628
11110SOL    HW136284   7.718   0.442   1.507 -0.6757 -0.9882  0.1545
11110SOL    HW236285   7.615   0.345   1.452 -0.7175 -0.2304 -1.1536
11111SOL     OW36286   3.495   1.561   6.446 -0.4032 -0.6461  0.0605
11111SOL    HW136287   3.471   1.500   6.376 -0.1547  0.9473 -1.4732
11111SOL    HW236288   3.412   1.599   6.474 -0.4116 -0.5634 -0.0736
11112SOL     OW36289   0.612   5.069   5.097  0.0397 -0.2007  0.3486
11112SOL    HW136290   0.546   5.089   5.030 -0.2595  0.1803  0.7496
11112SOL    HW236291   0.657   4.991   5.064 -1.5870 -1.3703  0.7346
11113SOL     OW36292   2.894   7.180   7.728  0.2002  0.0209  0.5814
11113SOL    HW136293   2.929   7.188   7.817  3.1097  1.4974 -0.5378
11113SOL    HW236294   2.854   7.265   7.710 -2.1447 -0.9054  1.0408
11114SOL     OW36295   1.732   7.048   1.757  0.0985  0.6229  0.3939
11114SOL    HW136296   1.649   7.068   1.714  0.3505 -1.5183 -1.2670
11114SOL    HW236297   1.787   7.012   1.687  1.2590 -1.1343  2.1204
11115SOL     OW36298   7.953   1.422   2.988  0.1072 -0.5518  0.2273
11115SOL    HW136299   7.955   1.331   3.018  1.6318 -0.0533  1.7720
11115SOL    HW236300   7.865   1.433   2.952  0.3381 -3.0364 -1.3659
11116SOL     OW36301   1.394   7.857   6.413  0.2744  0.4012 -0.3580
11116SOL    HW136302   1.343   7.828   6.488 -0.2692 -0.7134 -1.1426
11116SOL    HW236303   1.391   7.953   6.418  1.1261  0.3811  1.6139
11117SOL     OW36304   2.032   1.849   7.125 -0.0414 -0.6445  0.1936
11117SOL    HW136305   2.008   1.932   7.083  0.5588 -0.7737 -0.4267
11117SOL    HW236306   1.956   1.826   7.178 -1.2941 -1.0423 -1.6710
11118SOL     OW36307   7.038   7.022   7.492  0.2705 -0.0200 -0.2110
11118SOL    HW136308   7.100   6.983   7.430  0.4828 -0.9975  0.5786
11118SOL    HW236309   7.092   7.075   7.550  0.6834 -2.0961  1.4508
11119SOL     OW36310   8.005   4.436   6.856  0.1692 -0.2438  0.0721
11119SOL    HW136311   7.950   4.448   6.778 -0.0073 -2.9303 -0.2919
11119SOL    HW236312   8.047   4.351   6.843  0.7487 -0.3948  2.5631
11120SOL     OW36313   7.219   0.493   0.020  0.5433  0.2140 -0.6135
11120SOL    HW136314   7.174   0.471   0.102  1.7081  0.1394  0.0236
11120SOL    HW236315   7.311   0.471   0.036  0.8597  0.5942 -1.7997
11121SOL     OW36316   7.588   3.634   6.762  0.3026 -0.3865 -0.6969
11121SOL    HW136317   7.597   3.539   6.764  1.8654 -0.3130 -2.0226
11121SOL    HW236318   7.504   3.650   6.719 -0.5754 -1.1410  0.6648
11122SOL     OW36319   4.165   0.882   6.457  1.1487 -0.3332 -0.1409
11122SOL    HW136320   4.213   0.823   6.399  2.8529  1.0359 -0.2158
11122SOL    HW236321   4.100   0.923   6.400  0.6845 -1.3199 -0.3316
11123SOL     OW36322   5.064   6.308   2.988  0.4997  0.2613 -0.1718
11123SOL    HW136323   5.005   6.322   3.063 -3.9753 -2.3028 -2.7956
11123SOL    HW236324   5.054   6.215   2.967  1.7243  0.8212 -3.7829
11124SOL     OW36325   4.106   7.164   1.761  0.3771  0.0047 -0.0837
11124SOL    HW136326   4.028   7.175   1.815 -1.7404 -1.8705 -2.5376
11124SOL    HW236327   4.130   7.253   1.734 -1.9436  0.5231 -0.6101
11125SOL     OW36328   4.493   6.936   6.263  0.0329  0.2922 -0.3137
11125SOL    HW136329   4.451   6.984   6.334 -0.0328 -1.6934  1.0699
11125SOL    HW236330   4.431   6.942   6.190 -1.4369 -0.3242  0.8407
11126SOL     OW36331   1.096   5.976   6.634 -0.7411  0.5760 -0.5992
11126SOL    HW136332   1.065   5.987   6.724 -1.2562  0.6660 -0.7810
11126SOL    HW236333   1.015   5.976   6.582 -0.4101  1.0502 -1.1122
11127SOL     OW36334   7.474   7.351   1.069 -0.4654  0.0302  0.3238
11127SOL    HW136335   7.427   7.398   1.138 -1.0536  0.7363 -0.5225
11127SOL    HW236336   7.507   7.420   1.012 -1.2072 -0.5642 -0.8660
11128SOL     OW36337   3.762   7.329   0.270  0.2972 -0.6092 -0.4380
11128SOL    HW136338   3.787   7.372   0.351  2.2981 -1.6970 -0.4221
11128SOL    HW236339   3.706   7.393   0.225 -0.3620  0.2345  1.4975
11129SOL     OW36340   0.008   1.906   8.117  0.1568 -0.2425  0.4849
11129SOL    HW136341   0.100   1.882   8.109 -0.3064 -1.7810 -0.5132
11129SOL    HW236342  -0.022   1.864   8.198 -0.0316 -0.9701  0.0393
11130SOL     OW36343   4.907   4.799   5.919  0.2736  0.0955 -0.0908
11130SOL    HW136344   4.891   4.889   5.947 -1.0034 -0.1913  0.2046
11130SOL    HW236345   4.930   4.806   5.827  0.2178  0.7310 -0.0609
11131SOL     OW36346   6.721   1.656   8.069  0.7058  0.1755  0.0157
11131SOL    HW136347   6.674   1.588   8.119 -1.3139  1.9063  0.6343
11131SOL    HW236348   6.746   1.720   8.135 -1.2123  2.0772 -0.9912
11132SOL     OW36349   2.515   4.502   5.603  0.2066 -0.2711 -0.2934
11132SOL    HW136350   2.501   4.431   5.665  0.3596  0.4614  0.5968
11132SOL    HW236351   2.532   4.579   5.657 -2.4907  1.0485 -1.1306
11133SOL     OW36352   2.527   2.342   4.500  0.0478 -0.2805 -0.3322
11133SOL    HW136353   2.500   2.432   4.516  1.9292  0.4643 -1.0860
11133SOL    HW236354   2.449   2.300   4.463 -0.9833  0.8940  0.4259
11134SOL     OW36355   2.141   7.885   7.144 -0.1519 -0.2937 -0.6042
11134SOL    HW136356   2.168   7.833   7.220 -0.1621 -0.2180 -0.5491
11134SOL    HW236357   2.052   7.912   7.164  0.9365  2.5519  0.9047
11135SOL     OW36358   2.729   4.466   5.415 -0.4350  0.4726  0.3896
11135SOL    HW136359   2.648   4.475   5.466 -1.5976 -0.2144 -1.2306
11135SOL    HW236360   2.738   4.548   5.368 -3.1852 -1.1132 -3.4292
11136SOL     OW36361   0.673   6.088   7.550  0.3133  0.3997  0.4581
11136SOL    HW136362   0.592   6.049   7.516 -0.0917  2.0061 -0.5060
11136SOL    HW236363   0.743   6.033   7.515 -0.2630  0.1993 -0.4140
11137SOL     OW36364   3.854   5.969   4.531 -0.8847  0.5312 -0.9303
11137SOL    HW136365   3.853   5.884   4.486  0.8171 -0.1860  0.2511
11137SOL    HW236366   3.762   5.994   4.536 -1.7002 -2.2342  0.3821
11138SOL     OW36367   4.987   3.642   2.796  0.5214 -0.0130  0.4022
11138SOL    HW136368   5.057   3.580   2.775 -0.2278 -1.3435  1.6354
11138SOL    HW236369   4.909   3.604   2.755  0.4031  1.2512 -0.6224
11139SOL     OW36370   5.305   0.315   1.780 -0.0608  0.1753 -0.1444
11139SOL    HW136371   5.361   0.259   1.725 -1.0026 -0.6751 -0.2800
11139SOL    HW236372   5.330   0.293   1.870  0.7109  0.7619 -0.1971
11140SOL     OW36373   1.207   7.672   3.032 -0.2714  0.5151 -0.2526
11140SOL    HW136374   1.112   7.674   3.018 -0.2518  0.9600 -0.3344
11140SOL    HW236375   1.241   7.738   2.972  0.1757 -0.2459 -0.8472
11141SOL     OW36376   5.360   3.616   4.733  0.3543 -0.1887 -0.2580
11141SOL    HW136377   5.429   3.664   4.686  0.5484 -2.0935 -2.1070
11141SOL    HW236378   5.408   3.549   4.782  0.0409  0.9535  1.7069
11142SOL     OW36379   2.684   2.177   5.360 -0.3559  0.0684  0.6153
11142SOL    HW136380   2.693   2.082   5.372  1.9341  0.3517  1.7285
11142SOL    HW236381   2.628   2.186   5.283 -0.3002 -2.2031  0.2300
11143SOL     OW36382   1.568   0.496   6.717 -0.0187  0.3521 -0.3961
11143SOL    HW136383   1.520   0.557   6.772  0.6764 -0.1126  0.7729
11143SOL    HW236384   1.659   0.504   6.746 -0.0122 -1.7571  0.3306
11144SOL     OW36385   6.082   5.925   7.524 -0.3956  0.7044  0.4253
11144SOL    HW136386   6.113   5.836   7.540  2.6189  1.6616  0.6340
11144SOL    HW236387   6.086   5.968   7.609  0.4505  1.6084 -0.0387
11145SOL     OW36388   7.978   7.259   1.925  0.3980 -0.4151  0.6070
11145SOL    HW136389   7.892   7.301   1.916  0.5315 -0.3641 -0.6635
11145SOL    HW236390   7.978   7.191   1.857  0.1417 -2.6019  2.6671
11146SOL     OW36391   2.511   7.675   4.143  0.2093  0.6820 -0.0895
11146SOL    HW136392   2.535   7.693   4.234  2.1264 -1.7708  0.0273
11146SOL    HW236393   2.470   7.588   4.146  1.5940 -0.0883 -1.6783
11147SOL     OW36394   6.936   5.712   4.356  0.0922  0.3397  0.1182
11147SOL    HW136395   6.980   5.709   4.440 -1.8815 -0.1889  1.2075
11147SOL    HW236396   6.868   5.778   4.367  0.9426  1.5867 -1.7048
11148SOL     OW36397   1.343   0.027   6.099  0.4181 -0.5636  0.1850
11148SOL    HW136398   1.418   0.059   6.051  1.8676 -2.5895  0.9268
11148SOL    HW236399   1.364   0.044   6.191 -0.1283 -0.9354  0.3873
11149SOL     OW36400   0.021   6.456   4.019 -0.1605  0.2935  0.2101
11149SOL    HW136401  -0.049   6.503   3.973  0.6519  0.3209 -1.0556
11149SOL    HW236402  -0.019   6.373   4.044 -0.8632  0.6094  0.1744
11150SOL     OW36403   5.950   5.121   2.199 -0.8000  0.0094 -0.6235
11150SOL    HW136404   5.867   5.074   2.190 -1.8383  1.2381  1.7746
11150SOL    HW236405   6.015   5.053   2.214 -1.4022 -0.9454 -2.1078
11151SOL     OW36406   3.058   5.239   0.185  0.1167 -0.1509  0.0231
11151SOL    HW136407   3.076   5.145   0.192 -0.4547 -0.2996 -0.4655
11151SOL    HW236408   3.118   5.271   0.118  0.2267 -0.1893  0.1032
11152SOL     OW36409   2.374   6.614   0.785 -0.6290 -0.0294  0.3020
11152SOL    HW136410   2.374   6.677   0.713  3.2469  2.3898  2.1055
11152SOL    HW236411   2.311   6.650   0.848 -0.4861  0.5253  0.1324
11153SOL     OW36412   5.721   0.480   2.272  0.0694 -0.3901  0.2795
11153SOL    HW136413   5.708   0.548   2.338  0.0687  0.9543 -1.0761
11153SOL    HW236414   5.814   0.457   2.281 -0.2036 -1.1156  1.5515
11154SOL     OW36415   2.578   5.238   0.322 -0.4916 -0.2039  0.3926
11154SOL    HW136416   2.520   5.264   0.394  1.0944  1.1810  1.2348
11154SOL    HW236417   2.660   5.213   0.365  1.0159  2.0972 -0.9592
11155SOL     OW36418   1.555   1.842   2.630  0.2101 -0.4925 -0.0559
11155SOL    HW136419   1.581   1.801   2.712 -0.0686  0.5650  0.5836
11155SOL    HW236420   1.603   1.925   2.628 -0.3880 -0.1477 -0.5814
11156SOL     OW36421   4.215   5.441   2.863 -0.4064 -0.0326  0.3721
11156SOL    HW136422   4.253   5.414   2.946  1.1604 -2.0245 -0.9076
11156SOL    HW236423   4.261   5.389   2.797 -0.7293  2.3396 -1.8734
11157SOL     OW36424   0.585   2.160   8.131  0.2924  0.8957 -0.1554
11157SOL    HW136425   0.567   2.251   8.106 -1.8084  0.5796  0.1043
11157SOL    HW236426   0.636   2.168   8.211 -2.1552  1.8947  1.3964
11158SOL     OW36427   6.919   7.428   2.157 -0.3309  0.1168 -0.5922
11158SOL    HW136428   6.862   7.355   2.182 -1.2596  0.7981 -0.6504
11158SOL    HW236429   6.907   7.492   2.227  1.8667 -0.4866  0.4170
11159SOL     OW36430   6.762   3.682   4.565  0.2257  0.2534 -0.1103
11159SOL    HW136431   6.848   3.651   4.536  0.1737 -0.0095  0.0166
11159SOL    HW236432   6.763   3.775   4.545 -0.2815 -0.1235 -2.1838
11160SOL     OW36433   0.718   3.786   0.362  0.5487  0.7357  0.1893
11160SOL    HW136434   0.740   3.749   0.276 -2.8610  0.2628 -0.6260
11160SOL    HW236435   0.738   3.717   0.424 -0.8631 -0.5964 -0.7546
11161SOL     OW36436   0.138   4.613   4.439  0.0805 -0.3892  0.2066
11161SOL    HW136437   0.171   4.533   4.398  2.1041 -0.3274  1.5498
11161SOL    HW236438   0.193   4.683   4.402 -0.1852  0.0778  0.6773
11162SOL     OW36439   0.168   0.067   1.018  0.2336 -0.0130  0.0214
11162SOL    HW136440   0.135   0.143   0.971  0.8735  0.5168  0.4235
11162SOL    HW236441   0.169  -0.003   0.952 -2.1613 -0.2140  0.0900
11163SOL     OW36442   1.220   3.552   4.001  0.3365 -0.0242 -0.3328
11163SOL    HW136443   1.155   3.622   3.994 -0.5228 -0.7079  0.7504
11163SOL    HW236444   1.177   3.475   3.965  1.4182  0.0378 -1.8821
11164SOL     OW36445   4.666   5.351   1.857 -0.4482 -0.5327  0.4945
11164SOL    HW136446   4.760   5.344   1.843 -0.8778 -3.0046 -1.9024
11164SOL    HW236447   4.628   5.362   1.770 -2.4600 -0.9745  1.2398
11165SOL     OW36448   5.530   5.634   2.578  0.2387  0.0334  0.4569
11165SOL    HW136449   5.478   5.681   2.513 -1.2986 -1.3641  0.6261
11165SOL    HW236450   5.585   5.701   2.618 -0.4396  1.3103 -0.6861
11166SOL     OW36451   3.288   2.609   4.485  0.3077 -1.0440  0.0427
11166SOL    HW136452   3.336   2.526   4.489  0.1198 -1.0962  1.6239
11166SOL    HW236453   3.255   2.613   4.395 -0.3480 -3.0679  0.1507
11167SOL     OW36454   7.435   2.028   3.649  0.6668  0.2439  0.0436
11167SOL    HW136455   7.405   2.029   3.558  1.7440 -0.8716 -0.3582
11167SOL    HW236456   7.430   2.119   3.677 -1.4853  0.3548 -0.5038
11168SOL     OW36457   1.919   3.999   4.530 -0.0287  0.2819 -0.2643
11168SOL    HW136458   1.881   3.998   4.618 -0.8107  1.7047 -0.5680
11168SOL    HW236459   1.902   4.087   4.497  2.2111  0.5049 -0.9999
11169SOL     OW36460   4.167   1.163   2.726 -0.0863  0.6626  0.7245
11169SOL    HW136461   4.217   1.139   2.804 -0.6507  1.8483  1.4681
11169SOL    HW236462   4.117   1.241   2.752 -1.8701 -0.1217 -0.1726
11170SOL     OW36463   4.000   6.063   5.915 -0.1038 -0.3153  0.2999
11170SOL    HW136464   3.925   6.108   5.953  0.8275  0.9902  0.6411
11170SOL    HW236465   3.984   5.970   5.933 -1.8765 -0.1179 -0.1014
11171SOL     OW36466   3.534   1.944   7.568  0.3156 -0.2619  0.1039
11171SOL    HW136467   3.586   1.880   7.616  2.1902  0.6737 -0.5825
11171SOL    HW236468   3.586   2.025   7.573 -0.2066  0.2787 -2.1001
11172SOL     OW36469   3.112   1.703   4.764 -0.3295  0.4503  0.0404
11172SOL    HW136470   3.108   1.681   4.671  0.9389  1.1718 -0.2037
11172SOL    HW236471   3.183   1.650   4.799 -0.2270  0.8231  0.4083
11173SOL     OW36472   1.065   1.582   7.099  0.8305 -0.5083  0.5814
11173SOL    HW136473   1.090   1.642   7.168  0.2633  2.1840 -1.3784
11173SOL    HW236474   0.977   1.610   7.073  1.3039 -0.8715 -1.6826
11174SOL     OW36475   1.008   7.348   2.154  0.1475 -0.2480  0.1755
11174SOL    HW136476   1.082   7.378   2.207 -0.5001  0.8676  0.4844
11174SOL    HW236477   0.944   7.316   2.218 -0.3494  0.4409  0.0328
11175SOL     OW36478   3.598   6.295   5.257  0.1045 -0.1007 -0.2954
11175SOL    HW136479   3.557   6.209   5.267  0.8176 -0.4938 -0.6305
11175SOL    HW236480   3.526   6.358   5.264 -0.4450 -0.7345 -0.1945
11176SOL     OW36481   7.582   7.583   0.944  0.3812 -0.4095 -0.0109
11176SOL    HW136482   7.623   7.636   1.011 -0.5514  0.1072  0.1683
11176SOL    HW236483   7.575   7.641   0.868 -2.5818  0.5171  0.8311
11177SOL     OW36484   2.809   5.541   1.515 -0.6038  0.0071 -0.3803
11177SOL    HW136485   2.861   5.621   1.513 -1.7516  0.7615 -1.3962
11177SOL    HW236486   2.832   5.495   1.435 -1.1652  0.1293 -0.6144
11178SOL     OW36487   2.079   1.128   6.144 -0.2665 -0.0891  0.1746
11178SOL    HW136488   2.117   1.169   6.066 -0.4983  1.0495  0.6261
11178SOL    HW236489   2.128   1.048   6.157 -0.4793 -0.4862 -1.3648
11179SOL     OW36490   4.199   5.225   7.048  0.1290  0.1201  0.6434
11179SOL    HW136491   4.238   5.230   6.960  1.0703  1.2378  1.0973
11179SOL    HW236492   4.240   5.149   7.088  0.3342  0.1071  0.4127
11180SOL     OW36493   5.486   4.776   7.782 -0.0038 -0.2910  0.0028
11180SOL    HW136494   5.442   4.768   7.698  0.6698 -1.0383 -0.2817
11180SOL    HW236495   5.431   4.838   7.831  0.2895  1.1586 -1.4271
11181SOL     OW36496   0.658   2.378   1.806  0.3381  0.0354 -0.0540
11181SOL    HW136497   0.618   2.451   1.854 -2.1025 -0.3035 -1.4174
11181SOL    HW236498   0.666   2.411   1.717 -0.5034 -1.2213 -0.6126
11182SOL     OW36499   6.965   6.317   6.136  0.1774  0.0545  0.3975
11182SOL    HW136500   6.997   6.386   6.079  0.4495  0.0858  0.5903
11182SOL    HW236501   6.878   6.346   6.163 -0.4707 -0.5041 -0.9534
11183SOL     OW36502   2.659   7.847   6.305  0.5557 -0.0468  0.0322
11183SOL    HW136503   2.592   7.890   6.359 -0.0829 -0.0681 -0.7165
11183SOL    HW236504   2.737   7.847   6.360  0.0814  0.4383  0.7400
11184SOL     OW36505   4.763   3.508   8.084  0.2527 -0.4114 -0.2578
11184SOL    HW136506   4.681   3.546   8.113 -0.4167 -2.3830  0.5906
11184SOL    HW236507   4.766   3.526   7.990 -0.6370  0.5432 -0.1200
11185SOL     OW36508   3.567   1.365   3.570 -0.2845  0.2092  0.5062
11185SOL    HW136509   3.622   1.320   3.634 -0.6586 -0.5544  0.3150
11185SOL    HW236510   3.622   1.433   3.533  0.0172  0.4962  1.4565
11186SOL     OW36511   5.479   7.882   2.319  0.0906 -0.3360  0.2139
11186SOL    HW136512   5.482   7.855   2.227 -0.1389 -0.9506  0.3889
11186SOL    HW236513   5.531   7.816   2.365  0.8851  0.4095  0.4249
11187SOL     OW36514   4.382   3.722   6.781  0.1792  0.1282 -0.7506
11187SOL    HW136515   4.451   3.720   6.714  0.4774  2.6028 -0.5795
11187SOL    HW236516   4.422   3.767   6.855 -1.1613  0.2231 -0.0639
11188SOL     OW36517   5.828   3.702   4.953  0.8228  0.0408 -0.2846
11188SOL    HW136518   5.833   3.797   4.942  1.6261  0.0513  0.1126
11188SOL    HW236519   5.763   3.689   5.022  0.6172  0.2933 -0.4307
11189SOL     OW36520   6.986   3.045   4.149 -0.3381  0.0320 -0.0585
11189SOL    HW136521   7.061   3.081   4.196 -0.5165  0.0253  0.2284
11189SOL    HW236522   7.024   3.009   4.069 -0.0930  0.4331 -0.1291
11190SOL     OW36523   3.229   4.039   2.994 -0.0360 -0.1852  0.7274
11190SOL    HW136524   3.136   4.043   3.016 -0.0467  0.5662  0.5831
11190SOL    HW236525   3.273   4.019   3.077 -0.3290 -0.5740  0.7886
11191SOL     OW36526   5.555   4.378   5.687 -0.0827  0.6690  0.4227
11191SOL    HW136527   5.606   4.396   5.608  1.3086 -0.2140  1.0865
11191SOL    HW236528   5.618   4.385   5.759 -0.6503 -1.3662  1.1906
11192SOL     OW36529   8.107   2.343   6.111  0.1701 -0.3486 -0.6323
11192SOL    HW136530   8.117   2.250   6.131  1.1918 -0.3503 -1.0632
11192SOL    HW236531   8.109   2.387   6.196 -1.7966 -0.8100 -0.2996
11193SOL     OW36532   1.706   3.990   6.873  0.4363 -0.5252 -0.0051
11193SOL    HW136533   1.653   3.952   6.943  0.0982  0.1714  0.1163
11193SOL    HW236534   1.724   4.079   6.901  1.8734 -0.8094  0.0673
11194SOL     OW36535   3.517   0.617   6.271 -0.3626 -0.3412  0.2244
11194SOL    HW136536   3.499   0.700   6.228  0.8166  0.4056  1.1122
11194SOL    HW236537   3.462   0.553   6.224 -1.7869  1.0159 -0.0554
11195SOL     OW36538   2.668   6.857   5.247 -0.0911  0.2275 -0.0395
11195SOL    HW136539   2.726   6.907   5.189  0.6316 -0.0338  0.4624
11195SOL    HW236540   2.726   6.812   5.307 -0.7883 -0.5282  0.0806
11196SOL     OW36541   2.360   0.724   4.448  0.8090 -0.0787 -0.4889
11196SOL    HW136542   2.450   0.750   4.464  0.2010  1.9240 -0.1161
11196SOL    HW236543   2.319   0.800   4.408 -0.3062 -1.5333 -2.2876
11197SOL     OW36544   0.058   3.953   2.748  0.3313  0.3272 -0.6145
11197SOL    HW136545   0.148   3.961   2.716  1.0114 -1.2472  0.7734
11197SOL    HW236546   0.062   3.884   2.813 -1.8125  0.5801 -0.1533
11198SOL     OW36547   0.452   6.887   0.236  0.3601 -0.4019  0.4134
11198SOL    HW136548   0.440   6.981   0.251 -1.9379 -0.5634  0.0688
11198SOL    HW236549   0.453   6.878   0.141 -5.5290 -1.0923  0.0485
11199SOL     OW36550   0.109   0.460   1.848  0.1067 -0.6147  0.2837
11199SOL    HW136551   0.127   0.541   1.800 -0.0785  0.2693  1.6486
11199SOL    HW236552   0.094   0.488   1.938 -2.4176 -1.8950  0.3613
11200SOL     OW36553   4.511   2.299   6.581 -0.4298  0.3806  0.4840
11200SOL    HW136554   4.479   2.324   6.495 -0.2733  1.1184  0.6352
11200SOL    HW236555   4.557   2.376   6.614 -0.1071 -0.0364  1.0484
11201SOL     OW36556   7.377   1.452   5.285  0.0831  0.2643 -0.1801
11201SOL    HW136557   7.408   1.423   5.199  0.9174  1.2996 -0.2515
11201SOL    HW236558   7.438   1.414   5.347 -0.3704 -0.2719 -0.0500
11202SOL     OW36559   2.938   4.462   7.268  0.0398 -0.0261 -0.3359
11202SOL    HW136560   2.901   4.541   7.308  0.8100  0.3231 -0.3141
11202SOL    HW236561   3.027   4.457   7.301 -0.0293 -0.9705 -0.2531
11203SOL     OW36562   6.186   5.624   6.561 -0.1039 -0.1695 -0.3537
11203SOL    HW136563   6.194   5.583   6.475  0.7807 -0.4401 -0.1473
11203SOL    HW236564   6.115   5.576   6.603 -0.5566 -0.0251 -0.9338
11204SOL     OW36565   2.343   2.913   7.239 -0.1125  0.1385 -0.0387
11204SOL    HW136566   2.415   2.874   7.189 -0.0686  0.2438 -0.0586
11204SOL    HW236567   2.286   2.952   7.172 -0.0438  0.2960 -0.0072
11205SOL     OW36568   5.554   7.316   4.369  0.1300  0.1289 -0.0287
11205SOL    HW136569   5.460   7.300   4.375  0.1458  0.3338  0.9258
11205SOL    HW236570   5.584   7.318   4.460  0.6732  2.1918 -0.1992
11206SOL     OW36571   4.620   4.966   8.072  0.3794  0.1536  0.2799
11206SOL    HW136572   4.530   4.937   8.091  0.3389  0.6010  0.8160
11206SOL    HW236573   4.622   5.057   8.102  1.7137 -0.5798  2.6409
11207SOL     OW36574   3.376   0.902   0.408 -0.3618  0.2117 -0.7006
11207SOL    HW136575   3.284   0.873   0.406 -0.0242 -0.9151 -0.6673
11207SOL    HW236576   3.420   0.837   0.461  0.8488 -0.4770 -2.4635
11208SOL     OW36577   0.482   4.155   5.282 -0.3364 -0.3427 -0.0370
11208SOL    HW136578   0.478   4.187   5.192 -0.1926  2.3290  0.8020
11208SOL    HW236579   0.571   4.176   5.311 -0.3367 -1.2958  0.6900
11209SOL     OW36580   1.260   5.542   2.425  0.1871  0.4226 -0.2824
11209SOL    HW136581   1.328   5.493   2.379  0.1761  1.1627 -1.1013
11209SOL    HW236582   1.186   5.481   2.429  1.2242 -0.8320  1.6450
11210SOL     OW36583   5.049   7.730   5.900 -0.4877  0.2179  0.3336
11210SOL    HW136584   5.036   7.637   5.879  0.6535  0.1243 -0.0511
11210SOL    HW236585   5.094   7.765   5.823  1.4903  0.4691  1.5384
11211SOL     OW36586   3.650   5.929   6.648 -0.0559 -0.3613 -0.6743
11211SOL    HW136587   3.703   5.992   6.696 -1.7272  0.6210 -0.0593
11211SOL    HW236588   3.661   5.954   6.556 -1.1321  1.2363 -0.4096
11212SOL     OW36589   4.633   6.829   0.758 -0.7369  0.2856  0.3052
11212SOL    HW136590   4.614   6.908   0.809 -0.0933  1.3985 -1.1361
11212SOL    HW236591   4.547   6.790   0.741 -1.0526  0.6220  1.0820
11213SOL     OW36592   0.202   5.587   4.807 -0.2374  0.4670  0.1455
11213SOL    HW136593   0.202   5.683   4.798  1.0023  0.5020  0.2536
11213SOL    HW236594   0.293   5.566   4.830 -0.3857 -0.7762 -0.3424
11214SOL     OW36595   0.673   5.283   3.308  0.2143  0.4062 -0.5033
11214SOL    HW136596   0.742   5.288   3.374  0.4255 -0.7015 -0.6244
11214SOL    HW236597   0.718   5.304   3.226  0.4396 -0.3845 -0.5924
11215SOL     OW36598   3.580   7.622   0.460  0.3768  0.2147 -0.2359
11215SOL    HW136599   3.581   7.634   0.366 -0.5917 -1.2383 -0.4660
11215SOL    HW236600   3.540   7.702   0.495 -1.0351 -0.0288 -1.2257
11216SOL     OW36601   1.742   2.117   3.345  0.0674  0.2712  0.5868
11216SOL    HW136602   1.816   2.057   3.344  0.3962  0.6571  0.8744
11216SOL    HW236603   1.664   2.061   3.348  0.2643 -0.1719 -1.3731
11217SOL     OW36604   2.352   3.362   1.869 -1.0888  0.1291  0.2809
11217SOL    HW136605   2.314   3.328   1.788  0.9936  0.8179 -1.0966
11217SOL    HW236606   2.295   3.330   1.939 -2.3019 -1.4760 -1.3608
11218SOL     OW36607   3.263   3.497   5.475 -0.8983 -0.2119 -0.6913
11218SOL    HW136608   3.357   3.492   5.453 -1.0831  1.1383 -2.0180
11218SOL    HW236609   3.219   3.468   5.395 -1.6120  0.3677 -0.5124
11219SOL     OW36610   0.140   3.478   6.948 -0.7642  0.1861 -0.0270
11219SOL    HW136611   0.178   3.521   6.871 -2.3404  0.4646 -0.6912
11219SOL    HW236612   0.072   3.421   6.912 -1.7887  0.6056  1.1819
11220SOL     OW36613   4.964   0.225   6.676 -0.4375  0.5437  0.0109
11220SOL    HW136614   4.884   0.189   6.637 -0.2691  0.8937 -0.6673
11220SOL    HW236615   5.029   0.155   6.666 -1.0663 -0.4108  2.0816
11221SOL     OW36616   2.944   3.227   2.806 -0.7267  0.5112  0.0650
11221SOL    HW136617   2.972   3.255   2.719 -0.5764  0.5603  0.1290
11221SOL    HW236618   2.903   3.141   2.791 -1.7630  1.0420 -0.2212
11222SOL     OW36619   3.151   4.459   2.494 -0.2434 -0.2008  0.1079
11222SOL    HW136620   3.240   4.424   2.492 -0.5256 -0.9750 -2.1305
11222SOL    HW236621   3.104   4.401   2.554  0.2473 -1.1689 -0.4220
11223SOL     OW36622   5.343   5.817   6.511 -0.0104 -0.3801 -0.2450
11223SOL    HW136623   5.432   5.785   6.497  0.1567 -0.1998  0.3875
11223SOL    HW236624   5.348   5.911   6.489  0.2371 -0.1101  0.9043
11224SOL     OW36625   6.185   7.459   1.096 -0.5581 -0.1311 -0.3296
11224SOL    HW136626   6.239   7.522   1.049  0.3716 -0.1531  0.6613
11224SOL    HW236627   6.158   7.396   1.030  0.5634 -0.0652 -0.8756
11225SOL     OW36628   4.807   1.686   2.965 -0.8906  0.4070  0.1875
11225SOL    HW136629   4.835   1.612   3.019  0.2494  0.6073 -0.1157
11225SOL    HW236630   4.731   1.652   2.917 -0.2343 -0.6535 -0.1397
11226SOL     OW36631   4.104   1.381   4.553 -0.4983 -0.0073 -0.5249
11226SOL    HW136632   4.183   1.416   4.593  0.7962 -1.8782 -1.2767
11226SOL    HW236633   4.136   1.318   4.488 -2.5338  1.3690 -3.0479
11227SOL     OW36634   1.422   5.523   2.632  0.1568 -0.1557 -0.0208
11227SOL    HW136635   1.394   5.464   2.702 -0.3934 -1.2750 -1.1256
11227SOL    HW236636   1.343   5.535   2.579  0.9698 -0.8092 -1.4459
11228SOL     OW36637   3.830   3.332   0.814  0.4884 -0.1360  0.4740
11228SOL    HW136638   3.815   3.238   0.804  0.9285 -0.4182  2.1432
11228SOL    HW236639   3.753   3.373   0.777  0.7129 -1.1092 -1.1517
11229SOL     OW36640   5.012   7.624   2.261 -0.4083 -0.4314 -0.5306
11229SOL    HW136641   4.930   7.647   2.303 -1.7963 -0.6894 -2.9099
11229SOL    HW236642   5.032   7.698   2.203  1.7408  0.1813  0.8556
11230SOL     OW36643   4.744   5.652   5.333  0.0044 -0.1030 -0.1378
11230SOL    HW136644   4.722   5.634   5.242  3.3437 -1.5532 -0.8012
11230SOL    HW236645   4.724   5.570   5.379  1.6016 -0.6233 -0.3120
11231SOL     OW36646   1.828   2.799   4.266  1.1088  0.3108 -0.2534
11231SOL    HW136647   1.857   2.793   4.357  2.4685 -1.3536 -0.7297
11231SOL    HW236648   1.734   2.778   4.269  1.0185  0.8258  0.8125
11232SOL     OW36649   3.342   1.566   4.212  0.5354 -0.4749 -0.3050
11232SOL    HW136650   3.399   1.624   4.262  0.5900 -1.1829  0.4822
11232SOL    HW236651   3.295   1.515   4.278 -1.9698  0.9433 -0.8677
11233SOL     OW36652   1.210   4.292   3.671 -0.0384 -0.0260 -0.2248
11233SOL    HW136653   1.224   4.264   3.762 -0.0938  0.4288 -0.0739
11233SOL    HW236654   1.252   4.378   3.665 -2.2153  1.1422  0.1000
11234SOL     OW36655   5.320   6.425   4.973 -0.0099  0.6237  0.2720
11234SOL    HW136656   5.367   6.474   4.905  2.8192 -1.1309  0.7870
11234SOL    HW236657   5.362   6.452   5.055  0.4543 -1.3563  0.7241
11235SOL     OW36658   2.398   4.056   0.593 -0.0273 -0.3775  0.4287
11235SOL    HW136659   2.303   4.040   0.596  0.0393 -0.7621  0.4940
11235SOL    HW236660   2.436   3.971   0.572  0.2516 -0.0512 -0.4169
11236SOL     OW36661   4.446   4.549   7.816 -0.0867 -0.0979  0.2582
11236SOL    HW136662   4.412   4.480   7.759 -2.5778  0.2608  1.1937
11236SOL    HW236663   4.527   4.577   7.774 -1.4751 -0.2565 -2.7870
11237SOL     OW36664   3.555   4.694   0.128  0.4865  0.0902  0.2546
11237SOL    HW136665   3.480   4.736   0.087 -0.2552 -0.6458  0.8171
11237SOL    HW236666   3.530   4.685   0.220  1.6301  0.6256  0.6352
11238SOL     OW36667   8.046   6.779   0.894 -0.3557  0.8160 -0.1479
11238SOL    HW136668   8.034   6.714   0.825 -1.2446  0.7995  0.0152
11238SOL    HW236669   7.966   6.830   0.894 -0.9704 -0.0491  1.7610
11239SOL     OW36670   6.345   6.311   3.423 -0.0900  0.1083  0.1676
11239SOL    HW136671   6.401   6.236   3.440 -0.2911  0.0208  0.4514
11239SOL    HW236672   6.378   6.379   3.483  0.4289  0.4205 -0.4550
11240SOL     OW36673   2.449   1.024   1.238 -0.2854 -0.3414  0.0753
11240SOL    HW136674   2.486   0.942   1.271  0.5916  0.0299  0.0471
11240SOL    HW236675   2.417   1.002   1.150  0.0135 -0.6331  0.0380
11241SOL     OW36676   8.034   6.679   0.216 -0.5009  0.0126  0.0870
11241SOL    HW136677   8.110   6.644   0.170  0.9669  0.8693  1.7350
11241SOL    HW236678   8.026   6.625   0.294 -0.8749  0.6208  0.4798
11242SOL     OW36679   5.482   6.486   6.848  0.0171 -0.0477  0.1613
11242SOL    HW136680   5.574   6.461   6.833 -0.6886 -2.0940 -1.1584
11242SOL    HW236681   5.451   6.514   6.762 -0.6817  0.4090  0.5557
11243SOL     OW36682   6.401   7.606   4.361  0.1583 -0.7673 -0.6399
11243SOL    HW136683   6.408   7.682   4.303  1.3879  0.0345  0.5035
11243SOL    HW236684   6.345   7.636   4.433 -0.4973 -1.4129 -0.8728
11244SOL     OW36685   4.385   5.424   2.207  0.2243  0.1612 -0.8353
11244SOL    HW136686   4.335   5.494   2.165 -1.3326 -0.7509 -0.5945
11244SOL    HW236687   4.396   5.358   2.139  1.1000  0.3452 -0.8772
11245SOL     OW36688   1.981   0.293   6.036  0.0173  0.0743  0.3792
11245SOL    HW136689   2.011   0.202   6.041 -1.4463 -0.4140  0.8206
11245SOL    HW236690   1.929   0.296   5.956 -1.0781  0.1494  1.0788
11246SOL     OW36691   6.491   7.104   0.615 -0.1435  0.5220  0.2473
11246SOL    HW136692   6.569   7.104   0.671 -1.2977  0.3251  1.9342
11246SOL    HW236693   6.436   7.034   0.650 -0.1584 -0.8902 -2.3383
11247SOL     OW36694   5.522   3.441   7.211  0.0625 -0.7317  0.0840
11247SOL    HW136695   5.501   3.531   7.235 -2.0264 -0.7242 -1.4733
11247SOL    HW236696   5.617   3.436   7.217  0.1038  0.9931  2.0352
11248SOL     OW36697   6.836   6.924   0.260  0.5898 -0.1043  0.1081
11248SOL    HW136698   6.786   6.973   0.326 -1.1524  1.7922 -2.4165
11248SOL    HW236699   6.772   6.904   0.192  1.9905 -3.2583 -0.4454
11249SOL     OW36700   6.231   7.743   5.404  0.3224  0.3258 -0.1633
11249SOL    HW136701   6.308   7.731   5.460  1.2827 -0.5955 -1.6025
11249SOL    HW236702   6.232   7.835   5.381 -0.8176  1.0271  2.2721
11250SOL     OW36703   1.756   1.018   1.210  0.4751 -0.6985 -0.4810
11250SOL    HW136704   1.686   0.976   1.160  1.0233 -1.2662 -0.7711
11250SOL    HW236705   1.836   0.993   1.166  0.9146 -0.5514  0.2134
11251SOL     OW36706   6.682   4.097   1.865 -0.8289 -0.2183 -0.0158
11251SOL    HW136707   6.680   4.053   1.780  2.7305  0.4235 -0.5957
11251SOL    HW236708   6.666   4.027   1.929  0.7050 -1.6277 -1.0796
11252SOL     OW36709   3.590   4.873   2.535  0.0308  0.6628  0.0145
11252SOL    HW136710   3.648   4.830   2.598 -1.6919 -0.6622  0.7818
11252SOL    HW236711   3.640   4.875   2.454  1.0477 -0.7233  0.5629
11253SOL     OW36712   5.061   3.462   4.820 -0.0194  0.5495  0.8079
11253SOL    HW136713   5.089   3.553   4.832  2.3269 -0.3595  3.5292
11253SOL    HW236714   5.119   3.428   4.751 -1.4638  1.2680 -0.8091
11254SOL     OW36715   7.616   3.576   3.898  0.1941  0.5594 -0.8928
11254SOL    HW136716   7.560   3.650   3.921  0.0052  0.4110 -0.8745
11254SOL    HW236717   7.556   3.512   3.859  0.4172  0.5659 -1.2489
11255SOL     OW36718   4.199   6.164   2.140 -0.4199 -0.3793 -0.2176
11255SOL    HW136719   4.278   6.126   2.103  0.4433  0.8320  0.2931
11255SOL    HW236720   4.231   6.219   2.212 -1.7001  0.4254 -0.2375
11256SOL     OW36721   0.923   0.242   7.241  0.1999 -0.7632  0.3250
11256SOL    HW136722   0.850   0.298   7.270 -0.6006 -0.4060 -2.1545
11256SOL    HW236723   0.901   0.155   7.274  0.1242 -0.1639  1.9791
11257SOL     OW36724   3.740   6.889   4.423  1.0788 -0.3150  0.2041
11257SOL    HW136725   3.781   6.945   4.489  1.0053 -1.2464  1.0523
11257SOL    HW236726   3.736   6.944   4.344  2.1517  0.4480  0.6639
11258SOL     OW36727   6.708   1.624   4.226  0.2375  0.1223  0.0706
11258SOL    HW136728   6.711   1.687   4.299 -3.2810 -1.4604  1.8153
11258SOL    HW236729   6.766   1.553   4.254  0.4473  0.4050  0.3697
11259SOL     OW36730   4.995   3.358   6.742 -0.1693 -0.5564 -0.0579
11259SOL    HW136731   5.028   3.448   6.748  0.0399 -0.5314 -1.3335
11259SOL    HW236732   5.073   3.304   6.739 -0.2584 -1.0095  2.8426
11260SOL     OW36733   0.728   0.928   3.928 -0.0914 -0.6747 -0.0740
11260SOL    HW136734   0.792   0.919   3.999 -0.0927  0.5413  0.1039
11260SOL    HW236735   0.781   0.931   3.848  0.1981  1.4910  0.1556
11261SOL     OW36736   5.387   8.111   5.477  0.2662 -0.6993  0.1974
11261SOL    HW136737   5.419   8.189   5.432 -0.0978 -1.3116 -1.1766
11261SOL    HW236738   5.337   8.145   5.551  0.9416  0.3421  0.1972
11262SOL     OW36739   1.583   4.326   6.907 -0.0141 -0.7630  0.6112
11262SOL    HW136740   1.607   4.361   6.822 -1.0269 -0.8523  0.2812
11262SOL    HW236741   1.667   4.311   6.951  0.5286 -1.0437 -0.4920
11263SOL     OW36742   5.620   0.230   7.389  0.5733 -0.3686 -0.0101
11263SOL    HW136743   5.715   0.245   7.387  0.4233  0.5867 -1.7799
11263SOL    HW236744   5.583   0.317   7.400 -0.1247 -0.8118  1.4121
11264SOL     OW36745   1.201   5.960   3.344  0.1822  0.5316 -0.7332
11264SOL    HW136746   1.164   5.939   3.429  1.4175 -0.5531 -0.4199
11264SOL    HW236747   1.204   6.056   3.341 -0.3331  0.5837  0.2320
11265SOL     OW36748   0.097   0.950   2.074 -0.0980 -0.5897  0.1521
11265SOL    HW136749   0.172   0.972   2.019 -0.2868 -2.5586 -0.9694
11265SOL    HW236750   0.024   0.942   2.013 -1.0045  0.2167  1.0989
11266SOL     OW36751   0.079   4.158   5.563 -0.1112  0.0472  0.1477
11266SOL    HW136752   0.058   4.066   5.575 -1.3280  0.3520  0.5037
11266SOL    HW236753   0.174   4.163   5.575 -0.1958 -0.9548  1.4685
11267SOL     OW36754   6.352   4.892   8.034 -0.0760 -0.0668 -0.3196
11267SOL    HW136755   6.440   4.894   7.997 -0.3041 -0.5847 -0.9164
11267SOL    HW236756   6.299   4.940   7.970 -0.0578  1.1220  0.5325
11268SOL     OW36757   3.518   3.367   7.192 -0.0795  0.6711  0.2331
11268SOL    HW136758   3.607   3.350   7.162  0.1836  1.7800  0.3447
11268SOL    HW236759   3.502   3.300   7.259  0.7049  0.5387  0.2948
11269SOL     OW36760   3.107   8.047   0.345  0.3900  0.9452 -0.2927
11269SOL    HW136761   3.136   7.969   0.392  0.7358  1.0602 -0.3136
11269SOL    HW236762   3.132   8.031   0.254 -0.7302  0.5007 -0.5319
11270SOL     OW36763   3.183   2.408   5.995  0.3343 -0.0939  0.1401
11270SOL    HW136764   3.117   2.461   6.041  0.3908 -0.5017  0.6918
11270SOL    HW236765   3.132   2.344   5.946  0.2911  0.0889 -0.0566
11271SOL     OW36766   6.847   0.523   2.963 -0.1883 -0.4270 -0.1013
11271SOL    HW136767   6.766   0.558   3.000  0.5098  1.5073 -0.3015
11271SOL    HW236768   6.884   0.468   3.031 -1.4505 -0.9978  0.1440
11272SOL     OW36769   1.293   2.506   5.788  0.1012  0.3378 -0.0739
11272SOL    HW136770   1.249   2.486   5.871  0.0843 -0.8790 -0.3645
11272SOL    HW236771   1.321   2.421   5.754  3.1999  1.0492  0.3801
11273SOL     OW36772   4.821   2.293   4.865 -0.3501  0.5255 -0.4671
11273SOL    HW136773   4.807   2.385   4.888 -1.1049  0.3014 -0.0021
11273SOL    HW236774   4.859   2.296   4.777 -1.3326  1.2460 -0.8808
11274SOL     OW36775   1.063   5.758   5.383 -0.1842 -0.1637 -0.5032
11274SOL    HW136776   1.106   5.844   5.380 -1.4044  0.4900  0.0910
11274SOL    HW236777   1.119   5.706   5.441  0.9899 -0.0266 -1.4851
11275SOL     OW36778   6.582   7.984   5.482  0.2110  0.3229  0.2123
11275SOL    HW136779   6.495   7.988   5.444  1.7167 -0.9436 -3.8930
11275SOL    HW236780   6.615   8.074   5.479 -0.1104  0.4178 -0.4915
11276SOL     OW36781   2.053   5.606   2.194  0.1828 -0.2342 -0.3329
11276SOL    HW136782   2.107   5.685   2.193  0.8044 -0.6077  1.2415
11276SOL    HW236783   2.025   5.595   2.103 -0.8971  2.4506 -0.4201
11277SOL     OW36784   4.928   0.800   3.331  0.2231  0.1967  0.0473
11277SOL    HW136785   4.962   0.711   3.340  1.1093  0.5783  0.6242
11277SOL    HW236786   4.908   0.828   3.420  1.1707  1.0241  0.0190
11278SOL     OW36787   4.265   1.029   0.720 -0.5298 -0.4476 -0.3379
11278SOL    HW136788   4.328   1.082   0.671 -0.8458  1.5815  1.3348
11278SOL    HW236789   4.318   0.962   0.762  0.2487  0.0953 -0.4307
11279SOL     OW36790   4.268   4.979   3.791  0.0230 -0.1243  0.1397
11279SOL    HW136791   4.199   4.914   3.806 -0.1152  0.6531  4.2538
11279SOL    HW236792   4.349   4.928   3.787 -0.4178 -0.7864 -0.5048
11280SOL     OW36793   0.754   7.144   2.736  0.2103  0.2587 -0.2378
11280SOL    HW136794   0.752   7.216   2.800  0.2916  1.2965 -1.3685
11280SOL    HW236795   0.797   7.181   2.660 -0.8486 -0.6202 -1.3028
11281SOL     OW36796   7.634   4.015   4.817  0.3091 -0.4834  0.0138
11281SOL    HW136797   7.592   4.021   4.902  1.7943  0.1057  0.7428
11281SOL    HW236798   7.615   4.099   4.775  0.1334 -0.5187  0.0212
11282SOL     OW36799   0.506   4.040   4.378  0.2983 -0.4558 -0.2811
11282SOL    HW136800   0.586   4.023   4.329  0.5470 -2.8841  0.8098
11282SOL    HW236801   0.535   4.090   4.454  1.0349 -2.2485  0.6756
11283SOL     OW36802   7.521   4.887   6.164  0.2334 -0.1863  0.2442
11283SOL    HW136803   7.515   4.801   6.206  0.8912 -0.0554  0.6197
11283SOL    HW236804   7.614   4.909   6.168  0.1427  0.3052 -0.3342
11284SOL     OW36805   0.059   1.373   5.504  0.1698  0.1114  0.4028
11284SOL    HW136806   0.018   1.292   5.534  2.8971 -1.4486  0.2765
11284SOL    HW236807   0.000   1.406   5.437 -1.1750 -1.6103  0.6543
11285SOL     OW36808   6.897   0.039   0.822  0.4859  0.3615 -0.6329
11285SOL    HW136809   6.966  -0.006   0.870 -1.1157  0.3163  1.8055
11285SOL    HW236810   6.820  -0.017   0.832 -0.4023  1.3595 -1.5697
11286SOL     OW36811   3.253   5.955   2.513  0.7107 -0.2400 -0.0344
11286SOL    HW136812   3.176   5.943   2.458  0.3104 -0.5575  0.5729
11286SOL    HW236813   3.322   5.985   2.454 -0.2636  1.4645 -0.3346
11287SOL     OW36814   7.489   5.973   2.833  0.0129  0.6861  0.4968
11287SOL    HW136815   7.534   5.897   2.869  2.3480  1.2654 -0.9806
11287SOL    HW236816   7.410   5.982   2.887  0.9221 -1.2621  2.3027
11288SOL     OW36817   7.090   4.983   4.292 -0.2991 -0.1385 -0.3922
11288SOL    HW136818   7.171   4.965   4.244 -0.4640  1.5468 -1.3956
11288SOL    HW236819   7.114   5.052   4.354 -0.5562 -0.9324  0.6118
11289SOL     OW36820   0.420   7.936   7.035  0.0084 -0.2175 -0.0767
11289SOL    HW136821   0.404   7.959   6.944 -2.2252  0.0223  0.3047
11289SOL    HW236822   0.369   7.856   7.050 -1.2923  0.8061  1.3966
11290SOL     OW36823   4.610   1.617   6.806 -0.3960  0.2855  0.0331
11290SOL    HW136824   4.635   1.691   6.862  1.8312  1.1804 -2.0219
11290SOL    HW236825   4.689   1.563   6.799 -0.7643 -0.0834 -1.7948
11291SOL     OW36826   0.837   5.443   2.610  0.0106  0.2294  0.2101
11291SOL    HW136827   0.922   5.479   2.635  0.9060 -2.4736  1.4700
11291SOL    HW236828   0.777   5.518   2.614  2.3359  2.3574 -1.2675
11292SOL     OW36829   1.261   1.079   2.018  0.0216  0.1974  0.0924
11292SOL    HW136830   1.299   1.093   1.931  2.4519 -0.4971  0.9544
11292SOL    HW236831   1.293   0.992   2.044  0.0845  0.7530  2.0069
11293SOL     OW36832   3.391   3.238   0.985  0.2712  0.6631 -0.0683
11293SOL    HW136833   3.397   3.309   0.921 -1.0160  0.7270 -0.1507
11293SOL    HW236834   3.477   3.234   1.025  0.6133  1.7059 -0.6664
11294SOL     OW36835   1.766   0.179   0.366 -0.0322  0.3399 -0.1597
11294SOL    HW136836   1.757   0.084   0.360 -0.8363  0.4175 -0.4055
11294SOL    HW236837   1.681   0.208   0.400  0.1423  0.9821 -0.2709
11295SOL     OW36838   2.898   4.268   4.796  0.3884  0.8242 -0.0301
11295SOL    HW136839   2.851   4.225   4.725  2.4785 -0.5036 -0.7046
11295SOL    HW236840   2.874   4.218   4.874  1.5182 -0.6153 -0.5567
11296SOL     OW36841   7.306   5.949   3.052 -0.3235 -0.7743  0.1338
11296SOL    HW136842   7.279   5.877   3.108  0.8628 -2.2438 -1.0886
11296SOL    HW236843   7.224   5.995   3.030 -0.9319 -0.9058  2.0031
11297SOL     OW36844   3.268   6.234   0.843  0.1543 -0.1926  0.5296
11297SOL    HW136845   3.346   6.277   0.809  0.8171  0.5992  2.8686
11297SOL    HW236846   3.197   6.296   0.828 -0.0161 -0.7532 -1.2463
11298SOL     OW36847   2.193   1.603   4.290 -0.4583  0.4352 -0.4978
11298SOL    HW136848   2.127   1.596   4.221 -0.0218  1.3207 -1.0304
11298SOL    HW236849   2.276   1.614   4.242 -0.2270  1.7191  0.1470
11299SOL     OW36850   0.559   3.108   6.648  0.2574 -0.6287 -1.0561
11299SOL    HW136851   0.503   3.030   6.646 -0.5117 -0.0914 -0.8864
11299SOL    HW236852   0.515   3.171   6.591  0.9834 -0.3821 -1.3550
11300SOL     OW36853   8.064   7.847   6.941 -0.4860 -0.6726  0.0632
11300SOL    HW136854   8.134   7.791   6.972  0.8438  0.8613 -0.0280
11300SOL    HW236855   8.034   7.893   7.019  1.0298  1.2127 -0.3899
11301SOL     OW36856   3.653   4.059   4.188 -0.0337  0.1153 -0.4148
11301SOL    HW136857   3.691   4.038   4.102  1.6351  2.1360 -0.2668
11301SOL    HW236858   3.671   4.153   4.199 -0.3762 -0.0494  2.0649
11302SOL     OW36859   7.387   5.817   0.473  0.6986 -0.2297  0.2422
11302SOL    HW136860   7.373   5.821   0.568 -0.0544  0.3970  0.1155
11302SOL    HW236861   7.371   5.907   0.443  0.8359 -0.4457 -0.4896
11303SOL     OW36862   2.466   0.344   7.519 -0.4578  0.8080  0.2309
11303SOL    HW136863   2.526   0.402   7.566 -0.6101 -1.3252  3.3650
11303SOL    HW236864   2.381   0.387   7.525 -0.2365  1.1695  0.8404
11304SOL     OW36865   2.294   7.025   3.865  0.2055 -0.2928  0.1817
11304SOL    HW136866   2.351   6.965   3.912  2.0705  1.3017  0.0945
11304SOL    HW236867   2.295   7.105   3.917 -1.8184 -0.1228  0.0483
11305SOL     OW36868   5.886   7.892   1.372 -0.3241 -0.1630 -0.2006
11305SOL    HW136869   5.878   7.973   1.423 -0.8431  0.3135 -1.0143
11305SOL    HW236870   5.830   7.906   1.296 -0.3300 -1.2514 -0.4118
11306SOL     OW36871   3.793   7.466   6.175  0.6145  0.2312 -0.1722
11306SOL    HW136872   3.741   7.387   6.182  0.7457  0.0429 -1.1183
11306SOL    HW236873   3.731   7.538   6.186  0.5249  0.0099  0.8742
11307SOL     OW36874   0.298   1.253   6.639 -0.3837  0.4755 -0.1386
11307SOL    HW136875   0.224   1.312   6.654  0.6213  1.4730  1.1752
11307SOL    HW236876   0.337   1.283   6.557  0.2959  1.8800  0.6641
11308SOL     OW36877   7.863   4.023   6.436  0.3733 -0.0598  0.4449
11308SOL    HW136878   7.906   4.033   6.351  1.4553  2.9991  1.2153
11308SOL    HW236879   7.791   3.962   6.419  1.8946 -1.3240 -2.0931
11309SOL     OW36880   2.450   6.113   5.984 -0.4099 -0.1400 -0.4979
11309SOL    HW136881   2.512   6.106   5.911 -0.6326 -1.1806 -0.5899
11309SOL    HW236882   2.382   6.172   5.952 -0.8977 -1.1770 -1.4257
11310SOL     OW36883   5.594   1.644   2.958  0.9112 -0.1748  0.2340
11310SOL    HW136884   5.583   1.733   2.989 -0.5307 -0.7818  1.5993
11310SOL    HW236885   5.579   1.650   2.863 -0.2175  0.8814  0.4505
11311SOL     OW36886   3.457   0.446   0.515  0.1448  0.3570 -0.3384
11311SOL    HW136887   3.386   0.382   0.508  1.8297 -1.6019 -0.6364
11311SOL    HW236888   3.482   0.444   0.607  0.5425  0.1899 -0.4477
11312SOL     OW36889   7.757   2.823   5.978  0.2740  0.4604 -0.0743
11312SOL    HW136890   7.805   2.873   5.912  0.7268  1.1607  0.7665
11312SOL    HW236891   7.666   2.827   5.950  0.3248  1.6213 -0.1201
11313SOL     OW36892   0.348   2.282   7.342 -0.4469 -0.0748 -0.3293
11313SOL    HW136893   0.336   2.373   7.315  0.0586  0.6810  1.8256
11313SOL    HW236894   0.282   2.233   7.292 -0.6988  1.4488 -1.5480
11314SOL     OW36895   5.147   2.370   4.005 -0.1403  0.1902  0.2395
11314SOL    HW136896   5.223   2.423   4.028 -0.9902  0.6768  2.1210
11314SOL    HW236897   5.173   2.281   4.025  0.5431  0.1164 -0.8808
11315SOL     OW36898   3.023   7.887   3.931 -0.1804  0.2593  0.2534
11315SOL    HW136899   3.089   7.819   3.917 -1.5235 -0.5083 -3.3894
11315SOL    HW236900   2.947   7.839   3.967 -0.3007  0.2864  0.0356
11316SOL     OW36901   3.553   5.945   4.226 -0.2738  0.1814 -0.2136
11316SOL    HW136902   3.602   5.907   4.299  1.8155  0.5585 -1.3178
11316SOL    HW236903   3.466   5.962   4.261  0.3158 -0.7103  1.8338
11317SOL     OW36904   7.684   6.913   4.510 -0.3641 -0.5313 -0.0222
11317SOL    HW136905   7.620   6.983   4.523 -0.6494 -0.3675 -2.0034
11317SOL    HW236906   7.766   6.949   4.545 -0.8915  0.0606  0.6374
11318SOL     OW36907   6.626   5.134   1.341  0.4457  1.0303  0.3227
11318SOL    HW136908   6.534   5.159   1.351  0.4093  0.7930  0.5928
11318SOL    HW236909   6.623   5.046   1.304  0.5582  0.8703  0.6863
11319SOL     OW36910   7.368   3.951   4.303  0.2147 -0.0559 -0.0513
11319SOL    HW136911   7.410   3.864   4.310 -0.1586 -0.2216  0.1538
11319SOL    HW236912   7.352   3.976   4.394  1.1379  0.6361 -0.0610
11320SOL     OW36913   1.976   1.197   3.651  0.3133 -0.0582  0.0845
11320SOL    HW136914   2.025   1.115   3.647 -1.1818 -1.0821  1.7215
11320SOL    HW236915   1.889   1.175   3.617  0.4963  1.4013 -1.4906
11321SOL     OW36916   5.923   6.932   1.729 -0.2256 -0.0182  0.4811
11321SOL    HW136917   5.881   7.014   1.703 -0.5577 -0.9691 -2.3986
11321SOL    HW236918   6.014   6.956   1.745 -0.3861  0.9748  0.0020
11322SOL     OW36919   2.914   3.695   8.065  0.2965 -0.0407 -0.1379
11322SOL    HW136920   2.892   3.788   8.056 -1.1629 -0.3525 -0.0307
11322SOL    HW236921   2.953   3.672   7.981  1.6313  0.9009  0.1920
11323SOL     OW36922   4.897   7.299   7.588  0.8279 -0.5641  0.4565
11323SOL    HW136923   4.946   7.297   7.670 -0.0869 -3.3754  1.0293
11323SOL    HW236924   4.961   7.272   7.521  0.9016 -0.9638  0.6840
11324SOL     OW36925   0.168   2.181   1.839  0.1442  0.3589  0.6597
11324SOL    HW136926   0.135   2.134   1.762 -1.9504  0.9964  1.0980
11324SOL    HW236927   0.198   2.265   1.806 -1.1289  0.7924  0.5502
11325SOL     OW36928   5.909   5.146   6.439 -0.0660 -0.4218 -0.0056
11325SOL    HW136929   5.860   5.065   6.451  1.0239 -1.0796  0.1508
11325SOL    HW236930   5.856   5.198   6.380 -0.2938 -1.6914 -0.9664
11326SOL     OW36931   3.148   3.371   7.123  0.2485  0.0724  0.3359
11326SOL    HW136932   3.166   3.278   7.139 -1.3900  0.0123  2.3632
11326SOL    HW236933   3.218   3.417   7.169  0.5004 -0.1544  0.1814
11327SOL     OW36934   5.356   0.741   3.847 -0.1851 -0.4756 -0.4687
11327SOL    HW136935   5.442   0.707   3.822 -0.1343 -0.7847  0.1091
11327SOL    HW236936   5.325   0.788   3.770  0.5876 -0.2026 -0.6131
11328SOL     OW36937   3.306   0.378   6.380  0.1926 -0.9667  0.4512
11328SOL    HW136938   3.232   0.434   6.401 -0.1292 -1.6062  1.0739
11328SOL    HW236939   3.333   0.406   6.293  0.7084  0.8521  1.1410
11329SOL     OW36940   0.463   4.413   1.123  0.4336  0.1502  0.0888
11329SOL    HW136941   0.503   4.405   1.036 -0.4127  0.6807 -0.3700
11329SOL    HW236942   0.373   4.441   1.105  0.5528  1.3151  1.1782
11330SOL     OW36943   6.351   2.560   0.484  0.0733  0.1240 -0.0110
11330SOL    HW136944   6.376   2.647   0.515 -1.2771 -0.0062  1.5981
11330SOL    HW236945   6.287   2.577   0.414  0.7279  0.4052 -0.5537
11331SOL     OW36946   2.810   6.727   4.480  0.4790 -0.0418  0.1175
11331SOL    HW136947   2.715   6.738   4.483  0.4562 -0.1342 -0.2561
11331SOL    HW236948   2.829   6.701   4.390  0.9735  1.0156 -0.0968
11332SOL     OW36949   0.738   3.677   2.025  0.0117 -0.0495  0.1043
11332SOL    HW136950   0.662   3.707   2.074  0.6034  1.9682 -0.1358
11332SOL    HW236951   0.780   3.757   1.993  1.9819 -1.1184 -0.1652
11333SOL     OW36952   3.433   3.504   4.059 -0.2830  0.0855  0.0708
11333SOL    HW136953   3.422   3.538   4.148 -0.0864 -0.3741  0.2754
11333SOL    HW236954   3.349   3.462   4.040  0.3910 -1.7430  0.8975
11334SOL     OW36955   3.357   6.789   2.550 -0.5378  0.2700  0.5320
11334SOL    HW136956   3.313   6.868   2.519  0.0632 -0.4139 -2.3120
11334SOL    HW236957   3.295   6.750   2.611 -0.8368  2.8894  2.0746
11335SOL     OW36958   5.592   4.650   6.391  0.0161 -0.2873  0.0152
11335SOL    HW136959   5.586   4.734   6.347  0.9106 -0.3023 -0.1575
11335SOL    HW236960   5.528   4.594   6.347  0.2925 -0.0494 -0.6881
11336SOL     OW36961   0.583   5.453   3.569  0.7541  0.4648  0.1806
11336SOL    HW136962   0.545   5.374   3.531 -1.4055  1.6029 -0.2486
11336SOL    HW236963   0.667   5.426   3.605  2.0054 -1.1544 -3.5205
11337SOL     OW36964   7.479   8.010   3.680 -0.4672  0.6098 -0.2723
11337SOL    HW136965   7.564   8.054   3.684 -0.3468  0.4712 -1.0988
11337SOL    HW236966   7.418   8.070   3.722  0.0604  0.6571  0.4434
11338SOL     OW36967   0.802   8.076   0.429  0.6141  0.3598 -0.2893
11338SOL    HW136968   0.717   8.121   0.429  1.1621  1.4565  1.3273
11338SOL    HW236969   0.782   7.988   0.396 -0.8385  1.1277 -1.5956
11339SOL     OW36970   2.553   4.026   0.267 -0.4021 -0.5241  0.3126
11339SOL    HW136971   2.512   4.057   0.348  0.6819  1.8657  0.0317
11339SOL    HW236972   2.480   4.013   0.207 -0.9872  3.6787 -0.1933
11340SOL     OW36973   1.474   7.200   4.615  0.3801 -0.5587  0.2458
11340SOL    HW136974   1.511   7.256   4.547 -0.0777  1.8748  1.8894
11340SOL    HW236975   1.383   7.186   4.587 -0.4581  2.2310  1.3144
11341SOL     OW36976   3.517   1.343   4.106 -0.1186 -0.1191  0.1067
11341SOL    HW136977   3.501   1.385   4.021  0.2470  0.2202  0.2042
11341SOL    HW236978   3.473   1.401   4.169 -0.7393 -0.5855  0.1132
11342SOL     OW36979   0.718   4.463   1.265  0.4044 -0.1967 -0.4527
11342SOL    HW136980   0.639   4.436   1.218 -0.2026 -0.9260  0.9140
11342SOL    HW236981   0.765   4.382   1.283  1.3092  0.2049 -0.9737
11343SOL     OW36982   3.029   0.121   5.938  0.0827 -0.2519  0.4243
11343SOL    HW136983   2.997   0.118   6.028  1.3889 -1.7133  0.8789
11343SOL    HW236984   2.999   0.038   5.899 -0.1752  0.2133 -0.3963
11344SOL     OW36985   8.034   7.910   2.402 -0.4590  0.2965 -0.3546
11344SOL    HW136986   7.959   7.940   2.351 -0.0780  0.3778 -0.8785
11344SOL    HW236987   8.065   7.832   2.356 -0.5380 -0.0407  0.1565
11345SOL     OW36988   0.198   0.975   6.536 -0.1084  0.2668 -0.6442
11345SOL    HW136989   0.227   1.060   6.569 -0.3386 -0.2289  0.9282
11345SOL    HW236990   0.270   0.915   6.559 -2.1982 -1.0379  3.5232
11346SOL     OW36991   6.395   6.433   3.813  0.0025  0.5899  0.0990
11346SOL    HW136992   6.459   6.470   3.874  0.6697 -1.0546  0.4667
11346SOL    HW236993   6.333   6.503   3.797  0.1589  1.2710  2.1909
11347SOL     OW36994   7.650   1.155   7.882 -1.0155 -0.0170  0.1509
11347SOL    HW136995   7.717   1.221   7.900 -1.7010  0.8820 -0.5362
11347SOL    HW236996   7.700   1.074   7.870 -0.1156  0.4853  0.4044
11348SOL     OW36997   4.541   7.088   2.883 -0.6378 -0.5900  0.3345
11348SOL    HW136998   4.490   7.132   2.815 -0.4215 -2.5457 -1.1956
11348SOL    HW236999   4.607   7.152   2.910 -0.0738 -0.0551 -2.0830
11349SOL     OW37000   4.619   1.998   5.058 -0.1979 -0.4118  0.2269
11349SOL    HW137001   4.539   2.031   5.018 -0.5824 -2.2098 -0.6159
11349SOL    HW237002   4.592   1.966   5.144  0.4998  2.8395  1.7817
11350SOL     OW37003   6.855   6.047   6.068 -0.2747 -0.1595  0.0553
11350SOL    HW137004   6.776   6.062   6.017  0.7585  1.2845 -1.2229
11350SOL    HW237005   6.884   6.135   6.094  1.4316 -0.5290 -0.4157
11351SOL     OW37006   1.258   0.696   4.063  0.7612  0.1681 -0.0223
11351SOL    HW137007   1.249   0.714   4.157  0.4468 -1.1321  0.2084
11351SOL    HW237008   1.183   0.641   4.041  0.0204  1.6026 -1.3719
11352SOL     OW37009   0.744   0.500   6.027  0.0853 -0.2117 -0.1664
11352SOL    HW137010   0.688   0.423   6.018  2.5234 -2.0564 -0.4909
11352SOL    HW237011   0.714   0.542   6.108 -2.3717 -0.5020 -0.8470
11353SOL     OW37012   6.691   7.871   7.014 -0.3903  0.0552  0.9744
11353SOL    HW137013   6.615   7.929   7.006 -1.5085 -1.1905  1.9425
11353SOL    HW237014   6.745   7.892   6.938 -1.2332  1.6381  0.7544
11354SOL     OW37015   2.065   4.841   3.791 -0.4546  0.3458 -0.3716
11354SOL    HW137016   2.034   4.864   3.879  1.6501 -0.8648  0.7575
11354SOL    HW237017   2.107   4.921   3.759  1.6230 -0.0821  1.1042
11355SOL     OW37018   0.763   2.845   6.048 -0.8030 -0.1921  0.4858
11355SOL    HW137019   0.824   2.891   6.106 -0.2095 -2.0003  1.3479
11355SOL    HW237020   0.792   2.754   6.049 -2.7576 -0.8718 -0.0918
11356SOL     OW37021   1.863   3.891   4.295 -0.0043  0.2860 -0.3361
11356SOL    HW137022   1.841   3.983   4.278  2.7415  1.0111 -0.3160
11356SOL    HW237023   1.880   3.888   4.389 -0.8553 -0.4625 -0.1908
11357SOL     OW37024   0.527   3.432   1.030  0.2392 -0.7517 -0.1775
11357SOL    HW137025   0.549   3.343   1.058  0.9765 -0.7503 -0.6941
11357SOL    HW237026   0.561   3.437   0.940  0.7683  0.2423  0.0614
11358SOL     OW37027   4.520   5.331   1.624  0.4857  0.2261 -0.4941
11358SOL    HW137028   4.443   5.276   1.604  1.3277 -0.5894 -1.6310
11358SOL    HW237029   4.516   5.402   1.559  1.4127 -0.5772 -1.4614
11359SOL     OW37030   2.004   5.441   0.089 -0.0587 -0.3677  0.0423
11359SOL    HW137031   2.055   5.414   0.166 -0.3213 -0.4428  0.1882
11359SOL    HW237032   1.924   5.390   0.094 -0.5975  0.4889  0.3727
11360SOL     OW37033   4.215   2.950   4.151  0.2721 -0.0583 -0.0043
11360SOL    HW137034   4.192   2.953   4.244  0.5065 -1.5680  0.1290
11360SOL    HW237035   4.158   2.881   4.115 -1.5320  2.0542 -1.5121
11361SOL     OW37036   2.235   4.518   5.756  0.3911  0.5518 -0.0618
11361SOL    HW137037   2.142   4.513   5.777  0.0533  0.2948 -1.4795
11361SOL    HW237038   2.280   4.513   5.840 -0.8707  0.3714  0.6159
11362SOL     OW37039   7.086   7.259   1.312 -0.0506 -0.3608  0.0546
11362SOL    HW137040   7.077   7.164   1.308  0.8152 -0.4144 -1.8846
11362SOL    HW237041   7.026   7.292   1.245 -0.8204  0.5271  1.1458
11363SOL     OW37042   6.623   1.649   6.863 -0.1315  0.0431 -0.3809
11363SOL    HW137043   6.594   1.575   6.810  0.1042  0.4773 -1.1388
11363SOL    HW237044   6.544   1.701   6.876 -0.0662  0.2740 -0.8760
11364SOL     OW37045   4.439   5.424   4.108  0.0378 -0.1803  0.4943
11364SOL    HW137046   4.377   5.360   4.141 -1.2729  0.7832  0.0045
11364SOL    HW237047   4.480   5.381   4.032  0.0347 -0.8479  0.8632
11365SOL     OW37048   4.050   7.249   5.115  0.4390  0.0669 -0.6258
11365SOL    HW137049   4.132   7.233   5.160  0.5508  1.3956 -0.3495
11365SOL    HW237050   4.008   7.319   5.164 -0.1435  0.4793 -1.6835
11366SOL     OW37051   0.365   1.093   3.092 -0.1590  0.3520  0.2173
11366SOL    HW137052   0.370   1.003   3.122  0.7911 -0.2692 -1.6500
11366SOL    HW237053   0.374   1.088   2.997 -1.3915  2.3255 -0.0606
11367SOL     OW37054   3.309   6.267   4.271 -1.0796  0.2769 -0.6939
11367SOL    HW137055   3.382   6.273   4.332 -1.8173  0.9313  0.1664
11367SOL    HW237056   3.290   6.173   4.265 -0.4726  0.1422 -0.5700
11368SOL     OW37057   2.242   1.173   3.072 -0.1099  0.1092  0.3143
11368SOL    HW137058   2.226   1.144   3.162 -0.6350 -0.8374 -0.0677
11368SOL    HW237059   2.245   1.092   3.022 -0.1125  0.6482 -0.5678
11369SOL     OW37060   0.476   4.009   5.728 -0.3321 -0.2793  0.1868
11369SOL    HW137061   0.467   3.982   5.820  0.5574 -1.5549 -0.0714
11369SOL    HW237062   0.537   4.083   5.731 -1.9019  1.0559  0.7950
11370SOL     OW37063   5.539   1.602   4.461 -0.0443  0.0529  0.4007
11370SOL    HW137064   5.593   1.650   4.398 -0.1264  1.1431  1.1442
11370SOL    HW237065   5.456   1.587   4.414  0.4817 -0.6408 -0.3403
11371SOL     OW37066   3.744   3.591   0.478 -0.1835  0.3437 -0.1901
11371SOL    HW137067   3.731   3.615   0.387  2.4903  0.6573 -0.5490
11371SOL    HW237068   3.801   3.514   0.475 -2.0127 -1.1797  1.1953
11372SOL     OW37069   8.017   2.058   2.411 -0.8691  0.1051 -0.4392
11372SOL    HW137070   8.106   2.056   2.375 -0.7225 -1.2451 -0.0484
11372SOL    HW237071   7.986   1.968   2.405 -2.2295  0.5550 -0.5712
11373SOL     OW37072   1.947   4.186   3.716 -0.3874 -0.2014 -0.2052
11373SOL    HW137073   2.037   4.198   3.745  0.4702 -1.5361 -2.1007
11373SOL    HW237074   1.927   4.265   3.666  0.4293 -0.6723 -1.3230
11374SOL     OW37075   0.436   6.038   6.181  0.0391 -0.2751  0.0480
11374SOL    HW137076   0.499   6.072   6.245  0.8625 -0.8975 -0.4180
11374SOL    HW237077   0.351   6.072   6.211  0.7853  2.1610 -0.3798
11375SOL     OW37078   2.059   7.695   6.579  0.1871  0.2156  0.3561
11375SOL    HW137079   2.138   7.641   6.573  0.7941  1.0359  0.6657
11375SOL    HW237080   2.059   7.727   6.670  0.3341  1.4409 -0.0546
11376SOL     OW37081   2.944   0.194   3.109 -0.8063 -0.0343  0.0753
11376SOL    HW137082   3.018   0.235   3.155 -0.7560 -1.7926  1.6326
11376SOL    HW237083   2.918   0.121   3.165 -4.1657  0.8897 -0.1058
11377SOL     OW37084   6.049   6.046   6.258 -0.6960 -0.1490  0.1749
11377SOL    HW137085   6.059   5.961   6.300 -2.6459 -0.0918  0.8602
11377SOL    HW237086   6.056   6.028   6.164  2.8884 -0.4070  0.3426
11378SOL     OW37087   6.926   5.086   5.019  0.5215 -0.0506 -0.1883
11378SOL    HW137088   6.918   5.007   4.966  2.6445 -0.1843 -0.3887
11378SOL    HW237089   6.940   5.054   5.108 -1.2642  0.1652  0.2146
11379SOL     OW37090   6.863   1.660   5.669 -0.3330 -0.1965 -0.0260
11379SOL    HW137091   6.924   1.693   5.604 -0.1951 -0.6186 -0.1136
11379SOL    HW237092   6.791   1.622   5.617 -0.3349 -0.3235  0.0680
11380SOL     OW37093   4.061   7.571   4.190  0.5615  0.8248  0.2372
11380SOL    HW137094   4.022   7.658   4.180  0.5270  0.6836 -1.1015
11380SOL    HW237095   3.987   7.510   4.180  0.7742  0.6175 -0.0989
11381SOL     OW37096   1.010   1.363   4.056  0.5618  0.3794 -0.0352
11381SOL    HW137097   1.052   1.443   4.024  2.3386  0.3473  2.0249
11381SOL    HW237098   0.916   1.381   4.050  0.9121  2.5148  0.1103
11382SOL     OW37099   7.714   4.330   6.943  0.1304  0.6601 -0.4195
11382SOL    HW137100   7.806   4.347   6.923  0.0681  0.3695 -0.9617
11382SOL    HW237101   7.707   4.344   7.038  0.7871  0.4354 -0.3348
11383SOL     OW37102   6.882   4.836   4.942  0.4755  0.4204 -0.2906
11383SOL    HW137103   6.902   4.762   4.999  1.8464 -0.8068 -2.2566
11383SOL    HW237104   6.810   4.805   4.887  0.9634  0.5615 -1.0276
11384SOL     OW37105   3.264   3.196   1.222 -0.2343  0.1895  0.5413
11384SOL    HW137106   3.200   3.125   1.214 -3.1990  2.7831 -0.2358
11384SOL    HW237107   3.317   3.188   1.142 -2.4853  0.5908 -1.0748
11385SOL     OW37108   1.728   3.764   7.664 -0.0953 -0.1506  0.0829
11385SOL    HW137109   1.739   3.678   7.624  3.0150  0.6425 -1.0841
11385SOL    HW237110   1.818   3.794   7.680 -1.1059  2.4583  1.4121
11386SOL     OW37111   1.324   5.061   3.092 -0.4996  0.5199 -0.3716
11386SOL    HW137112   1.413   5.097   3.089 -0.1425 -0.1121  1.4620
11386SOL    HW237113   1.315   5.013   3.010  2.1375 -2.2395  0.7676
11387SOL     OW37114   3.419   2.440   1.005  0.1619  0.4389 -0.3663
11387SOL    HW137115   3.333   2.418   0.969 -1.2201  2.1287  1.6722
11387SOL    HW237116   3.439   2.368   1.066 -0.6635  0.9009  0.4696
11388SOL     OW37117   0.811   6.945   4.835  0.2232 -0.7058 -0.6109
11388SOL    HW137118   0.883   6.895   4.798  0.4964 -0.0663 -0.9513
11388SOL    HW237119   0.748   6.878   4.863  0.6942 -1.2475 -0.8184
11389SOL     OW37120   0.905   0.662   0.181 -0.1803  0.2110 -0.0107
11389SOL    HW137121   0.862   0.678   0.265  0.4182  0.2256  0.2932
11389SOL    HW237122   0.839   0.686   0.116  0.1055  2.3313  0.4231
11390SOL     OW37123   2.473   1.008   5.982 -0.2550  0.3784  0.4306
11390SOL    HW137124   2.549   1.004   6.040  0.2719 -1.3033 -0.3178
11390SOL    HW237125   2.493   1.082   5.923  0.7547  0.0395  0.3237
11391SOL     OW37126   7.649   6.066   7.186  0.0048 -0.1222 -0.1566
11391SOL    HW137127   7.554   6.082   7.189 -0.1186 -0.8434  0.0920
11391SOL    HW237128   7.674   6.056   7.278  0.1304 -0.9623 -0.2739
11392SOL     OW37129   2.006   5.000   5.203  0.3490  0.2320  0.4429
11392SOL    HW137130   1.974   4.973   5.117 -1.0033 -0.3983  1.1113
11392SOL    HW237131   2.020   5.094   5.195 -0.0974  0.2408 -0.3572
11393SOL     OW37132   4.025   3.743   2.518 -0.3067 -0.0304 -0.2622
11393SOL    HW137133   4.106   3.787   2.493  0.8609 -2.6277 -1.4201
11393SOL    HW237134   4.034   3.728   2.612  0.4082  0.0074 -0.3170
11394SOL     OW37135   3.437   1.488   7.243  0.1086  0.2272 -0.5413
11394SOL    HW137136   3.434   1.548   7.169  1.4470 -1.3326 -1.9622
11394SOL    HW237137   3.518   1.510   7.289 -0.0995  0.3845 -0.2413
11395SOL     OW37138   4.799   7.436   1.108  0.0659  0.1517 -0.0356
11395SOL    HW137139   4.800   7.374   1.035 -0.3249  0.0811  0.0136
11395SOL    HW237140   4.856   7.507   1.080  1.1554 -0.5971  0.2302
11396SOL     OW37141   6.718   1.076   0.385 -0.6452  0.1989  0.0519
11396SOL    HW137142   6.809   1.100   0.400 -1.1920  0.4130  4.5264
11396SOL    HW237143   6.673   1.160   0.373 -0.5030  0.2453 -0.1481
11397SOL     OW37144   6.996   3.806   7.417  0.3192  0.2981  0.0636
11397SOL    HW137145   6.980   3.759   7.499  1.5801  0.0172  0.1706
11397SOL    HW237146   6.970   3.896   7.434 -0.0072  0.1071  0.5713
11398SOL     OW37147   4.181   5.811   7.641 -0.2626  0.0638 -0.4206
11398SOL    HW137148   4.145   5.753   7.708  0.9408  0.1115  0.2907
11398SOL    HW237149   4.186   5.757   7.562 -1.1406 -0.1648 -0.3299
11399SOL     OW37150   7.477   5.877   6.701  0.0394 -0.4722  0.0925
11399SOL    HW137151   7.533   5.870   6.778  0.5610  1.4442 -0.0558
11399SOL    HW237152   7.429   5.959   6.713  0.3499  0.0191 -1.7506
11400SOL     OW37153   7.914   4.520   1.975 -0.0669 -0.9106 -0.1536
11400SOL    HW137154   7.867   4.577   1.914  0.7250  0.2194  0.2521
11400SOL    HW237155   7.847   4.489   2.036 -0.3472  0.6023  0.3624
11401SOL     OW37156   2.800   4.775   7.883  0.6471 -0.5532  0.2458
11401SOL    HW137157   2.771   4.861   7.854  3.9030  0.2685 -0.9617
11401SOL    HW237158   2.836   4.790   7.971  1.0597 -0.7078  0.1061
11402SOL     OW37159   3.684   6.008   8.009 -0.1790  0.0668  0.5930
11402SOL    HW137160   3.745   5.962   8.066  1.8193  1.4495 -0.3273
11402SOL    HW237161   3.652   6.081   8.063 -1.1024 -0.6748  1.0840
11403SOL     OW37162   1.926   3.049   6.798 -0.0285  0.3120 -0.8763
11403SOL    HW137163   1.873   3.102   6.857 -0.5689  0.7303 -1.7012
11403SOL    HW237164   2.016   3.076   6.815 -0.1713  0.3337 -0.1611
11404SOL     OW37165   7.581   7.983   6.806  0.3285 -0.3544 -0.2354
11404SOL    HW137166   7.550   8.063   6.847  1.2540 -0.8881  1.5929
11404SOL    HW237167   7.640   7.944   6.870  0.3482 -2.2089 -1.3070
11405SOL     OW37168   3.889   1.572   6.544 -0.0129  0.7966 -0.8468
11405SOL    HW137169   3.985   1.564   6.545  0.0383  1.2846  1.2644
11405SOL    HW237170   3.867   1.574   6.450  1.5699 -4.3258 -1.6701
11406SOL     OW37171   3.678   4.596   6.385  0.0600 -0.2217  0.6217
11406SOL    HW137172   3.677   4.649   6.465 -4.3472  0.7519  0.1782
11406SOL    HW237173   3.641   4.653   6.318  1.3207 -1.8377 -1.5941
11407SOL     OW37174   5.719   6.550   1.986 -0.0923  0.0559 -0.2103
11407SOL    HW137175   5.749   6.467   2.023  0.5544  1.3257  2.3304
11407SOL    HW237176   5.630   6.532   1.954 -0.1122 -1.4993  0.6427
11408SOL     OW37177   3.964   3.501   2.221  0.1239 -0.5361 -0.7259
11408SOL    HW137178   4.017   3.498   2.141  0.7301  0.6672 -0.3914
11408SOL    HW237179   3.982   3.418   2.265  3.5682  0.6812  0.4957
11409SOL     OW37180   2.691   0.132   0.814 -0.1079 -0.2673 -0.1985
11409SOL    HW137181   2.649   0.202   0.764  2.1883  0.3743 -1.3828
11409SOL    HW237182   2.652   0.139   0.902 -1.3105  1.2421 -0.7985
11410SOL     OW37183   4.542   2.320   5.320 -0.4105  0.2991 -0.1092
11410SOL    HW137184   4.526   2.226   5.332 -1.8531  0.7078  1.4561
11410SOL    HW237185   4.592   2.346   5.397 -0.3421  0.8940 -0.3501
11411SOL     OW37186   7.752   4.727   0.227  0.2973 -0.5389  0.2215
11411SOL    HW137187   7.763   4.821   0.241  0.0413 -0.2552 -1.3076
11411SOL    HW237188   7.787   4.711   0.140  0.9441 -1.9980  0.7087
11412SOL     OW37189   5.773   2.928   4.832 -0.2732 -0.3040  0.0203
11412SOL    HW137190   5.757   2.879   4.913  0.1432  1.7196  1.4168
11412SOL    HW237191   5.852   2.980   4.851 -0.7501  0.9628 -1.3039
11413SOL     OW37192   2.173   6.273   4.957  0.4698 -0.3102  0.1841
11413SOL    HW137193   2.094   6.269   4.904 -0.1072  1.6083  0.8320
11413SOL    HW237194   2.245   6.259   4.895 -0.3056 -1.1311 -0.5623
11414SOL     OW37195   2.850   6.739   4.095 -0.0087  0.0731 -0.0073
11414SOL    HW137196   2.931   6.786   4.114  0.6261 -0.4409 -1.3203
11414SOL    HW237197   2.859   6.656   4.143 -0.1196  0.3337  0.4745
11415SOL     OW37198   4.641   2.733   0.378  0.0901  0.5600  0.2748
11415SOL    HW137199   4.646   2.825   0.404  3.2561  0.3616  0.8073
11415SOL    HW237200   4.680   2.686   0.452  0.2587 -0.9986 -0.7561
11416SOL     OW37201   3.969   6.351   7.559  0.5450  0.2344 -0.3900
11416SOL    HW137202   4.025   6.366   7.482 -0.6248 -0.1403 -1.3400
11416SOL    HW237203   3.946   6.259   7.555  0.7948  0.1118  0.6579
11417SOL     OW37204   3.744   7.341   5.619  0.2365  0.2301  0.0231
11417SOL    HW137205   3.677   7.409   5.610 -0.0406 -0.0865 -0.3608
11417SOL    HW237206   3.735   7.288   5.539  1.1207  0.3379 -0.1603
11418SOL     OW37207   1.758   3.534   7.540 -0.1945 -0.5285  0.8803
11418SOL    HW137208   1.704   3.567   7.468  1.5395  0.8869  0.1602
11418SOL    HW237209   1.744   3.439   7.539  0.9276 -0.7753 -2.3494
11419SOL     OW37210   5.863   5.415   3.400 -0.1889  0.1131  0.4816
11419SOL    HW137211   5.850   5.361   3.321 -1.2764  0.0174  0.7202
11419SOL    HW237212   5.926   5.366   3.452  0.2923  0.0158 -0.1741
11420SOL     OW37213   7.588   2.637   5.329  0.9163 -0.2945  0.0901
11420SOL    HW137214   7.550   2.591   5.254 -0.5462  0.6690  0.2003
11420SOL    HW237215   7.568   2.729   5.314 -1.7688 -0.2733  2.8635
11421SOL     OW37216   3.581   7.913   5.065  0.0199 -0.4871 -0.0043
11421SOL    HW137217   3.502   7.951   5.027  0.0075  2.3066  2.5070
11421SOL    HW237218   3.552   7.872   5.147  1.1129  0.4540  0.8858
11422SOL     OW37219   4.677   4.323   4.988 -0.3846 -0.2638 -0.1728
11422SOL    HW137220   4.747   4.318   4.923 -0.0139 -1.0423  0.2815
11422SOL    HW237221   4.658   4.417   4.994  2.4202  0.3364  1.5642
11423SOL     OW37222   5.354   5.915   0.863 -0.3145 -0.2288 -0.1249
11423SOL    HW137223   5.379   5.991   0.916  1.8583  0.1523 -1.5634
11423SOL    HW237224   5.301   5.861   0.922 -1.6005  2.1799  1.0617
11424SOL     OW37225   3.403   5.225   3.952 -0.7521  0.1981 -0.5056
11424SOL    HW137226   3.322   5.202   3.906  0.7554 -2.4038 -2.0674
11424SOL    HW237227   3.434   5.142   3.990  0.4766  1.4048  1.2959
11425SOL     OW37228   0.998   6.941   1.546 -0.5073  0.3746 -0.2222
11425SOL    HW137229   1.084   6.966   1.512  0.1126  2.5286  2.5320
11425SOL    HW237230   0.938   7.007   1.510 -0.3789  0.8311  0.3692
11426SOL     OW37231   3.598   6.289   0.105 -0.5489 -0.8692  0.0158
11426SOL    HW137232   3.670   6.352   0.103 -0.3446 -1.1124 -1.1002
11426SOL    HW237233   3.585   6.270   0.198  0.6911 -0.6777  0.2458
11427SOL     OW37234   8.031   0.780   5.693 -0.1333 -0.2033 -0.1907
11427SOL    HW137235   7.972   0.811   5.762 -1.3641 -0.8350 -0.9236
11427SOL    HW237236   8.078   0.706   5.732 -1.1193 -0.8179 -0.1277
11428SOL     OW37237   6.601   3.477   4.706 -0.2874  0.1288  0.1263
11428SOL    HW137238   6.515   3.483   4.665  0.2028  1.7392 -0.7273
11428SOL    HW237239   6.654   3.544   4.663  0.7172  0.8394  2.3190
11429SOL     OW37240   1.114   1.506   1.139 -0.3797  0.3977  0.6093
11429SOL    HW137241   1.119   1.578   1.203  0.3463 -0.0669  1.0947
11429SOL    HW237242   1.166   1.537   1.065 -2.7441  1.7252 -0.5967
11430SOL     OW37243   4.288   7.741   2.542 -0.5590 -0.1683  0.3295
11430SOL    HW137244   4.378   7.773   2.545 -0.6998  0.1392  1.9659
11430SOL    HW237245   4.260   7.758   2.452  0.2636  1.8798  0.4033
11431SOL     OW37246   5.264   7.101   8.026 -0.7062 -0.3763 -0.0545
11431SOL    HW137247   5.274   7.089   8.121 -0.9434 -2.0633 -0.2204
11431SOL    HW237248   5.241   7.194   8.016  1.1457  0.3205  1.3752
11432SOL     OW37249   1.881   6.274   4.728 -0.5086  0.2456  0.2919
11432SOL    HW137250   1.809   6.329   4.757 -0.1439 -0.5783  3.0087
11432SOL    HW237251   1.943   6.335   4.688 -3.2525  0.8062 -3.7146
11433SOL     OW37252   2.828   4.807   3.747 -0.5437  0.3702 -0.0357
11433SOL    HW137253   2.913   4.833   3.710  1.0175 -2.2981  1.4082
11433SOL    HW237254   2.800   4.884   3.796  0.7795  1.4937 -0.9375
11434SOL     OW37255   0.049   6.537   1.556 -0.4886 -0.0177 -0.5601
11434SOL    HW137256  -0.011   6.473   1.517 -0.5917  0.4060 -1.1177
11434SOL    HW237257   0.116   6.550   1.488  1.1478 -1.6645  0.6362
11435SOL     OW37258   1.390   3.410   6.561 -0.4995 -0.1654  0.0325
11435SOL    HW137259   1.384   3.318   6.536 -0.3865 -0.2403  0.2753
11435SOL    HW237260   1.462   3.444   6.508  1.1270 -0.8269  1.7055
11436SOL     OW37261   3.996   5.649   5.270 -0.0174  0.4014  0.0582
11436SOL    HW137262   4.087   5.625   5.282 -0.5776 -2.4706 -0.6926
11436SOL    HW237263   3.998   5.740   5.239  2.6346 -0.0091 -1.1764
11437SOL     OW37264   3.691   6.552   4.404  0.0409  0.1101 -0.7026
11437SOL    HW137265   3.691   6.646   4.383 -0.5998  0.3248  0.1765
11437SOL    HW237266   3.608   6.539   4.451 -0.2730 -1.0751 -1.5590
11438SOL     OW37267   2.837   8.124   2.711 -0.4852  0.4215 -0.0131
11438SOL    HW137268   2.783   8.092   2.640 -1.0016 -0.3122  0.6972
11438SOL    HW237269   2.876   8.205   2.677 -2.6226  1.4079 -0.2762
11439SOL     OW37270   5.427   4.196   6.935 -0.2856 -0.1475 -0.0044
11439SOL    HW137271   5.423   4.126   7.001  3.0003  0.2427  0.7762
11439SOL    HW237272   5.508   4.179   6.887 -1.7726  0.5114 -3.0068
11440SOL     OW37273   7.332   7.127   3.065 -0.4425  0.0600 -0.3029
11440SOL    HW137274   7.249   7.162   3.098 -0.1586 -0.2352  0.7521
11440SOL    HW237275   7.398   7.164   3.123  0.0410 -0.7173 -0.3486
11441SOL     OW37276   0.741   1.347   0.109  0.0035 -0.3605  0.0190
11441SOL    HW137277   0.658   1.350   0.156 -0.5451 -0.4283 -0.9380
11441SOL    HW237278   0.806   1.372   0.175 -1.0206  2.1139  0.2066
11442SOL     OW37279   1.902   3.269   0.569  0.0637 -0.1629  0.7123
11442SOL    HW137280   1.875   3.321   0.645 -0.9235  0.9391 -0.3387
11442SOL    HW237281   1.864   3.315   0.495  2.1510 -0.4328 -0.5964
11443SOL     OW37282   7.134   4.055   5.574 -0.0284  0.2287 -0.2334
11443SOL    HW137283   7.178   4.139   5.582  2.4189 -0.8647 -1.2857
11443SOL    HW237284   7.101   4.038   5.662 -0.5390  2.2288  0.0148
11444SOL     OW37285   6.289   5.030   4.190 -0.2865  0.0116 -0.4237
11444SOL    HW137286   6.281   4.944   4.149 -1.1104 -0.0887 -0.0755
11444SOL    HW237287   6.361   5.021   4.253 -1.7395 -1.0711  1.1610
11445SOL     OW37288   4.781   1.842   7.975  0.2821 -0.3386 -0.0373
11445SOL    HW137289   4.817   1.786   7.907 -1.2231 -1.2333 -0.1391
11445SOL    HW237290   4.725   1.784   8.027 -0.5622  0.8674  0.4491
11446SOL     OW37291   7.643   3.198   0.054 -0.5396 -0.0952 -0.2216
11446SOL    HW137292   7.636   3.144  -0.025  0.0094  0.8544 -0.9278
11446SOL    HW237293   7.555   3.193   0.093 -0.1981 -2.5332  0.4457
11447SOL     OW37294   0.304   0.226   5.890  0.3545 -0.4100 -0.2061
11447SOL    HW137295   0.263   0.143   5.912 -0.2711 -0.0036  0.1755
11447SOL    HW237296   0.398   0.207   5.890  0.2849 -0.8542  1.0207
11448SOL     OW37297   1.246   0.553   4.763  0.3148 -0.0508  0.1084
11448SOL    HW137298   1.184   0.513   4.701  0.6772 -0.4279 -0.0106
11448SOL    HW237299   1.225   0.512   4.847 -2.1491  2.5387  0.8937
11449SOL     OW37300   4.609   0.942   5.212 -0.3463  0.3850 -0.6776
11449SOL    HW137301   4.640   0.942   5.303 -2.3068  0.6008  0.0545
11449SOL    HW237302   4.616   0.851   5.184  0.4934  0.3570 -0.3931
11450SOL     OW37303   4.862   0.865   3.588  0.2022  0.1452 -0.2214
11450SOL    HW137304   4.920   0.826   3.654 -0.2473  1.2480  0.8572
11450SOL    HW237305   4.855   0.957   3.614  0.3874  0.7299 -2.0920
11451SOL     OW37306   2.964   3.943   1.209 -0.3156 -0.4540 -0.3361
11451SOL    HW137307   2.886   3.957   1.264 -0.6300 -0.8199 -0.6839
11451SOL    HW237308   2.999   3.859   1.238 -1.4525 -1.4808 -1.8299
11452SOL     OW37309   4.170   2.196   3.302 -0.3627  0.3250  0.0167
11452SOL    HW137310   4.158   2.274   3.356  2.7699  1.0166 -0.0882
11452SOL    HW237311   4.099   2.200   3.238 -0.8684  2.5469  0.6333
11453SOL     OW37312   5.978   1.017   1.785 -0.2908 -0.2686  0.3316
11453SOL    HW137313   5.994   0.964   1.708 -2.2037 -0.1336 -0.2017
11453SOL    HW237314   5.998   0.959   1.859 -0.9027 -1.2392 -0.2515
11454SOL     OW37315   7.286   3.831   4.848 -0.1888  0.5187 -0.0187
11454SOL    HW137316   7.359   3.779   4.814 -0.6400  0.5662 -1.0950
11454SOL    HW237317   7.319   3.866   4.931  0.4680 -0.6851  0.2647
11455SOL     OW37318   6.751   1.983   6.235 -0.6347  0.4611  0.6102
11455SOL    HW137319   6.690   1.928   6.185  0.4282 -1.5634  1.4183
11455SOL    HW237320   6.709   1.994   6.320 -0.1551 -0.4589  0.9771
11456SOL     OW37321   4.449   2.885   2.378 -0.0246 -0.6404 -0.5839
11456SOL    HW137322   4.432   2.977   2.396 -1.4611 -0.8160 -0.9170
11456SOL    HW237323   4.376   2.838   2.419 -0.0462 -1.5199 -1.5704
11457SOL     OW37324   4.212   5.854   7.163 -0.4950  0.1728  0.2837
11457SOL    HW137325   4.291   5.805   7.140  1.5414  1.6326  3.5767
11457SOL    HW237326   4.148   5.828   7.096  2.5392 -1.4893 -2.2231
11458SOL     OW37327   7.310   3.642   5.950  0.4292 -0.2991  0.2672
11458SOL    HW137328   7.346   3.664   5.864 -2.5069  0.4960 -0.8898
11458SOL    HW237329   7.337   3.552   5.965  1.4797 -0.2694 -1.2055
11459SOL     OW37330   7.238   0.421   2.817 -0.0918 -0.5716  0.0746
11459SOL    HW137331   7.324   0.387   2.840  0.2002  1.5761  2.6411
11459SOL    HW237332   7.254   0.512   2.791 -1.7378  0.8028  3.3157
11460SOL     OW37333   5.239   1.300   3.699  0.4182 -0.7350  0.1010
11460SOL    HW137334   5.302   1.261   3.760  0.8291 -1.0084 -0.4944
11460SOL    HW237335   5.289   1.367   3.653 -0.5718  1.4624  1.9863
11461SOL     OW37336   7.009   5.484   4.774 -0.4087  0.1278 -0.0107
11461SOL    HW137337   6.926   5.480   4.822 -0.4937 -0.8155 -0.2200
11461SOL    HW237338   7.063   5.544   4.825 -0.9968  0.2641  0.4689
11462SOL     OW37339   1.686   1.193   5.507 -0.0434 -0.4288 -0.4230
11462SOL    HW137340   1.661   1.221   5.595  0.8129 -4.0066  1.1280
11462SOL    HW237341   1.613   1.138   5.479  0.0887 -0.0113 -1.6183
11463SOL     OW37342   5.442   6.120   6.388  0.7798  0.3104 -0.2344
11463SOL    HW137343   5.347   6.133   6.378  0.6668 -0.8413 -0.8109
11463SOL    HW237344   5.476   6.208   6.405 -0.7653  0.3687  3.4858
11464SOL     OW37345   6.681   1.757   1.178  0.4296  0.4130  0.3105
11464SOL    HW137346   6.631   1.718   1.106  1.7830  0.2309 -0.5520
11464SOL    HW237347   6.683   1.850   1.158  1.3196  0.2828 -0.2097
11465SOL     OW37348   2.834   4.156   3.687 -0.2654  0.4006  0.5963
11465SOL    HW137349   2.902   4.104   3.643 -0.0118  0.6145  0.7307
11465SOL    HW237350   2.792   4.205   3.616 -2.0838 -1.7021  0.1062
11466SOL     OW37351   7.971   0.881   6.262  0.1117 -0.2459  0.0184
11466SOL    HW137352   7.949   0.942   6.332 -0.8911  0.4634 -0.8746
11466SOL    HW237353   8.065   0.893   6.249 -0.1624  1.6091 -0.5563
11467SOL     OW37354   0.147   1.213   3.308 -0.1439  1.6399 -0.0520
11467SOL    HW137355   0.235   1.190   3.281 -0.4482 -1.9167  1.4145
11467SOL    HW237356   0.099   1.228   3.227  0.5776 -1.8111 -1.2407
11468SOL     OW37357   0.343   4.204   4.660 -0.1409 -0.2420  0.2429
11468SOL    HW137358   0.410   4.140   4.683  1.2458  0.9243 -0.3692
11468SOL    HW237359   0.386   4.289   4.673 -1.0349  0.5159 -1.5027
11469SOL     OW37360   1.917   7.613   5.413  0.2792 -0.1726  0.0215
11469SOL    HW137361   1.933   7.607   5.318 -0.2579  0.7572 -0.1363
11469SOL    HW237362   1.826   7.585   5.423 -1.0912  3.5956 -0.2968
11470SOL     OW37363   1.631   4.943   6.150 -0.1020  0.4806 -0.2351
11470SOL    HW137364   1.590   4.906   6.228 -0.4832  2.1652  0.3981
11470SOL    HW237365   1.713   4.979   6.181  0.8143 -0.7965 -1.0680
11471SOL     OW37366   7.781   7.551   0.061 -0.2306  0.7963  0.1936
11471SOL    HW137367   7.825   7.596   0.132 -0.2113 -0.8979  1.3175
11471SOL    HW237368   7.729   7.619   0.018  1.1788  2.2351  0.6429
11472SOL     OW37369   5.434   2.460   3.684  0.7259 -0.3115  0.0306
11472SOL    HW137370   5.456   2.410   3.605  0.1812 -0.4592 -0.0324
11472SOL    HW237371   5.488   2.539   3.677  0.0477  0.0912 -0.9407
11473SOL     OW37372   6.261   3.502   1.045 -0.0677 -0.2909 -0.1619
11473SOL    HW137373   6.327   3.550   1.094  0.6716 -0.6612 -0.7801
11473SOL    HW237374   6.296   3.495   0.956 -0.6611 -1.0209 -0.3514
11474SOL     OW37375   4.168   3.942   7.882 -0.3910  0.1202 -0.1800
11474SOL    HW137376   4.201   4.006   7.819 -0.6786  0.6749  0.2340
11474SOL    HW237377   4.076   3.964   7.895  0.0189  0.9820  1.5848
11475SOL     OW37378   4.856   5.053   5.986 -0.1921 -0.1889  0.2155
11475SOL    HW137379   4.921   5.085   5.923  0.3283 -2.1637 -0.3294
11475SOL    HW237380   4.879   5.095   6.069  0.4548  0.7704 -0.4303
11476SOL     OW37381   4.786   0.713   3.975  0.2345  0.3173 -0.2998
11476SOL    HW137382   4.835   0.671   3.904  0.7146  1.4539 -0.6776
11476SOL    HW237383   4.833   0.691   4.055  1.1448  1.0469 -0.6158
11477SOL     OW37384   3.978   7.490   4.867  0.2101 -0.5214 -0.7999
11477SOL    HW137385   4.040   7.490   4.940  0.7169 -0.1289 -1.2205
11477SOL    HW237386   3.897   7.525   4.905  0.7038  0.4586 -0.5999
11478SOL     OW37387   3.378   2.039   3.812 -0.1222 -0.6937 -0.3512
11478SOL    HW137388   3.335   2.124   3.817  0.9043 -0.2017  0.4099
11478SOL    HW237389   3.353   1.994   3.893 -0.1040 -0.8490 -0.4304
11479SOL     OW37390   2.611   4.980   7.796  0.1139 -0.3267  0.1382
11479SOL    HW137391   2.560   5.060   7.805  1.1063  0.3209  0.1524
11479SOL    HW237392   2.590   4.930   7.875 -0.2759  0.0501  0.2805
11480SOL     OW37393   4.881   6.788   3.239  0.5653  0.3080  0.7553
11480SOL    HW137394   4.823   6.730   3.189 -0.1989 -0.3660  2.3338
11480SOL    HW237395   4.969   6.752   3.225  0.4563  0.5304 -0.5906
11481SOL     OW37396   2.253   6.372   2.918  0.5516 -0.1257  0.5082
11481SOL    HW137397   2.243   6.303   2.983  0.7706 -0.8855 -0.2385
11481SOL    HW237398   2.339   6.357   2.879  0.1456 -0.1359 -0.4353
11482SOL     OW37399   0.559   4.625   7.940  0.0042  0.2427 -0.5346
11482SOL    HW137400   0.494   4.556   7.926  0.4758 -0.2654 -0.2911
11482SOL    HW237401   0.522   4.702   7.897 -1.1242  0.1924  0.2923
11483SOL     OW37402   3.622   3.241   1.143  0.0467 -0.0061 -0.1776
11483SOL    HW137403   3.661   3.321   1.106 -1.1346  1.1338  0.9322
11483SOL    HW237404   3.671   3.227   1.224  0.1458 -0.3440 -0.2930
11484SOL     OW37405   2.253   7.304   3.929 -0.2254  0.1531 -0.1384
11484SOL    HW137406   2.203   7.260   3.998 -0.5454  1.6867  0.6538
11484SOL    HW237407   2.189   7.360   3.884  0.0418 -0.5861 -1.5021
11485SOL     OW37408   1.724   3.165   6.132 -0.2120 -0.0132 -0.0668
11485SOL    HW137409   1.687   3.179   6.219  1.0779  0.0613  0.4849
11485SOL    HW237410   1.649   3.141   6.078 -1.1542  0.6803  0.8861
11486SOL     OW37411   4.672   1.443   5.043 -0.1296  0.1480 -0.0514
11486SOL    HW137412   4.758   1.412   5.016 -0.0758 -0.0331  0.3255
11486SOL    HW237413   4.690   1.523   5.093 -0.1033 -0.4315  0.8788
11487SOL     OW37414   7.590   4.098   5.654  0.2594 -0.4153  0.0162
11487SOL    HW137415   7.555   4.084   5.742 -0.2975  0.1174 -0.1175
11487SOL    HW237416   7.685   4.094   5.666  0.1761 -1.1768  0.4955
11488SOL     OW37417   1.982   5.412   3.148  0.2447  0.5141  0.0372
11488SOL    HW137418   1.912   5.452   3.199 -0.4708  0.9881 -1.2691
11488SOL    HW237419   2.014   5.341   3.203 -0.9744  0.5562  0.8451
11489SOL     OW37420   1.911   5.023   7.469 -0.3382  0.1707 -0.0120
11489SOL    HW137421   1.848   4.952   7.456 -0.5582  0.2853  0.3966
11489SOL    HW237422   1.909   5.040   7.564 -0.0016  0.4567 -0.0541
11490SOL     OW37423   0.807   2.012   1.394 -0.4029  0.1233  0.1059
11490SOL    HW137424   0.774   2.016   1.484  0.1423  0.5143  0.2923
11490SOL    HW237425   0.745   2.065   1.344  0.1984  1.2736  0.5430
11491SOL     OW37426   6.767   4.210   7.955 -0.3660  0.4564 -0.2044
11491SOL    HW137427   6.841   4.262   7.986  0.4479 -1.1842  0.7915
11491SOL    HW237428   6.779   4.206   7.860  0.1110  1.2400 -0.1859
11492SOL     OW37429   5.642   0.571   4.615 -0.0048  0.8731  0.6840
11492SOL    HW137430   5.667   0.598   4.526 -1.0667 -2.0828 -0.6166
11492SOL    HW237431   5.725   0.553   4.659  0.4793  0.7297 -0.2667
11493SOL     OW37432   1.705   5.027   4.009  0.0509  0.3149 -0.5426
11493SOL    HW137433   1.626   5.072   4.037  0.6811  0.5678  0.9292
11493SOL    HW237434   1.683   4.991   3.923 -1.5827  0.5595 -0.2620
11494SOL     OW37435   4.377   3.704   5.452  0.0864  0.4394  0.1546
11494SOL    HW137436   4.309   3.718   5.385  0.1353  0.3420  0.0844
11494SOL    HW237437   4.459   3.704   5.403  0.0046 -1.4780 -0.0591
11495SOL     OW37438   1.644   6.330   3.953  0.0424  0.0742  0.1802
11495SOL    HW137439   1.565   6.317   3.900  1.6908 -2.3912 -1.9077
11495SOL    HW237440   1.677   6.416   3.925 -0.9354  0.3335 -0.2332
11496SOL     OW37441   3.520   3.838   4.530  0.1270  0.2871 -0.4328
11496SOL    HW137442   3.469   3.859   4.608  0.5073 -2.7432  0.7628
11496SOL    HW237443   3.564   3.921   4.508 -1.5031  1.7338  1.3660
11497SOL     OW37444   4.760   5.512   2.316 -0.2095  0.2866  0.2433
11497SOL    HW137445   4.751   5.546   2.227 -0.2840 -1.5615 -0.4997
11497SOL    HW237446   4.689   5.449   2.325  1.3564 -1.5034  0.6249
11498SOL     OW37447   3.688   8.016   7.514 -0.3482  0.1412 -0.8867
11498SOL    HW137448   3.667   7.929   7.550 -0.3053 -0.6064 -2.5688
11498SOL    HW237449   3.721   7.998   7.426  1.2630  1.7634 -0.6770
11499SOL     OW37450   2.739   0.913   5.340  0.4279 -0.3424  0.2293
11499SOL    HW137451   2.682   0.945   5.270  2.3737  0.3806 -1.1454
11499SOL    HW237452   2.733   0.818   5.335 -0.8593 -0.2810  0.3361
11500SOL     OW37453   0.635   3.773   0.690 -0.3896 -0.3398  0.2257
11500SOL    HW137454   0.616   3.765   0.784  2.1733  1.0958  0.9579
11500SOL    HW237455   0.584   3.849   0.662 -1.0071 -0.6469  0.4959
11501SOL     OW37456   2.369   7.731   7.544  0.1141  0.2230 -0.5136
11501SOL    HW137457   2.448   7.766   7.502  0.0325 -0.2392 -1.0504
11501SOL    HW237458   2.336   7.805   7.596 -1.3767  1.7808 -3.4589
11502SOL     OW37459   6.243   5.888   2.238 -0.4691  0.2497 -0.4919
11502SOL    HW137460   6.246   5.950   2.311 -1.0900  0.8924 -0.9997
11502SOL    HW237461   6.306   5.922   2.175 -0.8070  0.3718 -0.7684
11503SOL     OW37462   7.063   3.094   2.716  0.0919  0.1365 -0.2384
11503SOL    HW137463   6.988   3.060   2.765  0.7335 -1.1546 -0.1212
11503SOL    HW237464   7.130   3.026   2.723  0.6898  0.5110 -1.7678
11504SOL     OW37465   7.587   1.466   4.974 -0.1855 -0.0676 -0.3269
11504SOL    HW137466   7.492   1.472   4.979 -0.1885 -0.6179  0.4384
11504SOL    HW237467   7.616   1.556   4.957 -0.7646  0.3623  0.8437
11505SOL     OW37468   3.436   3.718   6.353 -0.4748 -0.1929 -0.0569
11505SOL    HW137469   3.374   3.657   6.314  0.4228 -1.6560  0.7266
11505SOL    HW237470   3.442   3.691   6.445  2.1233 -0.8009 -0.3572
11506SOL     OW37471   5.573   7.387   2.623  1.0678 -0.2282  0.2665
11506SOL    HW137472   5.593   7.365   2.714  2.3188 -0.2095  0.0037
11506SOL    HW237473   5.490   7.434   2.629  0.5525 -1.1873  1.2794
11507SOL     OW37474   0.092   6.528   4.940 -0.0988 -0.2477 -0.1051
11507SOL    HW137475   0.052   6.555   4.858 -1.4857  0.3114  0.7273
11507SOL    HW237476   0.158   6.595   4.957 -1.0791  0.6781  0.1502
11508SOL     OW37477   1.676   8.133   1.577  0.8366 -0.1644 -0.4474
11508SOL    HW137478   1.756   8.185   1.584 -1.2887  3.3858 -0.1955
11508SOL    HW237479   1.699   8.063   1.517  4.2806  0.2994  0.1077
11509SOL     OW37480   3.160   1.905   0.934 -0.4710 -0.3442 -0.0307
11509SOL    HW137481   3.204   1.825   0.962 -0.3191 -0.3349 -0.2405
11509SOL    HW237482   3.226   1.973   0.945 -0.3115 -0.3903 -0.7119
11510SOL     OW37483   7.336   1.692   0.398 -0.1106 -0.4582  0.1921
11510SOL    HW137484   7.377   1.609   0.375  0.6178 -0.8190  2.5059
11510SOL    HW237485   7.410   1.751   0.416 -0.6065 -0.0325  0.8700
11511SOL     OW37486   3.964   3.431   1.937  0.1636  0.4116  0.5925
11511SOL    HW137487   4.042   3.487   1.944 -0.4455  1.3204  0.3006
11511SOL    HW237488   3.891   3.492   1.939 -0.5815 -0.4832  1.4532
11512SOL     OW37489   1.853   2.549   4.010 -0.4188  0.1806  1.0621
11512SOL    HW137490   1.920   2.588   4.066  1.4753 -0.7917 -0.3993
11512SOL    HW237491   1.875   2.581   3.922 -1.4740 -0.7125  0.4556
11513SOL     OW37492   7.489   2.866   4.915 -0.1446  0.1988 -0.4021
11513SOL    HW137493   7.498   2.772   4.935  1.1599  0.3537 -0.1745
11513SOL    HW237494   7.424   2.897   4.978 -0.9419 -0.6310 -0.7829
11514SOL     OW37495   2.160   2.954   3.521 -0.0364  0.0282 -0.3385
11514SOL    HW137496   2.246   2.914   3.518 -0.6359 -1.2762 -0.7228
11514SOL    HW237497   2.132   2.944   3.612 -0.0253 -0.0755 -0.3465
11515SOL     OW37498   5.512   2.769   6.590 -0.0153  0.2623 -0.3081
11515SOL    HW137499   5.588   2.769   6.648 -0.8167 -0.6682  0.8200
11515SOL    HW237500   5.548   2.778   6.502  1.5406 -1.6955  0.0575
11516SOL     OW37501   5.251   0.422   5.272  0.0232 -0.5774 -0.1488
11516SOL    HW137502   5.179   0.463   5.224  0.7289 -0.1127 -0.8246
11516SOL    HW237503   5.329   0.472   5.247  0.6985 -1.5179  0.0166
11517SOL     OW37504   4.664   3.158   7.439 -0.2762  0.0905  0.0573
11517SOL    HW137505   4.750   3.115   7.438 -1.1475 -1.7353 -0.9009
11517SOL    HW237506   4.678   3.240   7.393  0.8281 -0.4768 -0.6709
11518SOL     OW37507   5.811   7.590   7.767  0.0358  0.3857  0.5444
11518SOL    HW137508   5.737   7.529   7.771  0.0015  0.3819 -0.0987
11518SOL    HW237509   5.883   7.542   7.809 -0.1027  0.0603  0.4141
11519SOL     OW37510   0.680   7.858   0.688  0.2543  0.2400  0.0275
11519SOL    HW137511   0.773   7.845   0.704  0.1230 -0.0178  0.6019
11519SOL    HW237512   0.674   7.878   0.594  0.9783  1.2033  0.1684
11520SOL     OW37513   0.627   2.300   7.347 -0.0597 -0.3302 -0.5475
11520SOL    HW137514   0.630   2.371   7.411 -2.3947  0.4730 -1.2310
11520SOL    HW237515   0.534   2.289   7.328  0.4465 -1.6354 -2.6024
11521SOL     OW37516   3.873   1.182   4.976 -0.1575 -0.2903 -0.2243
11521SOL    HW137517   3.878   1.166   5.071 -2.2575 -0.2733 -0.0617
11521SOL    HW237518   3.929   1.258   4.962 -0.3683  0.1562  1.1354
11522SOL     OW37519   2.901   7.907   3.577 -0.3485  0.3639  0.7499
11522SOL    HW137520   2.870   7.857   3.502  1.8607  0.7739 -0.5061
11522SOL    HW237521   2.821   7.935   3.621 -1.7400  0.2547 -1.5356
11523SOL     OW37522   7.125   4.390   4.981 -0.1903  0.0470 -0.5361
11523SOL    HW137523   7.170   4.326   4.925  0.9462 -1.8615  2.3172
11523SOL    HW237524   7.195   4.433   5.030 -1.2210 -0.6481  1.6706
11524SOL     OW37525   5.554   0.938   5.691  0.0936 -0.1146  0.5071
11524SOL    HW137526   5.602   0.883   5.753 -1.3909 -2.7666 -0.5260
11524SOL    HW237527   5.622   0.989   5.646  1.6876 -1.8580  0.8242
11525SOL     OW37528   1.613   7.382   3.211 -0.2115  0.6699 -0.0630
11525SOL    HW137529   1.708   7.386   3.200 -0.0477  0.7690  1.2746
11525SOL    HW237530   1.578   7.419   3.130  0.8885  0.8124 -0.4905
11526SOL     OW37531   4.043   7.489   1.035 -0.0743 -0.3036 -0.2551
11526SOL    HW137532   3.998   7.574   1.040 -1.5259 -1.0731  0.1738
11526SOL    HW237533   4.093   7.484   1.116  0.3615  0.3203 -0.4776
11527SOL     OW37534   6.329   4.608   3.567 -0.0797  0.3287  0.5473
11527SOL    HW137535   6.255   4.548   3.559 -0.7502  0.9755  1.6782
11527SOL    HW237536   6.355   4.602   3.659 -0.0598  1.6412  0.6419
11528SOL     OW37537   4.087   6.177   1.337  1.1203  0.0577 -0.0942
11528SOL    HW137538   4.067   6.260   1.380 -0.1511 -0.4020  0.2343
11528SOL    HW237539   4.129   6.203   1.255  1.6347  0.9939  0.4391
11529SOL     OW37540   1.024   7.797   1.413  0.7212 -0.1699  0.3487
11529SOL    HW137541   1.018   7.832   1.502 -1.0735  1.1277 -0.2187
11529SOL    HW237542   0.937   7.761   1.396 -0.0469  2.3973 -1.9231
11530SOL     OW37543   6.344   4.245   5.790  0.5943 -0.6131  0.4936
11530SOL    HW137544   6.353   4.280   5.879 -1.4384  0.6462  0.2626
11530SOL    HW237545   6.320   4.321   5.737  2.3101 -1.2359 -1.2847
11531SOL     OW37546   5.136   5.650   6.422  0.1869 -0.3614 -0.1542
11531SOL    HW137547   5.184   5.627   6.343 -0.5416 -3.0440  0.0648
11531SOL    HW237548   5.201   5.688   6.481  1.2418 -0.5690 -1.1663
11532SOL     OW37549   5.443   6.125   4.594  0.4417  0.2714 -0.0826
11532SOL    HW137550   5.384   6.189   4.632 -0.2589 -1.0058  1.0350
11532SOL    HW237551   5.463   6.161   4.507 -2.6415  0.3552 -0.8711
11533SOL     OW37552   5.546   5.881   1.246 -0.0046 -0.1785 -0.3997
11533SOL    HW137553   5.567   5.816   1.313 -0.5354  0.1093  0.0470
11533SOL    HW237554   5.494   5.947   1.291 -0.0281  0.2240 -1.0022
11534SOL     OW37555   1.228   2.870   4.323 -0.0016  0.0876 -0.1035
11534SOL    HW137556   1.241   2.832   4.236  2.1131  1.2687 -0.3939
11534SOL    HW237557   1.238   2.797   4.384  0.5241 -0.4250 -0.7970
11535SOL     OW37558   6.585   6.915   5.770  0.4284 -0.3017  0.1132
11535SOL    HW137559   6.536   6.896   5.849  1.2522 -1.4802  0.3755
11535SOL    HW237560   6.622   7.002   5.784  0.7675 -0.6030  1.1261
11536SOL     OW37561   3.311   4.630   7.674  0.1387 -0.4932 -0.3115
11536SOL    HW137562   3.354   4.715   7.684 -0.3463 -0.2324 -0.4087
11536SOL    HW237563   3.373   4.577   7.625 -0.5111  0.5381 -2.3359
11537SOL     OW37564   2.185   6.860   6.741  0.2663 -0.0318  0.4189
11537SOL    HW137565   2.165   6.788   6.800  0.9053 -0.6182 -0.0665
11537SOL    HW237566   2.205   6.934   6.799  0.8584 -0.5910  0.9464
11538SOL     OW37567   1.297   1.578   0.377 -0.3516 -0.2519 -0.3508
11538SOL    HW137568   1.318   1.668   0.402 -0.0874 -0.4782  0.2493
11538SOL    HW237569   1.382   1.537   0.358 -0.4074 -0.5942  0.1274
11539SOL     OW37570   0.762   7.261   0.327  0.2565  0.1107 -1.1145
11539SOL    HW137571   0.788   7.262   0.235  1.2277  0.1611 -0.8449
11539SOL    HW237572   0.844   7.261   0.376 -0.2143 -1.7612 -0.2480
11540SOL     OW37573   1.119   6.529   0.781  0.2906 -0.0412 -0.2572
11540SOL    HW137574   1.073   6.557   0.701 -0.8793  0.9117  0.7127
11540SOL    HW237575   1.149   6.441   0.761  2.2067  1.0308 -2.6452
11541SOL     OW37576   6.094   2.409   5.862  0.0016 -0.2028 -0.4539
11541SOL    HW137577   6.088   2.373   5.950  0.2204 -1.9780 -1.1322
11541SOL    HW237578   6.071   2.502   5.872 -0.9513 -0.5971  1.2949
11542SOL     OW37579   6.417   1.751   4.024 -0.2310 -0.4179  0.2068
11542SOL    HW137580   6.356   1.789   4.086  1.2186  0.7456  0.9874
11542SOL    HW237581   6.465   1.685   4.074 -0.2929 -0.7680 -0.1831
11543SOL     OW37582   3.271   1.790   5.509  0.4066 -0.8049  0.4781
11543SOL    HW137583   3.224   1.849   5.449 -0.6265 -1.0454  1.0340
11543SOL    HW237584   3.243   1.818   5.596  0.9299 -1.2768  0.8021
11544SOL     OW37585   3.509   6.203   6.269  0.9230  0.2613  0.6454
11544SOL    HW137586   3.452   6.252   6.328  1.0108  0.8850  0.2273
11544SOL    HW237587   3.472   6.218   6.182  1.4123  0.2322  0.4277
11545SOL     OW37588   3.484   6.881   6.914 -0.0471 -0.2109 -0.1576
11545SOL    HW137589   3.434   6.802   6.933 -0.2036  0.0222  0.4323
11545SOL    HW237590   3.435   6.951   6.957  1.3177 -0.1108  1.3280
11546SOL     OW37591   4.260   1.454   2.585 -0.4536 -0.4345  0.5384
11546SOL    HW137592   4.200   1.444   2.511  0.2231 -0.9026  0.0435
11546SOL    HW237593   4.276   1.548   2.591 -1.0428 -0.3291  0.5282
11547SOL     OW37594   3.154   6.120   1.088 -0.0857  0.6447  0.3683
11547SOL    HW137595   3.105   6.045   1.122  1.0769 -0.8123 -1.0007
11547SOL    HW237596   3.094   6.194   1.098 -1.3882 -0.4954  1.4992
11548SOL     OW37597   3.507   1.815   0.771  0.2990  0.5500 -0.2870
11548SOL    HW137598   3.528   1.737   0.822 -0.0625 -0.7843 -2.0921
11548SOL    HW237599   3.503   1.886   0.836  1.1916 -0.8051  1.3182
11549SOL     OW37600   0.483   0.482   0.007  0.8107  0.4771  0.4434
11549SOL    HW137601   0.403   0.528  -0.020  1.2737  0.8234 -0.3907
11549SOL    HW237602   0.481   0.484   0.102 -1.5349 -1.9379  0.5245
11550SOL     OW37603   8.110   3.772   0.032  0.4590 -0.3299 -0.3334
11550SOL    HW137604   8.175   3.701   0.033  2.3524  1.3028 -1.1768
11550SOL    HW237605   8.116   3.811   0.119  0.2364 -0.4672 -0.2539
11551SOL     OW37606   2.130   2.825   0.300  0.1872  1.0101 -0.1346
11551SOL    HW137607   2.056   2.775   0.332 -0.0054  1.3631 -0.0263
11551SOL    HW237608   2.206   2.769   0.317 -0.2740 -0.5182 -2.5988
11552SOL     OW37609   8.020   5.652   4.055 -0.2580 -0.2852 -0.1749
11552SOL    HW137610   8.077   5.587   4.014 -1.9496 -1.9202 -0.0476
11552SOL    HW237611   7.934   5.637   4.016 -0.8261  1.5655  0.2398
11553SOL     OW37612   3.133   1.139   0.559  0.0048 -0.2358  0.3768
11553SOL    HW137613   3.062   1.193   0.594  1.1232  0.3154  1.9224
11553SOL    HW237614   3.097   1.101   0.479 -1.7883  0.5514  0.7546
11554SOL     OW37615   3.207   4.191   4.810  0.0667  0.2535 -0.3818
11554SOL    HW137616   3.265   4.265   4.790 -0.0255  0.4688  0.1462
11554SOL    HW237617   3.119   4.225   4.795  0.0885 -0.5422 -2.8049
11555SOL     OW37618   0.717   5.067   0.173 -0.4808 -0.0405 -0.1063
11555SOL    HW137619   0.760   5.086   0.257 -0.2104 -1.1983  0.0354
11555SOL    HW237620   0.760   4.988   0.142 -0.2980  0.6053 -1.5562
11556SOL     OW37621   5.032   1.795   3.885  0.0961  0.0320 -0.0379
11556SOL    HW137622   5.002   1.886   3.890  1.9555  0.6740  0.1985
11556SOL    HW237623   5.049   1.780   3.792 -0.0079 -0.0159 -0.0500
11557SOL     OW37624   0.721   6.115   6.630  0.1475  0.2564 -0.3535
11557SOL    HW137625   0.773   6.195   6.633 -2.9987  2.4743  0.5790
11557SOL    HW237626   0.672   6.115   6.713 -0.6678 -2.1518 -0.7434
11558SOL     OW37627   2.619   1.018   0.935 -0.2411  0.5524  0.2203
11558SOL    HW137628   2.675   0.990   0.863 -1.2738 -0.3487 -0.2607
11558SOL    HW237629   2.678   1.026   1.010  0.2659 -2.1378  0.1934
11559SOL     OW37630   4.759   0.877   5.455  0.4470  0.0914  0.0334
11559SOL    HW137631   4.834   0.936   5.444  1.5280 -0.6918  2.4822
11559SOL    HW237632   4.718   0.907   5.536 -1.0477 -0.4078 -0.5206
11560SOL     OW37633   3.941   2.764   7.650  0.7407 -0.0339 -0.2134
11560SOL    HW137634   3.950   2.856   7.674  0.7799 -0.0699 -0.0873
11560SOL    HW237635   4.031   2.733   7.641  0.7303  0.2445 -1.4557
11561SOL     OW37636   3.437   5.777   7.077 -0.0881 -0.3533  0.5488
11561SOL    HW137637   3.435   5.745   6.987  2.1222 -2.2642  1.0824
11561SOL    HW237638   3.361   5.735   7.118 -0.1086 -0.8862 -0.0078
11562SOL     OW37639   6.535   3.272   1.642  0.4492 -0.4652  0.2734
11562SOL    HW137640   6.531   3.210   1.570  1.7403  0.1115 -0.3451
11562SOL    HW237641   6.468   3.338   1.621  2.4712  1.0884 -1.8381
11563SOL     OW37642   3.872   1.366   3.382  0.3843  0.8073  0.5796
11563SOL    HW137643   3.818   1.313   3.324 -0.4231  0.7338  1.3766
11563SOL    HW237644   3.813   1.435   3.412  1.2797  1.8692 -0.0364
11564SOL     OW37645   6.775   7.122   3.583  0.0184  0.1327 -0.0685
11564SOL    HW137646   6.714   7.178   3.633  0.3638 -0.2421  0.8012
11564SOL    HW237647   6.831   7.083   3.650 -0.0525 -1.0591 -0.6869
11565SOL     OW37648   7.603   7.923   5.248 -0.2072 -0.1703 -0.2392
11565SOL    HW137649   7.659   7.908   5.172 -0.7102  3.9767 -1.6915
11565SOL    HW237650   7.531   7.977   5.215 -1.7748 -0.1916  2.7624
11566SOL     OW37651   6.749   7.032   3.337  0.3332  0.1662 -0.1673
11566SOL    HW137652   6.744   7.064   3.426  1.2342 -1.9037  0.7010
11566SOL    HW237653   6.686   6.959   3.334 -0.2266  0.6646 -1.4482
11567SOL     OW37654   5.337   4.529   0.299  0.6632  0.0904  0.4952
11567SOL    HW137655   5.344   4.622   0.320  0.1003 -0.1594  1.9068
11567SOL    HW237656   5.273   4.495   0.362  0.5184 -1.1643 -0.2927
11568SOL     OW37657   5.309   3.298   2.067 -0.3683 -0.5435  0.4044
11568SOL    HW137658   5.335   3.380   2.025 -0.5692  0.5181  2.2605
11568SOL    HW237659   5.215   3.305   2.079 -0.6720 -1.7906 -0.8557
11569SOL     OW37660   6.773   3.940   0.858  0.4330  0.6451 -0.4175
11569SOL    HW137661   6.794   3.882   0.932 -0.8880  2.9098  1.9160
11569SOL    HW237662   6.741   3.881   0.790 -1.6108 -1.3619  2.0661
11570SOL     OW37663   7.305   0.945   4.286 -0.1516  0.1971  0.1744
11570SOL    HW137664   7.378   0.916   4.231 -0.8833 -0.2716 -0.5555
11570SOL    HW237665   7.227   0.914   4.241 -0.7927  0.3457  1.1596
11571SOL     OW37666   0.374   5.201   1.953 -0.0288 -0.2640 -0.1696
11571SOL    HW137667   0.357   5.109   1.932  1.2088 -0.3047 -1.1786
11571SOL    HW237668   0.422   5.234   1.876 -0.9716  1.3866 -0.0885
11572SOL     OW37669   5.118   7.912   5.674 -0.1075  0.0874  0.4892
11572SOL    HW137670   5.046   7.970   5.698  1.3146  3.1793 -2.0714
11572SOL    HW237671   5.187   7.932   5.738 -0.4221 -0.6106  1.0624
11573SOL     OW37672   4.375   0.228   0.344 -0.0474 -0.3082 -0.5806
11573SOL    HW137673   4.451   0.200   0.395 -0.7696  0.0711  0.7665
11573SOL    HW237674   4.317   0.152   0.344 -0.2554 -0.1509 -0.4129
11574SOL     OW37675   0.496   4.549   5.471 -0.3976  0.5546  0.4387
11574SOL    HW137676   0.458   4.635   5.487 -1.1202  0.2079  0.6376
11574SOL    HW237677   0.475   4.499   5.550  0.8079  0.4655  0.7162
11575SOL     OW37678   6.810   6.831   2.672  0.1751 -0.0915 -0.0779
11575SOL    HW137679   6.819   6.927   2.674  1.2737 -0.1534 -0.9581
11575SOL    HW237680   6.716   6.816   2.671 -0.0628  0.9224  1.8817
11576SOL     OW37681   3.420   6.623   7.276 -0.5442  0.2644 -0.0246
11576SOL    HW137682   3.499   6.570   7.285 -0.1759  0.8895  0.5136
11576SOL    HW237683   3.357   6.583   7.336 -1.2111 -1.2315 -1.6427
11577SOL     OW37684   2.725   4.136   6.158 -0.3417 -0.1630  0.3101
11577SOL    HW137685   2.632   4.132   6.183 -0.6373  0.5038 -0.6229
11577SOL    HW237686   2.769   4.076   6.219 -1.9091 -3.7261 -1.7473
11578SOL     OW37687   5.617   2.505   6.084  0.2959 -0.6679  0.4605
11578SOL    HW137688   5.674   2.574   6.048  1.9461 -1.3365  1.6770
11578SOL    HW237689   5.618   2.436   6.018 -2.0983  0.6954 -1.2088
11579SOL     OW37690   0.998   3.845   6.695  0.1304 -0.4406  0.2915
11579SOL    HW137691   1.072   3.865   6.638 -0.7506  1.7013 -0.1847
11579SOL    HW237692   1.005   3.751   6.711  2.2792 -0.4960 -0.6554
11580SOL     OW37693   2.080   3.469   3.284 -0.0023 -0.1018 -0.8990
11580SOL    HW137694   2.151   3.489   3.223 -0.7150 -0.0765 -1.7417
11580SOL    HW237695   2.109   3.389   3.329  0.6620  0.0485 -1.0528
11581SOL     OW37696   2.412   5.793   7.168 -0.8055 -0.2071 -0.1784
11581SOL    HW137697   2.435   5.797   7.260  0.8652 -0.6007 -0.5413
11581SOL    HW237698   2.337   5.852   7.159  0.3859  1.5821  1.0350
11582SOL     OW37699   4.391   5.373   4.617  0.1158 -0.0730  0.0584
11582SOL    HW137700   4.472   5.417   4.589  1.1150  0.2245  3.0804
11582SOL    HW237701   4.415   5.280   4.621 -0.7574 -0.4685 -2.2173
11583SOL     OW37702   2.610   1.971   6.169 -0.5638 -0.0882  0.2578
11583SOL    HW137703   2.602   1.904   6.101 -1.5263 -0.1682  0.4321
11583SOL    HW237704   2.545   1.946   6.234  0.6013 -0.2182  1.4034
11584SOL     OW37705   7.679   1.188   7.524  0.2860 -0.0839  0.0984
11584SOL    HW137706   7.624   1.180   7.445 -1.6106 -0.9128  1.4063
11584SOL    HW237707   7.745   1.253   7.501 -0.0416 -0.4649 -2.2424
11585SOL     OW37708   1.906   0.778   5.737  0.4464  0.1278  0.1811
11585SOL    HW137709   1.929   0.801   5.827  0.1588  1.9966 -0.1807
11585SOL    HW237710   1.814   0.803   5.729 -0.3436 -2.5019  0.1089
11586SOL     OW37711   5.314   6.020   2.243 -0.2569  0.4197  0.1242
11586SOL    HW137712   5.330   6.035   2.337 -2.7635  0.4460  0.6037
11586SOL    HW237713   5.387   6.065   2.200  1.0760  0.2389  2.0438
11587SOL     OW37714   1.239   6.932   4.468  0.5078  0.4767 -0.2790
11587SOL    HW137715   1.300   6.914   4.397  0.2993  1.7876 -0.8111
11587SOL    HW237716   1.154   6.941   4.426 -0.0726 -1.2134  0.4439
11588SOL     OW37717   2.377   1.733   3.401 -0.1503 -0.4998 -0.3079
11588SOL    HW137718   2.375   1.637   3.395 -0.4466 -0.4858 -0.5027
11588SOL    HW237719   2.291   1.760   3.367  0.0467 -0.1516 -0.5289
11589SOL     OW37720   5.055   4.009   6.759 -0.4563 -0.2457 -0.8401
11589SOL    HW137721   5.082   3.986   6.848  3.0141  1.2748 -1.3502
11589SOL    HW237722   5.038   3.924   6.717  2.5990 -1.3950 -0.0212
11590SOL     OW37723   0.941   6.881   0.309  0.4534 -0.5627 -0.1926
11590SOL    HW137724   0.921   6.910   0.398  0.4474 -2.1880  0.3778
11590SOL    HW237725   1.022   6.831   0.317 -0.0528 -1.5508 -0.8977
11591SOL     OW37726   1.801   3.611   1.408 -0.4121 -0.2860 -0.2482
11591SOL    HW137727   1.841   3.678   1.463  0.2830  1.2062 -2.4236
11591SOL    HW237728   1.722   3.652   1.374  0.2733 -0.3194 -1.9878
11592SOL     OW37729   6.974   7.855   7.286  0.4172 -0.5433 -0.0549
11592SOL    HW137730   6.964   7.803   7.366 -0.5478 -1.1106 -0.5257
11592SOL    HW237731   6.930   7.803   7.219  0.5429  0.2977 -0.7958
11593SOL     OW37732   7.777   0.565   2.134 -0.0495 -0.0718 -0.1118
11593SOL    HW137733   7.750   0.479   2.102  0.3287 -0.6267  1.0108
11593SOL    HW237734   7.696   0.616   2.138 -0.5437 -0.9023  0.7737
11594SOL     OW37735   2.869   6.077   4.820  0.3328  0.1588  0.1459
11594SOL    HW137736   2.823   6.092   4.737 -0.0460 -0.3663  0.2586
11594SOL    HW237737   2.946   6.134   4.814  0.8809 -0.6636 -1.0283
11595SOL     OW37738   4.250   2.990   5.536  0.3050  0.1651 -0.4094
11595SOL    HW137739   4.315   3.011   5.603  0.4972  0.4121 -0.6719
11595SOL    HW237740   4.289   3.021   5.454  0.3688 -0.7256 -0.7341
11596SOL     OW37741   0.841   0.411   5.035 -0.0462 -0.2580 -0.2222
11596SOL    HW137742   0.784   0.482   5.004 -1.7157 -0.9711  1.0535
11596SOL    HW237743   0.816   0.336   4.981 -0.3544 -0.5889  0.3794
11597SOL     OW37744   0.622   1.321   3.777  0.1172 -0.3676 -0.6563
11597SOL    HW137745   0.542   1.366   3.749  0.0265 -0.5053 -0.6201
11597SOL    HW237746   0.674   1.389   3.818  0.9818  0.2115 -2.6050
11598SOL     OW37747   0.046   0.188   8.025 -0.1927  0.3151  0.0024
11598SOL    HW137748   0.134   0.221   8.005 -0.1055 -0.5400 -1.0997
11598SOL    HW237749   0.002   0.186   7.940 -0.9670 -0.1781  0.4108
11599SOL     OW37750   3.945   2.158   0.297 -0.1600 -0.2122 -0.0911
11599SOL    HW137751   3.851   2.175   0.300 -0.2344 -0.6456  1.7259
11599SOL    HW237752   3.986   2.244   0.303 -0.4849 -0.1091  0.9195
11600SOL     OW37753   0.187   7.023   6.964 -0.1687 -0.0891 -0.5782
11600SOL    HW137754   0.272   7.048   6.927 -0.8498  2.6686 -0.5182
11600SOL    HW237755   0.136   6.995   6.888  0.1425  0.3012 -0.9400
11601SOL     OW37756   8.017   2.202   1.941  0.0863  0.9125  0.0831
11601SOL    HW137757   8.006   2.213   1.847 -0.5901 -2.7301 -0.3934
11601SOL    HW237758   8.112   2.200   1.955  0.1916  0.2244 -0.7107
11602SOL     OW37759   1.447   7.376   0.842 -0.2208 -0.5824  0.1142
11602SOL    HW137760   1.459   7.289   0.880 -1.2284 -0.8509 -0.1401
11602SOL    HW237761   1.398   7.360   0.761 -1.0346  0.2671  0.4173
11603SOL     OW37762   0.881   6.381   5.233 -0.2271 -0.0262  0.5662
11603SOL    HW137763   0.855   6.428   5.154 -0.5282 -2.1964 -0.7160
11603SOL    HW237764   0.814   6.403   5.298 -1.3218 -0.0583 -0.5296
11604SOL     OW37765   5.256   2.340   1.787 -0.1235  0.0455  0.3821
11604SOL    HW137766   5.317   2.302   1.724 -0.7873  2.6040 -1.9756
11604SOL    HW237767   5.187   2.274   1.797  1.2150 -1.4031  0.3524
11605SOL     OW37768   6.062   2.425   0.025 -0.2535  0.0036  0.0136
11605SOL    HW137769   6.035   2.516   0.030 -0.7365 -0.1393  4.2955
11605SOL    HW237770   5.981   2.375   0.036  0.2189 -0.8680 -0.3045
11606SOL     OW37771   4.549   7.610   0.360  0.0427 -0.2580 -0.1251
11606SOL    HW137772   4.500   7.556   0.422 -1.8887  0.2090 -1.1615
11606SOL    HW237773   4.596   7.547   0.305  0.3632 -0.7354  0.6837
11607SOL     OW37774   4.745   1.744   7.248 -0.6969  0.8240  0.6337
11607SOL    HW137775   4.750   1.649   7.258 -1.6721  0.7649  0.6830
11607SOL    HW237776   4.822   1.778   7.295  0.2540  0.0200 -0.2890
11608SOL     OW37777   5.726   4.782   3.622 -0.0459  0.1349  0.3979
11608SOL    HW137778   5.701   4.873   3.639 -0.0682  0.4160 -0.9915
11608SOL    HW237779   5.796   4.764   3.684  1.8655  2.0212 -1.0625
11609SOL     OW37780   3.063   5.447   2.399 -0.3015  0.4868 -0.4452
11609SOL    HW137781   3.095   5.367   2.439  1.2810  2.1476  1.8192
11609SOL    HW237782   3.107   5.518   2.446 -2.0736  2.7392 -1.9232
11610SOL     OW37783   1.430   8.031   1.659 -0.5037  0.1267 -0.4039
11610SOL    HW137784   1.394   8.045   1.572 -1.9767  1.4040  0.3652
11610SOL    HW237785   1.520   8.064   1.654 -0.4954 -0.0550 -1.4991
11611SOL     OW37786   6.916   5.681   5.706 -0.8507  0.2779  0.1577
11611SOL    HW137787   6.905   5.612   5.641 -0.7001  0.1749  0.2395
11611SOL    HW237788   7.001   5.663   5.746  0.6071  2.2179 -1.8626
11612SOL     OW37789   0.431   0.546   6.973  0.2240 -0.0716 -0.3822
11612SOL    HW137790   0.493   0.545   6.900 -1.1495  2.2466 -1.6692
11612SOL    HW237791   0.347   0.524   6.934 -0.6563  1.8438  0.3071
11613SOL     OW37792   0.226   7.832   4.998  0.3354 -0.7183  0.4450
11613SOL    HW137793   0.257   7.899   4.937  1.5675  0.4495  2.2601
11613SOL    HW237794   0.257   7.749   4.961  0.6115 -0.0921 -0.7615
11614SOL     OW37795   6.187   4.608   6.509  0.0833  0.7948  0.0657
11614SOL    HW137796   6.128   4.653   6.570 -0.0101 -0.6534  1.0934
11614SOL    HW237797   6.183   4.516   6.535 -1.4556 -0.2609 -3.3770
11615SOL     OW37798   5.399   7.122   1.519  0.0309 -0.0218 -0.6639
11615SOL    HW137799   5.466   7.190   1.513 -1.8936  2.0124 -0.3203
11615SOL    HW237800   5.393   7.087   1.430  1.6184 -0.3636 -0.6653
11616SOL     OW37801   7.057   1.282   2.206 -0.6832  0.1017 -0.4298
11616SOL    HW137802   7.038   1.260   2.297 -0.4563  0.4061 -0.3047
11616SOL    HW237803   7.036   1.203   2.157 -0.1972 -0.2783 -0.0349
11617SOL     OW37804   1.166   3.452   7.128  0.0474 -0.7062 -0.1839
11617SOL    HW137805   1.226   3.505   7.076 -1.9606  0.1804 -1.7564
11617SOL    HW237806   1.187   3.473   7.219  3.0800 -1.6211 -0.5696
11618SOL     OW37807   5.903   4.504   7.748 -0.3095  0.0552  0.9219
11618SOL    HW137808   5.808   4.502   7.754 -0.2253 -1.7017  3.1451
11618SOL    HW237809   5.932   4.514   7.839  1.6478  0.6771  0.2899
11619SOL     OW37810   1.425   8.033   1.385 -0.2334  0.2928 -0.1235
11619SOL    HW137811   1.397   8.120   1.356  0.2779  1.0015  1.3870
11619SOL    HW237812   1.520   8.033   1.373 -0.4913 -1.1524 -2.7990
11620SOL     OW37813   7.317   5.684   7.580  0.1551 -0.0729 -0.4614
11620SOL    HW137814   7.359   5.746   7.640  1.6088 -1.1425 -0.3221
11620SOL    HW237815   7.384   5.664   7.515 -0.0288 -1.9766 -0.1390
11621SOL     OW37816   0.440   3.398   4.753 -0.1649  0.7297 -0.2507
11621SOL    HW137817   0.453   3.492   4.746 -1.0247  0.7558 -2.2758
11621SOL    HW237818   0.466   3.364   4.667 -0.9956 -0.7227  0.0351
11622SOL     OW37819   3.829   8.102   0.665  0.0346 -0.3088 -0.0460
11622SOL    HW137820   3.898   8.166   0.680 -1.5084  1.5409 -0.4656
11622SOL    HW237821   3.860   8.049   0.592  0.6329  1.0855 -0.8437
11623SOL     OW37822   6.459   6.162   6.156 -0.0314  0.1097 -0.6384
11623SOL    HW137823   6.482   6.099   6.224  1.8020  0.1968 -1.1136
11623SOL    HW237824   6.485   6.119   6.074 -2.4129 -0.1003 -1.3745
11624SOL     OW37825   4.929   6.706   0.575 -0.1605 -0.7325  0.0054
11624SOL    HW137826   4.894   6.635   0.629 -0.9205 -1.5527 -1.4888
11624SOL    HW237827   4.976   6.661   0.505  0.2617  0.2866 -0.3798
11625SOL     OW37828   0.457   7.722   4.745 -0.3493 -0.3593 -0.0194
11625SOL    HW137829   0.427   7.638   4.781 -1.9865 -0.6838 -1.9375
11625SOL    HW237830   0.453   7.710   4.650 -1.3211  2.0934 -0.3721
11626SOL     OW37831   0.849   2.668   5.732  0.2342  0.0184 -0.2814
11626SOL    HW137832   0.784   2.637   5.669  0.1157 -0.3004 -0.0050
11626SOL    HW237833   0.858   2.596   5.795 -0.9213  0.9771  1.0503
11627SOL     OW37834   1.156   7.529   6.992 -0.6671  0.2039  0.1962
11627SOL    HW137835   1.179   7.606   7.045 -0.5966  0.4897 -0.2416
11627SOL    HW237836   1.230   7.470   7.002  0.0573  0.9000 -0.7894
11628SOL     OW37837   3.601   0.301   6.761  0.3984 -0.0018  0.4500
11628SOL    HW137838   3.529   0.363   6.765 -1.8724 -2.4740  1.2232
11628SOL    HW237839   3.680   0.355   6.756 -1.4404  2.8502  0.1873
11629SOL     OW37840   4.345   7.768   3.122 -0.4739  0.6493 -0.7318
11629SOL    HW137841   4.377   7.721   3.044 -1.0348  0.0611 -0.6135
11629SOL    HW237842   4.299   7.701   3.173 -0.4842  1.1285 -0.1007
11630SOL     OW37843   6.690   6.812   3.174 -0.2330  0.0854 -0.8714
11630SOL    HW137844   6.624   6.839   3.110  1.4765  2.8028 -1.6706
11630SOL    HW237845   6.771   6.809   3.124  0.8943  0.7620  0.8609
11631SOL     OW37846   6.818   7.560   7.949  0.3186 -0.4511  0.3231
11631SOL    HW137847   6.791   7.645   7.912  1.7295 -0.1372 -0.0394
11631SOL    HW237848   6.911   7.571   7.968  0.6837 -2.1206 -0.3334
11632SOL     OW37849   5.557   4.967   4.787 -0.8417  0.0824 -0.6664
11632SOL    HW137850   5.550   4.872   4.780 -0.3869 -0.1019  0.9568
11632SOL    HW237851   5.467   4.997   4.797 -0.9691 -0.2027 -0.9568
11633SOL     OW37852   0.070   7.008   0.924  0.0797 -0.7529  0.2928
11633SOL    HW137853   0.009   6.934   0.931 -2.4914  1.3578  2.3529
11633SOL    HW237854   0.148   6.979   0.971 -1.2758 -1.8368  2.0232
11634SOL     OW37855   5.552   3.490   2.839 -0.0529  0.4188 -0.1670
11634SOL    HW137856   5.538   3.540   2.920 -1.7467 -0.3540  0.0583
11634SOL    HW237857   5.646   3.498   2.822  0.3929  0.3877  2.0143
11635SOL     OW37858   2.481   2.254   2.043 -0.4551 -0.0120 -0.4132
11635SOL    HW137859   2.486   2.218   1.955 -0.3813  0.8145 -0.7517
11635SOL    HW237860   2.404   2.212   2.082  0.3649 -1.5064 -0.3415
11636SOL     OW37861   7.712   4.384   2.118  0.0030 -0.3847 -0.5306
11636SOL    HW137862   7.631   4.434   2.107  2.5914  4.4504 -0.2885
11636SOL    HW237863   7.705   4.347   2.206 -1.1437  1.6475  0.2987
11637SOL     OW37864   3.924   3.348   4.955 -0.2704 -1.0944 -0.1512
11637SOL    HW137865   3.983   3.419   4.981 -1.4290 -0.1642  0.0283
11637SOL    HW237866   3.915   3.294   5.034 -0.6385 -0.5290  0.1985
11638SOL     OW37867   6.004   2.086   2.587 -0.0059  0.4683 -0.0209
11638SOL    HW137868   6.044   2.064   2.671  1.7849 -0.2613 -1.0052
11638SOL    HW237869   6.076   2.081   2.524 -1.5837 -0.6183 -1.8661
11639SOL     OW37870   4.580   5.358   3.334 -0.4070 -0.7103 -0.4029
11639SOL    HW137871   4.545   5.299   3.400  0.0768  0.0384  0.5525
11639SOL    HW237872   4.561   5.446   3.367  0.8151 -0.3097 -0.6877
11640SOL     OW37873   4.009   2.876   0.356  0.0846  0.1314 -0.4198
11640SOL    HW137874   4.104   2.869   0.364 -0.0397  0.0566  1.4013
11640SOL    HW237875   3.985   2.807   0.294  1.1810 -0.0639 -0.6493
11641SOL     OW37876   2.207   4.150   1.452  0.9583 -0.2560  0.3967
11641SOL    HW137877   2.122   4.107   1.449  1.7112 -1.8524  0.6877
11641SOL    HW237878   2.213   4.198   1.369 -0.0507 -0.4618  0.1963
11642SOL     OW37879   5.338   4.949   2.838  0.3629 -0.2652 -0.2362
11642SOL    HW137880   5.332   4.960   2.743  0.0541 -1.1800 -0.3336
11642SOL    HW237881   5.295   5.027   2.874  1.6405  0.7527 -0.8184
11643SOL     OW37882   8.006   3.562   0.645  0.1045 -0.4425 -0.5729
11643SOL    HW137883   7.997   3.480   0.596  3.8883 -0.6864 -1.1931
11643SOL    HW237884   7.991   3.537   0.737 -0.6594 -1.4039 -0.9507
11644SOL     OW37885   1.113   4.398   3.155  0.5371 -0.3024  0.1329
11644SOL    HW137886   1.142   4.489   3.147 -0.8854  0.7708  4.2090
11644SOL    HW237887   1.189   4.351   3.189  0.8695 -0.2955 -0.6025
11645SOL     OW37888   2.988   5.197   6.941  0.3804 -0.2355 -0.2733
11645SOL    HW137889   2.921   5.129   6.947 -0.9694  1.0909  0.0845
11645SOL    HW237890   2.967   5.245   6.862 -0.0639  1.1646  0.6578
11646SOL     OW37891   7.936   7.155   2.197  0.0238  0.0534 -0.4815
11646SOL    HW137892   7.948   7.194   2.111  0.1509  0.8747 -0.1016
11646SOL    HW237893   7.863   7.204   2.236 -0.1669 -0.4452 -0.1986
11647SOL     OW37894   5.574   3.149   6.930  0.1039 -0.2440  0.9858
11647SOL    HW137895   5.533   3.189   6.853  1.9450 -2.7473 -1.4976
11647SOL    HW237896   5.647   3.208   6.951 -0.0290  0.1490  0.3825
11648SOL     OW37897   0.175   8.074   5.671 -0.4269 -0.4474 -0.7669
11648SOL    HW137898   0.115   8.117   5.610  0.1250  1.1975 -0.2024
11648SOL    HW237899   0.191   8.139   5.739  1.2880 -1.1643 -0.4236
11649SOL     OW37900   0.016   8.116   0.678 -0.4145 -0.0893  0.3059
11649SOL    HW137901   0.018   8.141   0.585 -1.2033  1.2209  0.6251
11649SOL    HW237902  -0.069   8.148   0.710 -0.9155 -2.0232  1.0876
11650SOL     OW37903   6.330   1.125   2.371  0.1083 -0.6771 -0.3343
11650SOL    HW137904   6.385   1.051   2.395 -0.9599 -1.1435  0.8059
11650SOL    HW237905   6.309   1.111   2.279 -1.0409 -2.4970  0.1480
11651SOL     OW37906   1.110   3.334   6.729  0.8293  0.0195 -0.3836
11651SOL    HW137907   1.201   3.333   6.759  0.2756 -1.8728  1.5354
11651SOL    HW237908   1.066   3.395   6.788  0.6261 -0.0279 -0.4850
11652SOL     OW37909   0.702   2.959   0.920  0.5189  0.3990  0.0114
11652SOL    HW137910   0.675   2.883   0.869 -2.2351  0.1241  1.6940
11652SOL    HW237911   0.779   2.928   0.969  1.9187  0.0390 -2.2777
11653SOL     OW37912   6.601   1.051   7.286 -0.1188 -0.0210  0.2821
11653SOL    HW137913   6.648   1.052   7.369  0.4458  0.5398 -0.0330
11653SOL    HW237914   6.512   1.026   7.309  0.5136 -2.0208  0.7839
11654SOL     OW37915   7.420   4.691   4.610 -0.2829 -0.6725 -0.0955
11654SOL    HW137916   7.387   4.616   4.560  0.3484 -1.2113  0.2821
11654SOL    HW237917   7.514   4.692   4.592 -0.1695 -0.4219  0.4972
11655SOL     OW37918   4.725   6.487   7.211 -0.3955 -0.0714 -0.6279
11655SOL    HW137919   4.785   6.555   7.241  0.1109 -0.2341 -1.2522
11655SOL    HW237920   4.643   6.533   7.194 -0.3182  0.2300 -0.2127
11656SOL     OW37921   1.832   8.029   0.894 -0.3171 -0.7080 -0.6524
11656SOL    HW137922   1.786   7.975   0.958 -1.0554 -0.2991 -0.8214
11656SOL    HW237923   1.810   7.988   0.810  0.6179 -1.2225 -0.6570
11657SOL     OW37924   6.011   3.025   4.905  0.1161  0.2197  0.2503
11657SOL    HW137925   6.050   3.012   4.992  2.0676  0.0682 -0.5831
11657SOL    HW237926   6.040   3.113   4.880 -0.3251  0.2129 -0.2869
11658SOL     OW37927   1.637   4.484   1.160 -0.6330 -0.3816 -0.3965
11658SOL    HW137928   1.575   4.412   1.149  0.5580 -1.6778  1.0492
11658SOL    HW237929   1.722   4.448   1.136 -0.1857  0.8928 -0.7927
11659SOL     OW37930   4.681   3.119   3.557 -0.2197 -0.4782 -0.0896
11659SOL    HW137931   4.756   3.178   3.563 -0.3007 -0.3730 -0.1158
11659SOL    HW237932   4.658   3.101   3.648  1.5614 -2.7088 -0.0008
11660SOL     OW37933   1.893   5.957   3.203  0.0069 -0.1950  0.3310
11660SOL    HW137934   1.808   6.002   3.206  0.7566  1.2522  0.7171
11660SOL    HW237935   1.881   5.881   3.260 -0.8390  0.3690  0.9328
11661SOL     OW37936   1.148   6.013   3.996  0.4726 -0.1544 -0.7018
11661SOL    HW137937   1.060   5.975   4.004 -0.5891  1.5269 -3.1959
11661SOL    HW237938   1.137   6.104   4.024  2.0091 -0.4553  1.0965
11662SOL     OW37939   6.336   2.715   4.602  0.5784 -0.4668  0.2946
11662SOL    HW137940   6.289   2.657   4.542  0.2889 -2.3024  2.1627
11662SOL    HW237941   6.272   2.780   4.629 -0.3283 -1.6820  1.1868
11663SOL     OW37942   7.123   0.712   3.089  0.5536 -0.0689  0.1764
11663SOL    HW137943   7.119   0.731   2.995  0.5885  0.5476  0.2945
11663SOL    HW237944   7.072   0.783   3.129 -0.6687 -1.1191  0.5246
11664SOL     OW37945   5.890   0.051   1.138 -0.8605  0.6054  0.3409
11664SOL    HW137946   5.889   0.066   1.232  0.1459  0.4469  0.3840
11664SOL    HW237947   5.950   0.117   1.104  2.4143 -2.1008  0.3524
11665SOL     OW37948   7.678   0.553   3.968  0.0830  0.5036  0.4614
11665SOL    HW137949   7.620   0.511   4.032  1.4571  0.0711  1.4763
11665SOL    HW237950   7.722   0.622   4.017  1.3097  0.0329  0.0608
11666SOL     OW37951   0.487   2.410   4.789 -0.3392  0.3338 -0.0844
11666SOL    HW137952   0.530   2.361   4.859 -0.8667  0.4982  0.3632
11666SOL    HW237953   0.529   2.379   4.709  1.2496  1.1695  0.3895
11667SOL     OW37954   5.260   2.675   3.411 -0.2662  0.0262  0.0226
11667SOL    HW137955   5.242   2.761   3.374 -1.2818 -0.9036 -1.8407
11667SOL    HW237956   5.178   2.650   3.455 -0.1245 -0.1442  0.1910
11668SOL     OW37957   1.106   5.819   0.332 -0.1925 -0.1010  0.0518
11668SOL    HW137958   1.045   5.791   0.401  0.1464  0.4032  0.5554
11668SOL    HW237959   1.058   5.802   0.251 -1.3039  0.9415  0.4504
11669SOL     OW37960   1.038   2.043   6.063 -0.1931 -0.4761 -0.1402
11669SOL    HW137961   1.086   1.995   6.130  1.0868 -0.6907 -1.1524
11669SOL    HW237962   0.996   1.974   6.010  1.3994 -0.5371 -1.4124
11670SOL     OW37963   1.788   1.573   5.595 -0.2155  0.1044  0.5380
11670SOL    HW137964   1.793   1.649   5.538  0.9020  0.9304  1.7009
11670SOL    HW237965   1.782   1.609   5.684 -0.4240 -1.1623  1.0645
11671SOL     OW37966   1.640   6.597   1.282 -0.2788 -0.0265  0.0259
11671SOL    HW137967   1.550   6.624   1.300 -0.0500  0.7952 -0.0615
11671SOL    HW237968   1.693   6.673   1.304  0.4044 -0.5359  0.1499
11672SOL     OW37969   2.815   5.389   1.243 -0.2121  0.2052  0.5501
11672SOL    HW137970   2.787   5.417   1.156 -1.4553  0.1110  0.9114
11672SOL    HW237971   2.911   5.396   1.240 -0.1667 -0.6385 -1.1079
11673SOL     OW37972   5.642   6.859   5.704  0.1126 -0.3084  0.1010
11673SOL    HW137973   5.601   6.907   5.777  0.5749 -0.5096  0.4987
11673SOL    HW237974   5.653   6.770   5.738 -1.3556 -0.9010 -0.8614
11674SOL     OW37975   0.729   7.542   6.736 -0.4764  0.1443 -0.4062
11674SOL    HW137976   0.751   7.479   6.804  0.5705 -1.0118 -1.7503
11674SOL    HW237977   0.688   7.615   6.783  0.7842 -0.3132  1.5174
11675SOL     OW37978   3.937   2.352   5.197 -0.2910  0.8065  0.1746
11675SOL    HW137979   3.858   2.400   5.172  1.0357  3.1134  0.1327
11675SOL    HW237980   3.927   2.339   5.292 -1.1232  0.2159  0.0226
11676SOL     OW37981   4.689   7.987   2.317 -0.4174  0.2237  0.2504
11676SOL    HW137982   4.642   8.070   2.333 -2.1444 -0.8077  0.7935
11676SOL    HW237983   4.680   7.971   2.224 -2.2333 -0.5377  0.5190
11677SOL     OW37984   3.993   4.543   1.162  0.4930 -0.0357 -0.5449
11677SOL    HW137985   3.903   4.519   1.185  0.7898  0.4176  1.2382
11677SOL    HW237986   4.036   4.460   1.143  0.0672 -0.3774 -0.0400
11678SOL     OW37987   6.501   5.620   4.406  0.1886 -0.4890  0.7057
11678SOL    HW137988   6.416   5.577   4.420 -0.7188  0.9107 -0.2237
11678SOL    HW237989   6.501   5.692   4.470 -0.0234  0.4528 -0.3307
11679SOL     OW37990   7.071   7.116   0.315  0.2706  0.1004  0.2875
11679SOL    HW137991   6.982   7.087   0.332  0.6455 -2.2479 -1.2288
11679SOL    HW237992   7.076   7.123   0.220  1.7337  0.0501  0.3364
11680SOL     OW37993   5.866   0.078   7.033  0.2220  0.1163  0.1344
11680SOL    HW137994   5.888   0.171   7.030  2.7543 -0.4493 -1.1133
11680SOL    HW237995   5.938   0.034   6.988 -1.3099 -2.4032 -0.0861
11681SOL     OW37996   7.436   7.348   4.749 -0.1044 -0.1323 -0.5819
11681SOL    HW137997   7.374   7.419   4.762  0.2179  0.3903 -1.7096
11681SOL    HW237998   7.449   7.310   4.836 -1.7997 -0.1020 -0.2865
11682SOL     OW37999   0.999   7.725   4.815  0.2432 -0.0319  0.0437
11682SOL    HW138000   0.932   7.727   4.747 -1.8818 -1.0146  1.9487
11682SOL    HW238001   1.056   7.799   4.795 -2.2084  1.7427 -0.9276
11683SOL     OW38002   6.136   1.613   0.362  0.0156 -0.6263 -0.5248
11683SOL    HW138003   6.128   1.528   0.318  0.6269  0.6733 -3.3132
11683SOL    HW238004   6.231   1.630   0.365 -0.1237  0.1605 -0.3913
11684SOL     OW38005   0.799   7.362   1.217  0.1788 -0.2897 -0.3557
11684SOL    HW138006   0.764   7.395   1.134  0.2703  0.8763  0.0505
11684SOL    HW238007   0.738   7.294   1.243 -0.0789 -0.3854 -1.1753
11685SOL     OW38008   3.395   3.499   2.327 -0.1887  0.4708 -0.4722
11685SOL    HW138009   3.381   3.520   2.420  1.0988  0.4164 -0.2524
11685SOL    HW238010   3.473   3.549   2.303  1.4763 -2.0557 -0.6265
11686SOL     OW38011   1.887   1.074   7.358 -0.3337 -0.0129  0.2489
11686SOL    HW138012   1.920   1.136   7.423 -1.3297  0.1940  0.5740
11686SOL    HW238013   1.880   0.991   7.405  0.0592 -0.1482  0.0771
11687SOL     OW38014   1.421   1.417   6.473  0.2284 -0.5501 -0.1436
11687SOL    HW138015   1.376   1.492   6.512 -0.2940 -0.3340 -1.1036
11687SOL    HW238016   1.492   1.396   6.533 -1.3453 -1.1136  1.6051
11688SOL     OW38017   2.128   0.416   0.418 -0.1037 -0.1968 -0.5397
11688SOL    HW138018   2.147   0.357   0.345  0.1928 -0.9641  0.1438
11688SOL    HW238019   2.188   0.389   0.487 -0.5100  0.3925  0.0564
11689SOL     OW38020   4.097   6.619   2.761 -0.3822  0.0516  0.2008
11689SOL    HW138021   4.010   6.641   2.794 -0.4764  0.5575 -0.3785
11689SOL    HW238022   4.134   6.702   2.731  1.1579  0.2477  2.3688
11690SOL     OW38023   3.484   0.246   8.072  0.1593 -0.2945 -0.2540
11690SOL    HW138024   3.447   0.216   7.989  0.3320 -1.7989  0.1828
11690SOL    HW238025   3.547   0.179   8.096  1.9687  1.3786 -0.1279
11691SOL     OW38026   2.300   3.096   6.333 -0.2986 -0.0620  0.7533
11691SOL    HW138027   2.255   3.053   6.261 -0.5468  0.0264  0.8513
11691SOL    HW238028   2.271   3.187   6.328  1.2155  0.4076 -0.2389
11692SOL     OW38029   7.608   1.619   1.565  0.7352  0.3763 -0.2122
11692SOL    HW138030   7.642   1.559   1.499 -0.5204  1.3489 -1.8121
11692SOL    HW238031   7.555   1.564   1.623  0.1566 -0.2083 -1.2628
11693SOL     OW38032   4.543   6.957   1.053  0.2447  0.2406 -0.3904
11693SOL    HW138033   4.468   6.917   1.097 -0.6869 -0.2871 -2.3890
11693SOL    HW238034   4.617   6.935   1.110 -0.8171 -0.8773  0.6363
11694SOL     OW38035   1.385   0.154   4.839  0.8378 -0.7418 -0.0372
11694SOL    HW138036   1.458   0.206   4.872  0.2647  0.6596 -0.9015
11694SOL    HW238037   1.416   0.118   4.756  0.7934 -0.7164 -0.0649
11695SOL     OW38038   1.169   6.682   3.980 -0.2748 -0.4641 -0.5495
11695SOL    HW138039   1.108   6.661   4.050 -1.1956  0.3486 -1.0720
11695SOL    HW238040   1.121   6.744   3.925  1.0745  0.2918 -0.9135
11696SOL     OW38041   1.515   1.858   2.080 -0.1371  0.0030  0.1568
11696SOL    HW138042   1.565   1.819   2.008 -0.2563  0.1126  0.0135
11696SOL    HW238043   1.448   1.794   2.100  0.3909 -0.3846  0.7121
11697SOL     OW38044   6.764   0.341   4.581  0.1087  0.3735  0.0171
11697SOL    HW138045   6.732   0.429   4.599 -0.9566  0.1706 -0.7852
11697SOL    HW238046   6.843   0.355   4.529  0.4360  0.8534  0.6214
11698SOL     OW38047   1.311   3.940   1.728 -0.1042  0.2862  0.5373
11698SOL    HW138048   1.375   3.912   1.794  0.4031  0.4245  0.1080
11698SOL    HW238049   1.334   3.890   1.650 -1.4173 -0.7521  0.7692
11699SOL     OW38050   3.606   0.144   0.541 -0.5971 -0.1453 -0.2000
11699SOL    HW138051   3.650   0.226   0.519  0.0203 -0.3586  0.2168
11699SOL    HW238052   3.662   0.103   0.607 -1.6921 -0.1883  0.7277
11700SOL     OW38053   0.794   7.661   1.317 -1.1469  0.0170  0.3099
11700SOL    HW138054   0.762   7.583   1.272 -0.8844 -0.4156  0.8582
11700SOL    HW238055   0.765   7.651   1.408  0.4104 -0.3490  0.8079
11701SOL     OW38056   3.488   2.741   5.409  0.3234 -0.0474  0.1431
11701SOL    HW138057   3.414   2.722   5.468 -0.2438 -1.1752 -0.8818
11701SOL    HW238058   3.545   2.665   5.417 -0.4490 -0.9036 -1.7377
11702SOL     OW38059   0.974   5.805   6.953 -0.4551  0.1055 -0.5814
11702SOL    HW138060   1.059   5.787   6.912 -0.6710 -0.2686 -0.8660
11702SOL    HW238061   0.963   5.900   6.944 -0.1131  0.1434 -0.6295
11703SOL     OW38062   0.886   7.000   5.786 -0.5324 -0.2207 -0.5700
11703SOL    HW138063   0.859   6.973   5.698 -0.7963 -1.2548 -0.1815
11703SOL    HW238064   0.817   7.059   5.816 -1.8486 -1.9547 -0.0264
11704SOL     OW38065   6.384   2.356   4.931  0.3769  0.1891  0.8968
11704SOL    HW138066   6.354   2.415   5.000  2.8447  2.3650  0.2674
11704SOL    HW238067   6.394   2.413   4.854 -0.4073 -1.7807 -0.7538
11705SOL     OW38068   2.541   1.814   6.430  0.5153  0.6758 -0.0124
11705SOL    HW138069   2.534   1.770   6.515 -0.8336 -0.0394 -0.4673
11705SOL    HW238070   2.635   1.826   6.417  0.7548  0.7650  1.5577
11706SOL     OW38071   0.780   1.068   1.197  0.2480 -0.3971  0.0107
11706SOL    HW138072   0.836   1.069   1.274 -1.4701 -1.7927  1.3598
11706SOL    HW238073   0.832   1.021   1.131  0.8270 -1.3576  1.1102
11707SOL     OW38074   3.628   3.297   4.193 -0.1557 -0.6341 -0.1485
11707SOL    HW138075   3.618   3.236   4.120  1.7097 -0.0759 -0.9237
11707SOL    HW238076   3.689   3.253   4.252  2.7999  1.1226 -1.6278
11708SOL     OW38077   2.162   7.598   0.127 -0.3350  0.6599 -0.2521
11708SOL    HW138078   2.247   7.557   0.109 -1.0655 -1.0687  0.0654
11708SOL    HW238079   2.098   7.541   0.086 -1.3773  1.9136 -0.4437
11709SOL     OW38080   3.126   3.504   1.028 -0.2599  0.4811  0.3289
11709SOL    HW138081   3.169   3.430   1.069 -0.2840  0.2255 -0.1022
11709SOL    HW238082   3.135   3.488   0.934 -0.4299  0.9265  0.2338
11710SOL     OW38083   0.118   5.440   7.288  0.0639  0.4058 -0.7461
11710SOL    HW138084   0.129   5.499   7.363  0.5683  1.2499 -1.4522
11710SOL    HW238085   0.051   5.378   7.315  1.6624 -0.5628  1.1537
11711SOL     OW38086   7.590   8.123   2.881  0.2546  0.1226 -0.3275
11711SOL    HW138087   7.563   8.055   2.819  1.2009 -2.4390  1.8722
11711SOL    HW238088   7.685   8.130   2.868  0.2279  0.7178 -0.2318
11712SOL     OW38089   0.715   2.070   1.660 -0.0319 -0.0692  0.6821
11712SOL    HW138090   0.654   2.103   1.594  0.7779  0.4347  0.1688
11712SOL    HW238091   0.698   2.123   1.737 -1.4410 -1.0922  1.1324
11713SOL     OW38092   2.305   2.008   7.959 -0.0330  0.1694  0.0726
11713SOL    HW138093   2.396   2.015   7.932  0.3521  0.4810  1.3880
11713SOL    HW238094   2.307   2.019   8.054 -1.4118 -0.0887  0.1531
11714SOL     OW38095   2.244   0.379   2.904 -0.6795  0.1791 -0.6979
11714SOL    HW138096   2.307   0.313   2.876 -1.4758 -0.3838 -1.1884
11714SOL    HW238097   2.167   0.364   2.849 -1.5076  0.3988  0.3762
11715SOL     OW38098   5.854   1.807   4.686 -0.0456 -0.1733  0.2533
11715SOL    HW138099   5.947   1.823   4.694 -0.2120  1.4284 -0.7292
11715SOL    HW238100   5.826   1.860   4.612 -1.7706 -0.4963  0.6265
11716SOL     OW38101   7.208   3.970   3.931 -0.3046  0.6706 -0.0930
11716SOL    HW138102   7.147   4.027   3.883 -0.9470  0.3431  0.3233
11716SOL    HW238103   7.153   3.899   3.965  0.4472 -0.1092 -0.4483
11717SOL     OW38104   4.935   6.566   3.483 -0.3595 -0.2134  0.1477
11717SOL    HW138105   4.896   6.569   3.395  0.9212  0.5958 -0.4263
11717SOL    HW238106   4.955   6.474   3.497 -1.6487 -0.5142  0.0872
11718SOL     OW38107   7.418   1.427   4.332 -0.4283  0.5743  0.1880
11718SOL    HW138108   7.371   1.494   4.382  0.3538  2.0671 -0.9841
11718SOL    HW238109   7.502   1.418   4.376 -1.6004 -1.9277  2.1465
11719SOL     OW38110   5.273   1.517   0.555 -0.0195  0.5735 -0.5107
11719SOL    HW138111   5.234   1.508   0.642 -0.0225 -0.0012 -0.5678
11719SOL    HW238112   5.259   1.432   0.514 -0.5618  1.0336 -1.3015
11720SOL     OW38113   4.333   7.701   7.538 -0.5723  0.1083  0.6737
11720SOL    HW138114   4.244   7.682   7.569 -0.5396  0.8526  1.2469
11720SOL    HW238115   4.381   7.619   7.551 -1.8722 -1.2766 -2.3547
11721SOL     OW38116   4.971   5.856   6.413  0.0866 -0.0225 -0.4469
11721SOL    HW138117   5.005   5.902   6.489 -0.7846 -1.1072  0.6288
11721SOL    HW238118   5.035   5.788   6.395  0.6824  0.7049 -1.1983
11722SOL     OW38119   7.281   3.159   5.573  0.6235 -0.3029 -0.6228
11722SOL    HW138120   7.241   3.084   5.617 -0.5867  1.2922  1.1814
11722SOL    HW238121   7.207   3.206   5.535  1.3463  0.0484 -1.6196
11723SOL     OW38122   0.746   0.570   3.452 -0.0367 -0.5061  0.2434
11723SOL    HW138123   0.700   0.552   3.534 -3.1704  0.6878 -1.0914
11723SOL    HW238124   0.713   0.503   3.392  2.5145 -1.6201 -0.0539
11724SOL     OW38125   4.715   2.870   7.229  0.6608  0.6283  0.3450
11724SOL    HW138126   4.700   2.806   7.160  0.7964  1.1046 -0.1273
11724SOL    HW238127   4.640   2.929   7.225  0.9349  0.9789  0.2400
11725SOL     OW38128   6.228   1.491   1.822 -0.2522  0.6650 -0.0393
11725SOL    HW138129   6.204   1.405   1.857  1.4930  0.8967  1.9259
11725SOL    HW238130   6.265   1.472   1.736  1.1017 -0.7230  0.7988
11726SOL     OW38131   3.810   2.513   7.670  0.0670 -0.3750  0.4838
11726SOL    HW138132   3.859   2.594   7.658 -0.3766 -0.1227  0.3582
11726SOL    HW238133   3.825   2.490   7.762  0.7465 -0.5233  0.3446
11727SOL     OW38134   7.531   2.537   6.204  0.1840 -0.1446 -0.2991
11727SOL    HW138135   7.520   2.533   6.109  0.7019 -0.5679 -0.3413
11727SOL    HW238136   7.556   2.449   6.230  0.0448 -0.0328  0.2329
11728SOL     OW38137   7.480   5.925   4.816 -0.2678  0.4670 -0.5673
11728SOL    HW138138   7.486   6.005   4.764 -0.2967  0.1755 -1.0310
11728SOL    HW238139   7.525   5.945   4.898  0.1121  0.8153 -0.8568
11729SOL     OW38140   3.998   4.174   5.765 -0.2563  0.2081 -0.7106
11729SOL    HW138141   3.916   4.168   5.814  0.4427 -0.4420  0.4359
11729SOL    HW238142   4.037   4.087   5.773  0.8753  0.7057 -0.6059
11730SOL     OW38143   5.415   0.758   4.679 -0.4106 -0.2003  0.1262
11730SOL    HW138144   5.486   0.695   4.669 -0.2768 -0.4246  2.0460
11730SOL    HW238145   5.455   0.831   4.727 -1.2443  0.0978  0.3741
11731SOL     OW38146   3.320   4.767   2.655  0.0419 -0.2831 -0.7315
11731SOL    HW138147   3.253   4.834   2.639  0.9753  0.7848 -0.3171
11731SOL    HW238148   3.396   4.796   2.604  0.9924 -0.1159  0.6902
11732SOL     OW38149   1.583   7.594   0.907  0.0339  0.0502  0.0852
11732SOL    HW138150   1.529   7.516   0.891  0.0946 -0.1440  0.7959
11732SOL    HW238151   1.672   7.561   0.910  0.0393  0.1007  0.6449
11733SOL     OW38152   1.924   6.916   1.596 -0.0750 -0.2144 -0.1218
11733SOL    HW138153   1.948   6.872   1.678  0.1827 -0.6501 -0.4239
11733SOL    HW238154   2.005   6.956   1.565 -0.1441 -0.1484 -0.2185
11734SOL     OW38155   1.473   4.668   7.304 -0.2494  0.6428 -0.5643
11734SOL    HW138156   1.512   4.750   7.273  2.1233 -0.2551 -0.1796
11734SOL    HW238157   1.453   4.619   7.224 -2.3658  1.7904 -0.8331
11735SOL     OW38158   2.484   5.013   4.879  0.3712 -0.4151 -0.1743
11735SOL    HW138159   2.495   5.090   4.935  2.3426 -1.1640  0.5405
11735SOL    HW238160   2.391   5.014   4.856 -0.5491 -0.0521  3.0779
11736SOL     OW38161   1.157   5.440   1.087  0.7593  0.1089 -0.7514
11736SOL    HW138162   1.252   5.435   1.088  0.9032  2.1387  0.3577
11736SOL    HW238163   1.137   5.532   1.106 -1.4298 -0.4539 -0.0142
11737SOL     OW38164   0.223   3.256   7.149 -0.4181  1.1642 -0.0450
11737SOL    HW138165   0.232   3.212   7.233 -1.7866  2.0396  0.6055
11737SOL    HW238166   0.140   3.224   7.114  0.9501 -0.5703 -1.9649
11738SOL     OW38167   3.536   7.618   3.499  0.2871 -0.6298 -0.3324
11738SOL    HW138168   3.627   7.619   3.527  0.0287 -0.4617  0.5304
11738SOL    HW238169   3.502   7.704   3.524 -0.5166 -1.2419  0.7911
11739SOL     OW38170   6.135   2.896   4.689 -0.4401 -0.3989  0.4127
11739SOL    HW138171   6.106   2.966   4.747  0.1957  0.4734 -0.3058
11739SOL    HW238172   6.053   2.855   4.659 -0.8337  0.3165  0.4954
11740SOL     OW38173   1.659   2.601   0.908 -0.5075  0.0215 -0.0548
11740SOL    HW138174   1.662   2.535   0.977 -1.0509 -0.1369 -0.1761
11740SOL    HW238175   1.571   2.593   0.871 -0.1279 -0.0900 -0.9584
11741SOL     OW38176   2.866   6.517   0.116 -0.2160 -0.5291  0.0686
11741SOL    HW138177   2.861   6.438   0.170  1.8849 -1.6736 -1.2650
11741SOL    HW238178   2.869   6.589   0.178 -0.2425 -1.6424  1.3993
11742SOL     OW38179   0.396   1.354   2.384  0.0482 -0.0270 -0.7590
11742SOL    HW138180   0.444   1.349   2.466  0.1092  2.1940 -0.6154
11742SOL    HW238181   0.305   1.333   2.407  0.2035 -0.1620 -0.2756
11743SOL     OW38182   3.548   2.753   7.064 -0.9094  0.1796 -0.6034
11743SOL    HW138183   3.503   2.731   6.982 -0.9585 -0.5567 -0.3926
11743SOL    HW238184   3.638   2.724   7.050 -1.1394 -0.8775 -0.0608
11744SOL     OW38185   4.286   5.002   5.387  0.5079  0.0961 -0.7930
11744SOL    HW138186   4.375   4.988   5.353  0.8697  0.6046 -0.0736
11744SOL    HW238187   4.268   4.923   5.439  0.3136 -0.2633 -1.4000
11745SOL     OW38188   1.562   3.827   5.689 -0.7445  0.5057  0.1330
11745SOL    HW138189   1.602   3.775   5.759 -1.8488  0.0988  0.4736
11745SOL    HW238190   1.636   3.871   5.647  0.5614 -2.8709 -1.4831
11746SOL     OW38191   6.518   2.409   4.492 -0.2701 -0.2148  0.1339
11746SOL    HW138192   6.510   2.445   4.580 -0.0471 -0.8671  0.4264
11746SOL    HW238193   6.527   2.315   4.505  1.1119 -0.1981 -0.5212
11747SOL     OW38194   7.770   2.618   3.962  0.6606 -0.8202  0.3795
11747SOL    HW138195   7.706   2.627   4.033 -1.2024  0.5032 -1.3481
11747SOL    HW238196   7.735   2.549   3.906  2.2542 -2.0435  0.7865
11748SOL     OW38197   6.958   4.158   1.213  0.7088  0.3423 -0.0386
11748SOL    HW138198   6.867   4.186   1.212  0.1406 -1.2811  0.9576
11748SOL    HW238199   6.962   4.089   1.147  1.1392  0.1957  0.1386
11749SOL     OW38200   3.912   7.133   6.719  0.2109 -0.1570  0.2835
11749SOL    HW138201   3.935   7.108   6.630 -0.3540 -0.6881  0.2723
11749SOL    HW238202   3.846   7.068   6.745 -0.2849  0.5281  0.7645
11750SOL     OW38203   2.341   1.397   4.439 -0.2882 -0.2619 -0.4325
11750SOL    HW138204   2.292   1.479   4.440  0.6629  0.4645  3.2898
11750SOL    HW238205   2.300   1.344   4.508 -1.4912 -3.4511 -3.3406
11751SOL     OW38206   1.855   4.473   6.071 -0.3013  0.1682  0.1454
11751SOL    HW138207   1.821   4.562   6.065  0.3420  0.4952  1.2251
11751SOL    HW238208   1.836   4.446   6.161  1.3329 -0.0278  0.4562
11752SOL     OW38209   2.841   1.843   6.817 -0.1596 -0.5071  0.0102
11752SOL    HW138210   2.798   1.888   6.743  2.7849 -0.4465 -1.8316
11752SOL    HW238211   2.847   1.909   6.885 -1.3285  0.0158 -0.3722
11753SOL     OW38212   1.617   6.924   0.662  0.6281 -0.1936  0.4988
11753SOL    HW138213   1.591   6.999   0.715  1.4083 -1.5518  2.9971
11753SOL    HW238214   1.541   6.867   0.662  1.0450 -0.7682  1.2946
11754SOL     OW38215   2.434   2.867   0.856  0.2537 -0.2450  0.1262
11754SOL    HW138216   2.446   2.923   0.933  2.0730  0.6240 -0.7193
11754SOL    HW238217   2.368   2.912   0.803  2.2623  1.6283 -0.9233
11755SOL     OW38218   3.128   2.590   7.662 -0.3544  0.1713  0.1683
11755SOL    HW138219   3.117   2.513   7.608  0.5258  0.3349 -0.2717
11755SOL    HW238220   3.214   2.579   7.703  0.2502  1.3686 -0.6922
11756SOL     OW38221   7.585   1.571   3.432 -0.0309  0.1315 -0.8711
11756SOL    HW138222   7.604   1.634   3.502 -0.9261  1.3170 -1.6574
11756SOL    HW238223   7.557   1.492   3.478  2.3232 -0.1746  0.1912
11757SOL     OW38224   6.753   7.691   7.202 -0.3523  0.2941  0.6884
11757SOL    HW138225   6.719   7.742   7.129 -1.2413  0.0656  0.9269
11757SOL    HW238226   6.686   7.701   7.270  0.2192  0.0885  1.2870
11758SOL     OW38227   2.016   7.805   6.123 -0.8232 -0.0584 -0.1011
11758SOL    HW138228   1.977   7.845   6.046  1.5408 -0.4740 -1.6221
11758SOL    HW238229   2.093   7.758   6.089  0.7467  0.3772  2.6060
11759SOL     OW38230   4.015   4.540   4.095 -0.8684 -0.2958  0.2853
11759SOL    HW138231   3.946   4.601   4.069 -1.3591 -1.3082 -0.8470
11759SOL    HW238232   4.076   4.593   4.147 -0.0564  1.7666 -2.5519
11760SOL     OW38233   1.594   3.160   1.011 -0.4502 -0.0295  0.3879
11760SOL    HW138234   1.634   3.137   1.095 -0.3586  0.5830  0.5163
11760SOL    HW238235   1.543   3.083   0.987  0.2926 -0.5776  0.5359
11761SOL     OW38236   7.867   2.692   6.205 -0.1824 -0.2435  0.3574
11761SOL    HW138237   7.846   2.727   6.119 -0.9295  0.7548  0.9252
11761SOL    HW238238   7.798   2.628   6.222  0.9865 -1.8250 -0.5292
11762SOL     OW38239   2.007   3.286   7.278 -0.1577  0.4999 -0.5684
11762SOL    HW138240   1.983   3.370   7.317 -1.0182 -0.3071  0.6972
11762SOL    HW238241   2.017   3.227   7.352  0.6019 -0.4926 -1.4317
11763SOL     OW38242   3.296   5.567   6.439 -0.4826 -0.0014  0.0125
11763SOL    HW138243   3.306   5.508   6.513 -0.2013  0.5333  0.4055
11763SOL    HW238244   3.349   5.528   6.369 -0.3902 -0.2703  0.2342
11764SOL     OW38245   3.090   1.300   1.580  0.0459 -0.3864 -0.1207
11764SOL    HW138246   3.078   1.240   1.654  0.1462  1.6984  1.6555
11764SOL    HW238247   3.177   1.339   1.594 -0.5832  1.1979 -0.4414
11765SOL     OW38248   6.356   2.421   0.735  0.5177 -0.3049 -0.3422
11765SOL    HW138249   6.452   2.421   0.740  0.6238  0.7058 -1.8718
11765SOL    HW238250   6.336   2.473   0.657 -1.3057  0.2191  0.4265
11766SOL     OW38251   2.197   4.528   7.712  0.0176 -0.3034 -0.1706
11766SOL    HW138252   2.275   4.574   7.743  0.1707 -0.5581 -0.1745
11766SOL    HW238253   2.156   4.495   7.791 -2.1013  2.9056  0.2595
11767SOL     OW38254   3.747   3.330   6.279 -1.0987 -0.3161  0.5324
11767SOL    HW138255   3.651   3.333   6.289 -1.1966  3.2467 -0.1731
11767SOL    HW238256   3.763   3.370   6.194  1.0738  0.5831  1.3109
11768SOL     OW38257   1.817   6.336   0.556 -0.5140  0.2469  0.1960
11768SOL    HW138258   1.764   6.293   0.489  0.5727 -0.7986 -0.0318
11768SOL    HW238259   1.878   6.268   0.585 -0.0758  1.0817  1.2780
11769SOL     OW38260   4.592   5.494   8.084  0.3865  0.1748 -0.0966
11769SOL    HW138261   4.540   5.526   8.158 -1.1678 -2.3611  0.0139
11769SOL    HW238262   4.535   5.506   8.008 -0.5277 -2.6926  0.0317
11770SOL     OW38263   1.134   7.412   6.556 -0.0290 -0.3906 -0.0536
11770SOL    HW138264   1.199   7.343   6.566  0.3690  0.1071  0.8788
11770SOL    HW238265   1.149   7.470   6.630 -2.1653 -0.7633  0.7268
11771SOL     OW38266   7.866   5.297   3.909 -0.1680  0.1159 -0.1572
11771SOL    HW138267   7.836   5.275   3.997 -0.0151 -1.4760 -0.4653
11771SOL    HW238268   7.867   5.392   3.907 -0.9455  0.1878  1.2955
11772SOL     OW38269   1.304   0.774   0.115 -0.1747  0.3708  0.3365
11772SOL    HW138270   1.348   0.768   0.030 -0.8166 -1.1607  0.0845
11772SOL    HW238271   1.236   0.839   0.103  0.1241  0.5964 -0.1415
11773SOL     OW38272   2.756   7.497   1.578  0.1678  0.5682  0.8918
11773SOL    HW138273   2.830   7.553   1.556 -0.0678  1.2622  1.7656
11773SOL    HW238274   2.750   7.435   1.506  1.5225  0.5659  0.7577
11774SOL     OW38275   3.223   6.708   6.123  0.6253 -0.3286  0.0399
11774SOL    HW138276   3.229   6.793   6.168 -0.6676  0.2765 -0.8662
11774SOL    HW238277   3.314   6.684   6.107  1.0184  1.2590 -0.3343
11775SOL     OW38278   1.839   1.193   6.239  0.3358 -0.1060 -0.0849
11775SOL    HW138279   1.828   1.279   6.198 -1.3320 -0.4179 -0.3515
11775SOL    HW238280   1.932   1.173   6.228  0.3454  0.7470 -1.8469
11776SOL     OW38281   6.057   7.715   7.219 -0.0697 -0.0029  0.3614
11776SOL    HW138282   6.143   7.751   7.243  0.8672 -2.1108  0.3818
11776SOL    HW238283   6.075   7.623   7.199 -2.4320 -0.6397  0.9330
11777SOL     OW38284   7.965   5.905   3.770  0.3533 -0.2471 -0.2600
11777SOL    HW138285   7.912   5.825   3.769  2.8598 -2.0287 -1.1565
11777SOL    HW238286   7.901   5.976   3.775 -1.9601 -2.2716  3.3889
11778SOL     OW38287   6.417   4.269   1.162  0.3849  0.4244 -0.1364
11778SOL    HW138288   6.356   4.209   1.205  2.1187 -1.2519  0.0937
11778SOL    HW238289   6.409   4.350   1.211 -2.2510  0.5617 -0.6322
11779SOL     OW38290   0.156   3.566   0.105  0.1727 -0.1806 -0.2557
11779SOL    HW138291   0.098   3.544   0.178  0.3395 -3.3837 -0.9248
11779SOL    HW238292   0.242   3.535   0.133  0.5269 -0.0784 -1.1948
11780SOL     OW38293   7.095   0.475   0.261 -0.3521 -0.7255  0.0390
11780SOL    HW138294   7.117   0.567   0.276  0.2466 -0.7914 -0.3929
11780SOL    HW238295   6.999   0.473   0.261 -0.4210  0.2227 -1.6610
11781SOL     OW38296   0.764   2.375   5.601 -0.2833 -0.1958 -0.2242
11781SOL    HW138297   0.728   2.461   5.580  0.4917  0.1975 -0.0011
11781SOL    HW238298   0.694   2.330   5.649 -0.3275  0.7131  0.5889
11782SOL     OW38299   5.799   5.190   1.708  0.1379 -0.3021  0.0607
11782SOL    HW138300   5.764   5.215   1.794 -1.2007 -0.1170 -0.4999
11782SOL    HW238301   5.817   5.273   1.664 -0.6293 -0.3434 -0.3706
11783SOL     OW38302   0.148   5.878   7.939  0.1062  0.0440 -0.3182
11783SOL    HW138303   0.133   5.936   8.013  2.0221  0.5186 -0.2706
11783SOL    HW238304   0.067   5.827   7.933  0.1526 -0.5451  2.5633
11784SOL     OW38305   3.831   2.201   6.326  0.4124  0.0147 -0.2139
11784SOL    HW138306   3.780   2.135   6.372  1.0178 -0.3386 -0.0419
11784SOL    HW238307   3.765   2.251   6.277  0.1115 -2.4911 -2.6756
11785SOL     OW38308   7.703   5.567   6.292  0.5345 -0.0726 -0.4395
11785SOL    HW138309   7.676   5.486   6.248  0.4962 -0.5391  0.4269
11785SOL    HW238310   7.642   5.577   6.365  0.2845  0.9614 -0.7665
11786SOL     OW38311   1.797   6.115   4.352 -0.2459 -0.4725  0.9777
11786SOL    HW138312   1.720   6.139   4.302  1.1074 -0.7146 -1.3801
11786SOL    HW238313   1.860   6.185   4.335  0.4677 -0.8619  1.8907
11787SOL     OW38314   0.441   3.217   7.703 -0.1169 -0.0578 -0.2039
11787SOL    HW138315   0.395   3.279   7.760 -0.3660 -1.2281  0.9085
11787SOL    HW238316   0.404   3.132   7.726  0.1796 -0.6364 -1.7387
11788SOL     OW38317   1.239   1.914   6.284 -0.4663  0.2271 -0.6246
11788SOL    HW138318   1.203   1.989   6.331 -0.0402 -0.3034  0.5945
11788SOL    HW238319   1.333   1.923   6.292 -0.4069 -0.3134 -0.6564
11789SOL     OW38320   3.235   6.945   2.102 -0.4572  0.9373  0.0357
11789SOL    HW138321   3.274   7.011   2.046 -0.1717  0.6333 -0.1281
11789SOL    HW238322   3.306   6.918   2.161  0.4441 -1.5155 -1.9504
11790SOL     OW38323   1.082   3.997   2.011 -0.1527  0.1915 -0.1397
11790SOL    HW138324   0.989   3.979   2.027 -0.5153 -0.0188 -2.2165
11790SOL    HW238325   1.083   4.088   1.980  0.4810  0.5250  0.8069
11791SOL     OW38326   1.797   5.392   7.945  0.3688  0.4695 -0.0225
11791SOL    HW138327   1.718   5.412   7.894  0.1314 -0.3316  0.0169
11791SOL    HW238328   1.789   5.299   7.964  0.5810  0.7052  1.2761
11792SOL     OW38329   4.197   4.295   4.618  0.2890 -0.0906  0.2478
11792SOL    HW138330   4.215   4.270   4.528  1.2229 -0.9709  0.6578
11792SOL    HW238331   4.197   4.391   4.618 -0.3963 -0.0827 -0.8043
11793SOL     OW38332   3.131   2.864   0.080  0.0514 -0.3714 -0.9847
11793SOL    HW138333   3.183   2.899   0.153  1.6317 -2.1172 -1.1634
11793SOL    HW238334   3.040   2.877   0.106  0.5777 -0.3616  1.0292
11794SOL     OW38335   7.856   2.042   0.313  0.2645 -0.1365  0.1546
11794SOL    HW138336   7.908   2.004   0.242 -0.6635 -0.0453 -0.5891
11794SOL    HW238337   7.887   1.997   0.391  1.3330 -0.2147 -0.2922
11795SOL     OW38338   3.724   6.154   3.507  0.4992  0.2476  0.1967
11795SOL    HW138339   3.782   6.102   3.561  0.7022  0.1895 -0.0747
11795SOL    HW238340   3.685   6.217   3.567  2.9522  2.1660 -0.0845
11796SOL     OW38341   5.341   4.201   4.322  0.0331 -0.5040 -0.0108
11796SOL    HW138342   5.424   4.158   4.301  0.8994  0.8100  0.5403
11796SOL    HW238343   5.286   4.187   4.245  2.0018  1.5171 -1.9446
11797SOL     OW38344   6.096   2.047   1.454 -0.5241 -0.0350  0.2346
11797SOL    HW138345   6.065   1.958   1.438  2.4832 -1.2622  0.6273
11797SOL    HW238346   6.062   2.068   1.541 -2.8258  0.0160 -0.6104
11798SOL     OW38347   5.438   2.863   5.802 -0.8173 -0.0393  0.3383
11798SOL    HW138348   5.495   2.924   5.754 -1.1897 -0.0185 -0.0916
11798SOL    HW238349   5.432   2.899   5.890 -1.7273  1.0489 -0.1366
11799SOL     OW38350   0.495   6.266   5.126 -0.5410 -0.2993  0.5675
11799SOL    HW138351   0.406   6.299   5.142 -0.9222 -1.6203  1.2940
11799SOL    HW238352   0.489   6.172   5.144  0.7973 -0.5622 -0.2676
11800SOL     OW38353   5.417   3.696   7.282  0.4210 -0.9726  0.0998
11800SOL    HW138354   5.329   3.700   7.244  0.4309 -2.1983 -0.0735
11800SOL    HW238355   5.469   3.755   7.226  0.2808 -2.2141 -1.4063
11801SOL     OW38356   4.458   5.826   7.792 -0.2450  0.6515 -0.1607
11801SOL    HW138357   4.444   5.905   7.844  0.1686  0.0258  0.9323
11801SOL    HW238358   4.382   5.822   7.734  0.0314  2.1722 -0.6842
11802SOL     OW38359   7.194   6.049   3.511 -0.0993 -0.0787 -0.7505
11802SOL    HW138360   7.241   6.131   3.526 -0.7548  0.0839  0.5636
11802SOL    HW238361   7.167   6.053   3.419 -0.2334  1.2532 -0.6705
11803SOL     OW38362   7.948   0.193   7.565 -0.1248 -0.0669  0.0259
11803SOL    HW138363   8.002   0.153   7.497 -1.5197 -1.5091 -0.2772
11803SOL    HW238364   7.883   0.126   7.588 -0.7549  1.0000  1.5673
11804SOL     OW38365   7.914   7.381   0.839 -0.2094 -0.9797 -0.3346
11804SOL    HW138366   7.919   7.447   0.908  0.0480 -0.5803 -0.7269
11804SOL    HW238367   7.857   7.313   0.874  0.6687 -1.2291  0.6374
11805SOL     OW38368   2.601   6.662   1.626  0.3938  0.3366 -0.0006
11805SOL    HW138369   2.595   6.579   1.673 -0.6280  0.3807 -0.0250
11805SOL    HW238370   2.658   6.716   1.680  1.4187 -0.5016 -0.1914
11806SOL     OW38371   7.667   6.797   2.479  0.0412 -0.0847  0.4344
11806SOL    HW138372   7.723   6.774   2.553 -0.4073 -1.4138  0.3881
11806SOL    HW238373   7.595   6.847   2.517  0.8468  0.9791  0.5978
11807SOL     OW38374   5.432   3.812   8.058  0.1864  0.6199 -0.2782
11807SOL    HW138375   5.461   3.903   8.050 -0.6621  0.8903 -0.3753
11807SOL    HW238376   5.341   3.813   8.030  0.4773 -0.4686 -1.3290
11808SOL     OW38377   0.699   7.890   0.252  0.1846 -0.5785 -0.6318
11808SOL    HW138378   0.701   7.795   0.237 -0.4463 -0.7010  0.0059
11808SOL    HW238379   0.627   7.921   0.197  0.9563 -0.3259 -1.5318
11809SOL     OW38380   5.572   6.094   7.668  0.2982 -0.5771  0.3289
11809SOL    HW138381   5.601   6.168   7.722 -1.2079  1.2172 -1.1877
11809SOL    HW238382   5.568   6.129   7.579  0.9994 -2.9469 -0.7168
11810SOL     OW38383   1.321   8.110   3.906  0.0101  0.0463  0.3736
11810SOL    HW138384   1.362   8.034   3.946 -1.0976 -0.7167  0.1155
11810SOL    HW238385   1.233   8.114   3.945 -0.7661 -0.1670 -1.2471
11811SOL     OW38386   7.225   0.658   1.128  0.1945  0.2325 -0.0316
11811SOL    HW138387   7.308   0.697   1.156  0.7367 -0.9164 -0.0227
11811SOL    HW238388   7.172   0.733   1.100  1.0504  1.0230  0.4209
11812SOL     OW38389   5.180   2.780   2.664  0.4245 -0.0360  0.0127
11812SOL    HW138390   5.170   2.771   2.759  1.8434  2.0672  0.4184
11812SOL    HW238391   5.092   2.772   2.630 -0.6121  2.4629  1.8444
11813SOL     OW38392   5.056   4.820   7.852 -0.0188  0.2683 -0.2890
11813SOL    HW138393   5.092   4.909   7.857 -0.9929  0.6790 -0.3905
11813SOL    HW238394   4.973   4.825   7.900  0.3354 -0.8087  0.4615
11814SOL     OW38395   6.958   1.935   3.665 -0.1401 -0.0433 -0.2825
11814SOL    HW138396   7.029   1.927   3.729 -0.7218 -0.0063  0.3690
11814SOL    HW238397   6.891   1.986   3.709 -1.1199 -1.1661 -0.4383
11815SOL     OW38398   5.162   2.575   2.131  0.1286 -0.1071 -0.3051
11815SOL    HW138399   5.071   2.544   2.137  0.1397  0.0603  1.0227
11815SOL    HW238400   5.212   2.510   2.180  0.4805  0.7194  0.4459
11816SOL     OW38401   5.142   2.918   1.795 -0.0355  0.1186  0.2179
11816SOL    HW138402   5.204   2.876   1.736  0.4562  0.2374  0.6484
11816SOL    HW238403   5.122   3.002   1.753 -1.3826 -0.7051 -0.8901
11817SOL     OW38404   4.218   3.739   0.883  0.3372 -0.0806 -0.1008
11817SOL    HW138405   4.163   3.663   0.866  1.6785 -1.0254 -0.4538
11817SOL    HW238406   4.261   3.721   0.966 -0.2969  0.9163  0.4699
11818SOL     OW38407   6.390   0.635   2.402 -0.0514  0.1473 -0.2072
11818SOL    HW138408   6.420   0.680   2.324  0.7236  0.0296  0.0131
11818SOL    HW238409   6.388   0.542   2.377 -0.5133  0.1825 -0.3069
11819SOL     OW38410   5.098   2.393   2.857  0.1758  0.3151 -0.3128
11819SOL    HW138411   5.148   2.406   2.938  0.1901  0.1608 -0.2958
11819SOL    HW238412   5.012   2.364   2.887 -0.0093  0.8383 -0.3336
11820SOL     OW38413   2.304   7.470   6.865 -0.4474 -0.9548 -0.3866
11820SOL    HW138414   2.209   7.457   6.870 -0.5398 -0.3232 -0.4984
11820SOL    HW238415   2.341   7.393   6.910 -1.0410 -0.4852  0.9401
11821SOL     OW38416   5.587   4.194   4.199 -0.4328 -0.1908  0.1409
11821SOL    HW138417   5.663   4.138   4.184 -0.5937  0.1777 -2.6494
11821SOL    HW238418   5.566   4.230   4.112 -2.7881  1.0170  1.1083
11822SOL     OW38419   5.411   2.924   5.029 -0.1736  0.1410 -0.5389
11822SOL    HW138420   5.400   2.859   4.960 -0.4257 -0.0825 -0.2905
11822SOL    HW238421   5.409   2.874   5.111 -1.0005  0.5163 -0.3105
11823SOL     OW38422   5.549   0.967   3.694  0.1253 -0.3222  0.3241
11823SOL    HW138423   5.607   0.903   3.734  0.8746  0.8758  1.2408
11823SOL    HW238424   5.588   1.052   3.717 -0.3453  0.4481 -1.5797
11824SOL     OW38425   5.917   0.376   3.643 -0.3494 -0.1321  0.6539
11824SOL    HW138426   5.880   0.347   3.727 -2.7546 -1.6459 -0.7855
11824SOL    HW238427   5.907   0.301   3.585  4.3652 -0.3501 -0.2643
11825SOL     OW38428   5.737   7.822   5.615  0.2384  0.0554  0.6110
11825SOL    HW138429   5.771   7.737   5.588 -0.1231 -0.2623  1.1208
11825SOL    HW238430   5.807   7.884   5.595  1.3820 -0.6635  2.1828
11826SOL     OW38431   2.889   3.321   0.694  0.2669  0.0483  0.1340
11826SOL    HW138432   2.878   3.266   0.617 -1.3200  1.1124 -0.4301
11826SOL    HW238433   2.889   3.260   0.767 -2.0054 -0.7013 -0.4310
11827SOL     OW38434   7.111   7.517   3.102  0.5221  0.7258 -0.3460
11827SOL    HW138435   7.150   7.589   3.151  0.8460  1.3767 -1.5476
11827SOL    HW238436   7.164   7.508   3.023 -0.6396  0.4220 -1.1277
11828SOL     OW38437   7.752   4.939   1.528  0.5778 -0.2316  0.4235
11828SOL    HW138438   7.764   4.875   1.599 -0.1231  0.0285  0.7849
11828SOL    HW238439   7.683   4.902   1.474 -0.2121  0.4603  0.9332
11829SOL     OW38440   5.252   1.944   5.466 -0.3870 -0.0248 -0.0147
11829SOL    HW138441   5.287   2.023   5.426 -0.6385  0.7970  1.3254
11829SOL    HW238442   5.323   1.880   5.461  0.6767  1.0448  1.0329
11830SOL     OW38443   1.996   0.074   2.757 -0.1986  0.2669 -0.5372
11830SOL    HW138444   2.003   0.165   2.729  2.9549  0.0272 -0.8731
11830SOL    HW238445   1.966   0.078   2.848 -2.3849  1.4401 -1.2230
11831SOL     OW38446   3.667   7.800   2.031  0.5420 -0.3382 -0.1413
11831SOL    HW138447   3.597   7.848   2.074 -0.0281  0.2480 -1.6548
11831SOL    HW238448   3.623   7.748   1.963  1.5217 -0.2248 -0.8896
11832SOL     OW38449   4.819   6.727   2.574 -0.1411 -0.6045 -0.3174
11832SOL    HW138450   4.906   6.765   2.559 -0.0006 -0.6261  0.4102
11832SOL    HW238451   4.762   6.803   2.588 -0.3232 -0.5723 -1.1530
11833SOL     OW38452   0.767   2.769   0.499 -0.4463 -0.1034 -0.6915
11833SOL    HW138453   0.826   2.762   0.424 -0.3025  0.9221 -0.6981
11833SOL    HW238454   0.698   2.829   0.470 -0.3393  0.3787  0.0104
11834SOL     OW38455   6.090   7.018   5.524  0.0456 -0.9364 -0.1309
11834SOL    HW138456   6.075   6.926   5.502  1.1608 -1.2563  0.3855
11834SOL    HW238457   6.008   7.046   5.565 -0.5771 -1.4691 -0.9574
11835SOL     OW38458   3.765   6.329   3.289  0.3425  0.0098 -0.3826
11835SOL    HW138459   3.740   6.258   3.348  1.5747  1.0943  1.5285
11835SOL    HW238460   3.713   6.404   3.318  0.3711  0.3776 -1.2363
11836SOL     OW38461   2.352   0.674   2.228  0.0791  0.6259  0.2658
11836SOL    HW138462   2.344   0.731   2.152  0.1738 -0.3509 -0.5083
11836SOL    HW238463   2.271   0.624   2.230  0.9123 -0.8283 -0.4636
11837SOL     OW38464   4.591   2.876   6.798 -0.0623 -0.5396 -0.4203
11837SOL    HW138465   4.514   2.929   6.819 -0.8375 -0.7527 -2.4748
11837SOL    HW238466   4.632   2.922   6.725  1.2710 -0.8986  0.0863
11838SOL     OW38467   3.193   0.354   3.231  0.0288  0.1670 -0.0848
11838SOL    HW138468   3.199   0.426   3.294 -0.4008  0.9303 -0.9044
11838SOL    HW238469   3.215   0.393   3.147  3.3240 -1.4282 -0.0959
11839SOL     OW38470   2.883   4.618   4.178 -0.4651  0.0117 -0.3821
11839SOL    HW138471   2.867   4.683   4.247 -2.5340 -0.3535 -0.4340
11839SOL    HW238472   2.827   4.544   4.201  2.2601 -2.0950  0.0063
11840SOL     OW38473   4.459   4.801   0.843 -0.5016  0.1112  0.2611
11840SOL    HW138474   4.384   4.848   0.881 -1.2022 -0.8102  0.0570
11840SOL    HW238475   4.446   4.710   0.869  0.4491 -0.0974  0.0449
11841SOL     OW38476   2.751   3.611   0.163 -0.0391  0.2155  0.1661
11841SOL    HW138477   2.795   3.646   0.085  2.7096  0.6634  1.7830
11841SOL    HW238478   2.758   3.681   0.227 -0.8964 -0.7029  1.2965
11842SOL     OW38479   6.972   3.111   4.673  0.0714  0.4845  0.7538
11842SOL    HW138480   6.911   3.150   4.610 -0.5766  0.3888  1.3166
11842SOL    HW238481   6.927   3.117   4.757  0.9505  0.6399  1.2195
11843SOL     OW38482   4.992   1.836   7.381  0.3703 -0.4979  0.1028
11843SOL    HW138483   5.037   1.855   7.463  0.4716 -0.9465  0.1523
11843SOL    HW238484   5.053   1.782   7.331 -0.0279 -0.9549  0.0929
11844SOL     OW38485   6.647   0.576   7.093  0.7576  0.5350 -0.2978
11844SOL    HW138486   6.633   0.658   7.046 -2.7940  0.2519  0.0192
11844SOL    HW238487   6.639   0.508   7.025  0.5035  0.3138 -0.0477
11845SOL     OW38488   1.044   5.089   0.225  0.2767  0.4976 -0.2939
11845SOL    HW138489   1.038   5.131   0.140 -0.0028  0.0424 -0.5011
11845SOL    HW238490   0.998   5.148   0.284  0.5326  0.8485 -0.4415
11846SOL     OW38491   5.786   1.328   2.866 -0.5185 -0.3071 -0.5210
11846SOL    HW138492   5.813   1.283   2.945 -1.3179  0.1202  0.0077
11846SOL    HW238493   5.823   1.416   2.874 -2.5165  0.4905  0.5156
11847SOL     OW38494   4.726   7.377   6.390  0.2159 -0.2884  0.4736
11847SOL    HW138495   4.705   7.422   6.309 -1.4020  0.0967  1.0775
11847SOL    HW238496   4.728   7.284   6.366  2.1482 -0.0669 -0.4672
11848SOL     OW38497   5.657   1.213   7.585  0.2444  0.0337 -0.1430
11848SOL    HW138498   5.586   1.250   7.533  1.0150 -0.5992 -1.7198
11848SOL    HW238499   5.648   1.118   7.575  0.0206 -0.1445  1.4653
11849SOL     OW38500   3.844   0.481   7.685 -0.6726  0.5848  0.8988
11849SOL    HW138501   3.926   0.434   7.698 -0.4314  1.3280  2.1463
11849SOL    HW238502   3.861   0.538   7.609 -1.1179 -1.5883 -0.9267
11850SOL     OW38503   2.861   0.011   7.452  0.1544  0.1959  0.1639
11850SOL    HW138504   2.853  -0.033   7.367 -0.6168 -0.8193  0.7431
11850SOL    HW238505   2.814   0.093   7.441  1.2077  0.6891 -0.7949
11851SOL     OW38506   0.774   4.294   5.273  0.0951  0.1059 -0.5240
11851SOL    HW138507   0.738   4.368   5.223  0.3888  0.0647 -0.8052
11851SOL    HW238508   0.766   4.320   5.364 -0.9182 -0.0298 -0.5624
11852SOL     OW38509   0.636   4.181   6.847 -0.1248 -0.2972  0.4317
11852SOL    HW138510   0.599   4.220   6.926 -0.0909  1.7031 -0.4762
11852SOL    HW238511   0.562   4.138   6.804 -0.8348  1.2348  0.0533
11853SOL     OW38512   0.110   3.745   3.557  0.5003 -0.1815  0.0930
11853SOL    HW138513   0.153   3.739   3.472 -0.6658  0.1596 -0.5396
11853SOL    HW238514   0.064   3.829   3.554 -0.5573 -0.7227  0.5694
11854SOL     OW38515   3.647   4.185   0.676 -0.4348  0.5941  0.0949
11854SOL    HW138516   3.609   4.097   0.676 -1.3416  0.9605  1.6098
11854SOL    HW238517   3.618   4.224   0.758  1.4676  1.6773  0.3123
11855SOL     OW38518   4.978   6.267   4.035  0.8697 -0.1992  0.0538
11855SOL    HW138519   4.996   6.343   3.980 -0.8743 -0.1459 -0.5110
11855SOL    HW238520   4.990   6.192   3.976 -0.2081 -0.1890 -0.1876
11856SOL     OW38521   3.666   5.000   4.275  0.3050 -0.0041 -0.1484
11856SOL    HW138522   3.623   4.930   4.323  1.7415 -1.1329 -0.4565
11856SOL    HW238523   3.739   5.026   4.331  0.6894  0.1874 -0.7338
11857SOL     OW38524   3.356   2.631   7.831  0.0014  0.1217  0.6393
11857SOL    HW138525   3.385   2.607   7.920 -1.5893 -2.4876  0.5430
11857SOL    HW238526   3.293   2.702   7.845  0.6070  0.5102  1.4894
11858SOL     OW38527   1.084   6.769   7.376 -0.0527  0.2260  0.3237
11858SOL    HW138528   1.136   6.775   7.457 -0.5661 -2.9737  1.0303
11858SOL    HW238529   0.993   6.768   7.406 -0.2593 -0.5487 -0.2939
11859SOL     OW38530   6.118   8.027   1.504 -0.6797  0.0820  0.5020
11859SOL    HW138531   6.119   8.040   1.409 -1.2965 -0.0739  0.4720
11859SOL    HW238532   6.138   8.113   1.540  1.9096 -0.3291  0.2125
11860SOL     OW38533   5.347   0.563   8.092  0.1569 -0.1207 -0.3552
11860SOL    HW138534   5.415   0.628   8.108 -1.4997  1.6677 -0.3372
11860SOL    HW238535   5.318   0.579   8.002 -0.1429 -0.9959 -0.4304
11861SOL     OW38536   2.789   3.606   3.928 -0.3105  0.0536  0.2075
11861SOL    HW138537   2.821   3.523   3.964  1.7561  0.3046 -0.8757
11861SOL    HW238538   2.771   3.586   3.836  1.1526  0.9887 -0.3114
11862SOL     OW38539   7.049   3.261   6.355  0.5589  0.4850  0.0962
11862SOL    HW138540   6.969   3.252   6.408 -0.2317 -0.9980 -1.2593
11862SOL    HW238541   7.025   3.324   6.287  0.3635 -0.3037 -0.5813
11863SOL     OW38542   4.030   7.836   4.508  0.4450 -0.2477 -0.1704
11863SOL    HW138543   3.964   7.900   4.484  1.3807  0.8444  0.0694
11863SOL    HW238544   4.002   7.802   4.593 -0.2932 -0.5035 -0.5108
11864SOL     OW38545   3.530   1.935   5.744  0.1737 -0.4474 -0.0456
11864SOL    HW138546   3.581   2.000   5.696  1.3340 -1.4377 -0.2107
11864SOL    HW238547   3.440   1.965   5.736  0.6952  1.3187  0.1863
11865SOL     OW38548   0.348   1.582   7.917 -0.3646 -0.1010  0.3856
11865SOL    HW138549   0.370   1.562   7.826 -0.7005  0.8158  0.0846
11865SOL    HW238550   0.417   1.542   7.969 -0.2518 -0.7617 -0.2670
11866SOL     OW38551   7.194   3.118   0.771 -0.5329  0.2461 -0.5460
11866SOL    HW138552   7.158   3.201   0.741 -1.6171 -0.0882 -0.1990
11866SOL    HW238553   7.120   3.073   0.812  0.4668 -0.1140  0.9348
11867SOL     OW38554   6.371   5.084   2.087  0.1818 -0.3850 -0.0379
11867SOL    HW138555   6.281   5.087   2.052 -0.0875  0.6605  0.6708
11867SOL    HW238556   6.399   5.176   2.086 -0.1789 -0.1089  3.2477
11868SOL     OW38557   1.277   7.624   3.291  0.7111 -0.1807  0.2362
11868SOL    HW138558   1.372   7.614   3.304  1.0500  0.6047 -1.3609
11868SOL    HW238559   1.268   7.648   3.199 -0.8286  2.5052  0.9820
11869SOL     OW38560   0.964   0.748   5.429  0.2172  0.0238 -0.0125
11869SOL    HW138561   0.915   0.828   5.410  0.1165 -0.0153  0.0833
11869SOL    HW238562   0.926   0.714   5.509  0.8452  0.3428  0.4295
11870SOL     OW38563   3.707   7.769   7.623  0.2100 -0.0345  0.3570
11870SOL    HW138564   3.779   7.710   7.645  1.1894  1.1796  0.4732
11870SOL    HW238565   3.666   7.788   7.707  1.0892  0.9475  0.5818
11871SOL     OW38566   3.231   4.311   5.429  0.5935  0.1207  0.0448
11871SOL    HW138567   3.313   4.330   5.474  0.6847  2.3613 -0.9629
11871SOL    HW238568   3.184   4.394   5.426 -0.1877 -0.2993 -2.3901
11872SOL     OW38569   5.887   3.477   5.312  0.6164 -0.5619 -0.7909
11872SOL    HW138570   5.922   3.566   5.305 -0.6563 -0.1312 -1.9165
11872SOL    HW238571   5.792   3.487   5.307  0.4737 -2.0487 -1.8358
11873SOL     OW38572   2.062   7.591   1.461 -0.0187 -0.3806 -0.5922
11873SOL    HW138573   1.992   7.571   1.522  0.5855  0.5979  0.4686
11873SOL    HW238574   2.110   7.509   1.451  0.4010 -0.3646  0.9861
11874SOL     OW38575   1.457   0.161   0.030 -0.3363  0.0552  0.1446
11874SOL    HW138576   1.479   0.072   0.057  0.3186 -0.3973 -1.7148
11874SOL    HW238577   1.387   0.150  -0.034  0.0809  0.8168 -0.4629
11875SOL     OW38578   3.583   3.754   2.366 -0.1469  0.1337 -0.0656
11875SOL    HW138579   3.595   3.660   2.350 -0.4602  0.5069 -3.0160
11875SOL    HW238580   3.672   3.789   2.368 -0.0582 -0.0970  0.0948
11876SOL     OW38581   5.947   5.556   4.505 -0.2608 -0.9058 -0.5711
11876SOL    HW138582   5.973   5.468   4.477 -0.5255 -1.1751  0.0114
11876SOL    HW238583   5.852   5.551   4.516 -0.2507 -0.6018 -0.3412
11877SOL     OW38584   4.809   5.862   2.856  0.4052  0.3082  0.0167
11877SOL    HW138585   4.743   5.913   2.902 -0.0729  0.2970 -0.6320
11877SOL    HW238586   4.761   5.822   2.783  0.9480 -0.3955  0.0339
11878SOL     OW38587   0.555   5.050   6.103  0.1347  0.8456 -0.1759
11878SOL    HW138588   0.496   5.066   6.177 -1.5003  0.3613 -1.3016
11878SOL    HW238589   0.558   5.134   6.057 -1.2633  0.4131 -1.1502
11879SOL     OW38590   4.748   3.413   1.592 -0.1030 -0.5302  0.1625
11879SOL    HW138591   4.763   3.319   1.602 -0.4981 -0.4237  2.0731
11879SOL    HW238592   4.833   3.448   1.563  0.0624 -1.4414 -0.5077
11880SOL     OW38593   7.058   1.804   6.678 -0.3543 -0.0942  0.5818
11880SOL    HW138594   6.967   1.801   6.649  0.1777 -2.1670 -1.1269
11880SOL    HW238595   7.054   1.786   6.772 -1.6965 -0.2150  0.5247
11881SOL     OW38596   6.495   4.764   6.746  0.1148  0.0343 -0.0185
11881SOL    HW138597   6.557   4.692   6.734 -0.6176 -0.4582 -0.9422
11881SOL    HW238598   6.427   4.749   6.680 -1.0958  0.4604  1.0866
11882SOL     OW38599   4.320   0.048   8.118  0.5567 -0.1953  0.0984
11882SOL    HW138600   4.306  -0.042   8.144  2.0384 -0.8607 -1.2113
11882SOL    HW238601   4.389   0.080   8.177 -0.1048  0.1584  0.6897
11883SOL     OW38602   4.685   2.072   1.225 -0.5644 -0.1547 -1.1734
11883SOL    HW138603   4.614   2.102   1.282  0.2382  0.2408 -0.3344
11883SOL    HW238604   4.733   2.009   1.279 -0.1873 -0.2912 -1.6657
11884SOL     OW38605   0.607   1.049   7.028 -0.3640 -0.6703  0.2056
11884SOL    HW138606   0.608   1.001   6.945 -1.8632 -1.7520  0.7676
11884SOL    HW238607   0.615   0.980   7.094  1.1990  0.2082  0.9780
11885SOL     OW38608   0.165   4.810   1.578 -0.4236  0.2390  0.5041
11885SOL    HW138609   0.087   4.789   1.629 -0.2577 -0.6812  0.4078
11885SOL    HW238610   0.235   4.816   1.643 -0.0993 -1.5208  0.3665
11886SOL     OW38611   3.674   3.085   5.875  0.1098  0.0306  0.2074
11886SOL    HW138612   3.632   3.163   5.910 -0.6793  1.2778 -3.1531
11886SOL    HW238613   3.765   3.112   5.860 -0.3218  0.6097 -1.5831
11887SOL     OW38614   2.020   6.178   0.688  0.6390 -0.4711  1.1534
11887SOL    HW138615   2.005   6.121   0.763 -1.1812  1.2537  2.1753
11887SOL    HW238616   2.045   6.262   0.726  1.0179  0.0665 -0.2291
11888SOL     OW38617   5.379   4.821   0.306  0.7766  0.2314 -0.4267
11888SOL    HW138618   5.420   4.847   0.389  1.0095 -1.3710 -0.0223
11888SOL    HW238619   5.302   4.878   0.299  0.3015 -0.1393  1.2882
11889SOL     OW38620   5.668   4.864   4.441  0.1739  0.6415 -0.0492
11889SOL    HW138621   5.620   4.794   4.397  0.0186  0.8220 -0.1677
11889SOL    HW238622   5.699   4.824   4.522  0.5645  0.2773 -0.3801
11890SOL     OW38623   4.621   1.683   3.319 -0.1475  0.1129  0.0287
11890SOL    HW138624   4.557   1.751   3.297 -0.4898  0.2616  1.4251
11890SOL    HW238625   4.634   1.636   3.236 -2.9631 -0.6718 -0.0888
11891SOL     OW38626   3.631   1.863   5.045  0.3998 -0.3487  0.6748
11891SOL    HW138627   3.644   1.945   5.093 -1.2807  0.1264  0.3801
11891SOL    HW238628   3.588   1.805   5.108  0.7204 -0.6895  0.5839
11892SOL     OW38629   2.292   7.745   3.843  0.3228 -0.0767  1.0300
11892SOL    HW138630   2.272   7.816   3.781 -0.6325 -0.2610  1.1124
11892SOL    HW238631   2.222   7.681   3.830 -0.4405  0.3050  2.9347
11893SOL     OW38632   6.644   3.153   0.544  0.5426  0.5153  0.1735
11893SOL    HW138633   6.690   3.143   0.461 -0.8212 -0.2508 -0.5341
11893SOL    HW238634   6.555   3.179   0.519 -0.0002 -0.1057  1.3601
11894SOL     OW38635   1.060   4.853   2.413  0.2685 -0.3862  0.1209
11894SOL    HW138636   1.018   4.866   2.498  0.0491 -1.3474  0.1667
11894SOL    HW238637   1.058   4.758   2.400  0.6205 -0.2700 -0.7948
11895SOL     OW38638   2.217   6.854   2.354  0.0994  0.5904  0.0060
11895SOL    HW138639   2.220   6.758   2.344  1.9402  0.6361 -0.3159
11895SOL    HW238640   2.184   6.868   2.443 -0.6955 -0.3241 -0.1315
11896SOL     OW38641   2.066   7.784   0.412 -0.2697  0.1226 -0.2173
11896SOL    HW138642   2.035   7.695   0.399 -1.0787  0.3968 -0.2221
11896SOL    HW238643   2.141   7.775   0.471 -0.8166 -0.4822  0.3944
11897SOL     OW38644   2.066   2.667   0.920 -0.1336  0.0136  0.2236
11897SOL    HW138645   1.973   2.685   0.909  0.1732  0.5635 -1.9761
11897SOL    HW238646   2.103   2.676   0.832  2.0393  0.0449  1.0688
11898SOL     OW38647   0.511   4.297   7.049  0.5380 -0.1046  0.2660
11898SOL    HW138648   0.545   4.386   7.059  1.1226 -0.4003  0.9464
11898SOL    HW238649   0.505   4.263   7.138 -1.4855 -0.0994  0.1788
11899SOL     OW38650   5.206   2.959   4.573 -0.4990 -0.2386 -0.0209
11899SOL    HW138651   5.175   2.961   4.663  0.0500 -0.2522  0.1730
11899SOL    HW238652   5.302   2.956   4.581 -0.3661  1.5084 -0.6024
11900SOL     OW38653   5.430   6.730   1.293 -0.3826 -0.0049 -0.0328
11900SOL    HW138654   5.437   6.762   1.383 -0.6578 -0.3374  0.1073
11900SOL    HW238655   5.336   6.730   1.274 -0.2674  1.1763 -0.7278
11901SOL     OW38656   3.566   7.239   3.216 -0.4270 -0.1494  0.4459
11901SOL    HW138657   3.655   7.226   3.247 -0.3795 -0.3311  0.2400
11901SOL    HW238658   3.520   7.278   3.290 -0.0786  0.3161  0.4170
11902SOL     OW38659   6.041   1.940   0.101  0.1723  0.1962 -0.3322
11902SOL    HW138660   5.972   1.969   0.042  0.1569  0.2691 -0.2787
11902SOL    HW238661   6.118   1.990   0.073 -0.6067  2.9348  1.9266
11903SOL     OW38662   4.174   4.483   0.902  0.5118 -0.2893  0.4018
11903SOL    HW138663   4.138   4.412   0.956 -0.3758  0.3156  0.6260
11903SOL    HW238664   4.269   4.475   0.913  0.4172 -1.2676  0.6460
11904SOL     OW38665   5.276   5.295   6.365 -0.1218  0.2823  0.2513
11904SOL    HW138666   5.183   5.318   6.363 -0.7155 -1.5003  2.9426
11904SOL    HW238667   5.278   5.200   6.368  1.9663  0.1153 -2.3987
11905SOL     OW38668   4.465   5.676   4.271  0.0288 -0.0129  0.3654
11905SOL    HW138669   4.424   5.751   4.228  1.4524  0.5889  0.0055
11905SOL    HW238670   4.462   5.606   4.205  1.1908  0.5754 -0.3516
11906SOL     OW38671   0.051   4.751   6.372  0.1004  0.5939  0.0324
11906SOL    HW138672   0.074   4.670   6.416 -0.1814  0.3847 -0.2001
11906SOL    HW238673   0.003   4.802   6.438 -0.8035  0.0504 -0.1881
11907SOL     OW38674   5.848   0.030   0.707  0.2247 -0.5647  0.4911
11907SOL    HW138675   5.769   0.079   0.729 -0.0755 -1.4552  1.4830
11907SOL    HW238676   5.918   0.075   0.754  0.3954  0.4102 -0.6302
11908SOL     OW38677   6.468   4.842   7.674  0.3409  0.2411  0.1647
11908SOL    HW138678   6.538   4.835   7.739 -0.5949 -0.2571  1.1511
11908SOL    HW238679   6.410   4.910   7.708 -0.9051 -0.9953  0.6008
11909SOL     OW38680   4.806   6.467   0.707 -0.7919 -0.2708 -0.5650
11909SOL    HW138681   4.788   6.473   0.801 -0.3250 -0.4189 -0.4665
11909SOL    HW238682   4.731   6.511   0.666 -1.0498 -0.2995 -0.1294
11910SOL     OW38683   3.701   5.522   5.221  0.5352 -0.2445 -0.1762
11910SOL    HW138684   3.736   5.528   5.310 -0.3233  0.8432  0.1128
11910SOL    HW238685   3.691   5.614   5.194 -0.9466 -0.5410 -0.6921
11911SOL     OW38686   2.120   0.520   2.130  0.9030  0.2274 -0.2212
11911SOL    HW138687   2.067   0.530   2.051  0.4379 -2.3908 -0.3331
11911SOL    HW238688   2.182   0.451   2.109  2.5045  1.2574  0.8945
11912SOL     OW38689   3.799   3.047   6.140  0.4581  0.2167  0.4250
11912SOL    HW138690   3.748   3.030   6.061  0.5913  0.4949  0.2754
11912SOL    HW238691   3.735   3.047   6.211  0.1133  1.4313  0.1303
11913SOL     OW38692   5.153   4.883   6.900  0.0141 -0.0581 -0.7542
11913SOL    HW138693   5.199   4.799   6.896  1.0262  0.3482  1.1236
11913SOL    HW238694   5.080   4.868   6.960  0.7137  0.5841  0.2986
11914SOL     OW38695   7.982   6.909   4.165  0.4516  0.2634  0.1505
11914SOL    HW138696   7.952   6.873   4.081  0.0505  1.5704 -0.2961
11914SOL    HW238697   7.905   6.951   4.201 -0.2313 -2.7339  2.6477
11915SOL     OW38698   5.206   1.825   2.630 -0.3481 -0.0096 -0.0239
11915SOL    HW138699   5.131   1.823   2.689 -1.5546  0.4517 -1.4902
11915SOL    HW238700   5.253   1.905   2.654  0.4122 -0.9081  1.7127
11916SOL     OW38701   4.374   5.007   7.737 -0.4256  0.1900 -0.3835
11916SOL    HW138702   4.302   5.044   7.686  0.4373  0.6681 -1.2992
11916SOL    HW238703   4.332   4.965   7.811 -1.9607 -2.5733 -2.6211
11917SOL     OW38704   6.347   0.234   5.384  0.3674  0.0254 -0.1581
11917SOL    HW138705   6.337   0.315   5.333 -0.9989 -0.2797 -0.4120
11917SOL    HW238706   6.435   0.203   5.362  0.7398  1.1934 -0.4063
11918SOL     OW38707   0.480   2.440   0.722 -0.1639  0.2463 -0.3248
11918SOL    HW138708   0.458   2.370   0.784  0.2964  1.8165  1.7170
11918SOL    HW238709   0.442   2.519   0.760  0.9718  1.4430 -1.5731
11919SOL     OW38710   4.298   4.001   3.045  0.3774 -0.0936  0.1100
11919SOL    HW138711   4.203   3.993   3.059  0.2419  1.2447  0.0621
11919SOL    HW238712   4.308   4.080   2.992  1.4874 -0.5828 -0.4544
11920SOL     OW38713   2.715   1.172   3.867 -0.5624  0.1168 -0.5203
11920SOL    HW138714   2.769   1.094   3.862  2.3804  2.0110 -0.8782
11920SOL    HW238715   2.665   1.162   3.948  0.6280 -1.5720  0.0583
11921SOL     OW38716   3.699   3.459   4.830  0.0265  0.0090 -0.0381
11921SOL    HW138717   3.731   3.467   4.740 -1.3747 -2.1818 -0.7930
11921SOL    HW238718   3.769   3.413   4.876 -0.4245 -1.4141 -0.7437
11922SOL     OW38719   5.715   1.177   7.863  0.4364  0.4358  0.0899
11922SOL    HW138720   5.690   1.167   7.771 -0.4130 -0.4397  0.3889
11922SOL    HW238721   5.708   1.089   7.899  0.8373  0.7565  0.9760
11923SOL     OW38722   3.084   7.204   4.016 -0.7105 -0.8794 -0.0340
11923SOL    HW138723   3.119   7.158   4.092 -1.3172 -1.4551 -0.0921
11923SOL    HW238724   3.149   7.271   3.996 -0.1120 -1.3079  0.4419
11924SOL     OW38725   6.858   7.883   4.032  0.0597 -0.4363  0.1735
11924SOL    HW138726   6.886   7.967   4.068  0.2918 -0.9541  1.2445
11924SOL    HW238727   6.786   7.905   3.973 -0.0912  0.4899  0.6827
11925SOL     OW38728   4.142   5.668   0.034 -0.5216  0.1855  0.2340
11925SOL    HW138729   4.113   5.583   0.066  1.3377 -0.6234 -0.1115
11925SOL    HW238730   4.150   5.723   0.112 -2.9375  0.4946  0.3402
11926SOL     OW38731   7.280   2.390   1.239 -1.0806  0.6292 -0.2580
11926SOL    HW138732   7.290   2.435   1.155  0.3328  0.7829 -0.0233
11926SOL    HW238733   7.254   2.301   1.215  2.6822 -0.4025 -1.1280
11927SOL     OW38734   4.930   2.045   3.874  0.2968  0.2849 -0.1427
11927SOL    HW138735   4.908   2.118   3.932  2.6431 -0.0439  1.2916
11927SOL    HW238736   4.850   2.029   3.824 -1.2186  1.8786  1.6177
11928SOL     OW38737   6.881   3.052   2.927 -0.6522 -0.0134 -0.1207
11928SOL    HW138738   6.893   2.960   2.952 -0.4158  0.6378  2.4712
11928SOL    HW238739   6.804   3.081   2.977 -0.3487  1.3494 -0.4034
11929SOL     OW38740   6.414   3.675   5.487 -0.1042  0.4514  0.1369
11929SOL    HW138741   6.506   3.657   5.502  0.1654  0.5565 -1.3165
11929SOL    HW238742   6.368   3.600   5.524  0.4650  0.9419  1.9401
11930SOL     OW38743   7.292   4.513   4.443  0.2307 -0.3617  0.1106
11930SOL    HW138744   7.311   4.419   4.432 -1.3392 -0.8337  1.2317
11930SOL    HW238745   7.222   4.530   4.380  0.0975 -0.0704  0.3411
11931SOL     OW38746   5.973   6.464   4.222  0.4029  0.1015  0.7759
11931SOL    HW138747   5.913   6.537   4.233  1.5015  0.9143  1.6461
11931SOL    HW238748   5.949   6.401   4.290  0.1609  0.1510  0.7352
11932SOL     OW38749   3.167   2.430   6.738 -0.2567 -0.1435 -0.1959
11932SOL    HW138750   3.185   2.361   6.801 -1.0929 -0.9541 -0.8272
11932SOL    HW238751   3.103   2.392   6.678  0.5656  0.5864 -1.5733
11933SOL     OW38752   1.019   6.528   4.497  0.1804 -0.3997  0.3028
11933SOL    HW138753   1.086   6.475   4.454  1.0227  0.6395  0.2762
11933SOL    HW238754   1.035   6.515   4.590  0.9054  0.3956  0.3051
11934SOL     OW38755   4.447   0.670   4.207  0.3526  0.0064 -0.5940
11934SOL    HW138756   4.502   0.717   4.269 -2.5745  0.7894  1.6055
11934SOL    HW238757   4.406   0.738   4.153 -0.3834 -0.3373 -0.4870
11935SOL     OW38758   1.743   0.185   0.001 -0.4941 -0.6209  0.0700
11935SOL    HW138759   1.672   0.244   0.026  0.1071  0.6781 -1.2014
11935SOL    HW238760   1.745   0.120   0.071 -1.9039  0.2183  0.9355
11936SOL     OW38761   7.681   7.690   5.775 -0.2494  0.4981 -0.1186
11936SOL    HW138762   7.731   7.772   5.774  0.0628  0.3095 -0.8273
11936SOL    HW238763   7.740   7.625   5.739 -1.5714  0.6525 -2.8610
11937SOL     OW38764   7.209   6.287   4.482 -0.3007  0.8199  0.6926
11937SOL    HW138765   7.235   6.260   4.394  0.9692  1.6268  0.8063
11937SOL    HW238766   7.136   6.228   4.504  0.5020 -0.5613 -0.1978
11938SOL     OW38767   7.653   7.339   7.070 -0.6255 -0.4197 -0.0228
11938SOL    HW138768   7.569   7.348   7.025 -0.8468 -0.7575  0.3140
11938SOL    HW238769   7.689   7.427   7.071 -0.8782 -0.3067 -0.3542
11939SOL     OW38770   0.296   4.453   6.324 -0.0686  0.4315  0.3643
11939SOL    HW138771   0.329   4.477   6.410  0.6691  0.3516  0.1035
11939SOL    HW238772   0.285   4.358   6.327  0.5501  0.3509  0.1682
11940SOL     OW38773   4.221   7.696   7.019  0.4714  0.7840  0.5101
11940SOL    HW138774   4.145   7.720   6.966 -0.6985 -0.5193  1.5193
11940SOL    HW238775   4.225   7.600   7.014  2.9718  0.8556 -0.7163
11941SOL     OW38776   0.796   4.263   4.630 -0.0882  0.0223  0.5546
11941SOL    HW138777   0.768   4.343   4.676 -0.8735 -0.4899  0.9859
11941SOL    HW238778   0.878   4.289   4.586  1.2785  0.2864  3.0348
11942SOL     OW38779   1.259   7.323   3.114  0.0373 -0.4402 -0.1524
11942SOL    HW138780   1.326   7.265   3.078 -0.1999 -0.6793 -0.2147
11942SOL    HW238781   1.270   7.316   3.209  0.6799  0.2102 -0.1686
11943SOL     OW38782   3.966   6.676   0.565  0.4754  0.6402  0.3566
11943SOL    HW138783   3.987   6.749   0.623  0.0917  0.4180  0.7872
11943SOL    HW238784   3.891   6.706   0.515 -0.0225  0.3492  0.9166
11944SOL     OW38785   3.909   5.748   5.555  0.1761 -0.1799  0.3280
11944SOL    HW138786   3.988   5.768   5.604 -0.0419 -0.3790  0.7601
11944SOL    HW238787   3.939   5.692   5.483  0.3692 -0.5863  0.7222
11945SOL     OW38788   5.158   0.936   2.458  0.1021 -0.7751  0.3800
11945SOL    HW138789   5.193   0.850   2.480 -1.9063 -1.2490  2.0744
11945SOL    HW238790   5.109   0.921   2.377  3.1335 -0.2221 -1.6928
11946SOL     OW38791   4.387   4.122   3.981  0.4279 -0.3427 -0.6008
11946SOL    HW138792   4.350   4.050   4.031 -0.4955  0.9391  0.6187
11946SOL    HW238793   4.464   4.083   3.937  0.3446 -1.8839  0.5278
11947SOL     OW38794   1.330   2.381   7.494 -0.1726 -0.2205 -0.5410
11947SOL    HW138795   1.354   2.433   7.571 -1.2038 -1.3334  0.5681
11947SOL    HW238796   1.243   2.412   7.470 -0.2250 -0.5008 -0.7140
11948SOL     OW38797   6.200   4.856   7.285  0.1256 -0.6942 -0.1427
11948SOL    HW138798   6.201   4.889   7.195  0.7670  0.5484  0.2911
11948SOL    HW238799   6.281   4.806   7.293  0.7228  0.3017  0.1226
11949SOL     OW38800   6.654   4.377   5.986  0.0960 -0.1221 -0.0449
11949SOL    HW138801   6.720   4.416   6.043  1.2483 -1.5238 -0.3419
11949SOL    HW238802   6.692   4.293   5.960 -1.3369 -0.4744 -1.1401
11950SOL     OW38803   7.151   3.389   4.248  0.0846  0.1080  0.1003
11950SOL    HW138804   7.192   3.318   4.198 -0.9535 -1.8351  1.8595
11950SOL    HW238805   7.057   3.378   4.232 -0.0918  1.1506  0.3597
11951SOL     OW38806   0.463   0.880   3.755  0.3886  0.0689  0.0681
11951SOL    HW138807   0.549   0.898   3.793  1.0247 -0.0595 -1.2583
11951SOL    HW238808   0.481   0.824   3.679 -0.4920  2.5183 -2.1204
11952SOL     OW38809   8.124   6.008   4.768  0.2956 -0.8585  0.2510
11952SOL    HW138810   8.155   6.027   4.857 -1.6918 -1.8500  1.2374
11952SOL    HW238811   8.029   6.012   4.775  0.0938  0.1830 -2.1448
11953SOL     OW38812   6.170   3.312   6.252  0.3433 -0.0333 -0.0844
11953SOL    HW138813   6.192   3.232   6.301 -2.4233  0.6846  2.6575
11953SOL    HW238814   6.254   3.350   6.229  1.8804 -1.2039  2.9990
11954SOL     OW38815   4.980   0.836   6.161  1.0440  0.1268  0.1492
11954SOL    HW138816   5.038   0.769   6.199  0.1345 -2.0800 -2.1045
11954SOL    HW238817   5.011   0.845   6.071 -0.3801  1.0003 -0.2691
11955SOL     OW38818   7.163   6.284   0.451  0.1828 -0.0317  0.3942
11955SOL    HW138819   7.235   6.254   0.507  1.2367 -2.2528 -1.9712
11955SOL    HW238820   7.204   6.349   0.394 -0.5309  1.1138  1.1460
11956SOL     OW38821   1.625   6.368   1.508 -0.3968 -0.2860 -0.2335
11956SOL    HW138822   1.588   6.420   1.437  1.4057 -0.0127 -1.0459
11956SOL    HW238823   1.665   6.292   1.465  1.5823  0.3692  0.3073
11957SOL     OW38824   0.216   6.325   0.427  0.1156  0.3297  0.7496
11957SOL    HW138825   0.220   6.285   0.340 -0.2423 -0.5856  1.1416
11957SOL    HW238826   0.281   6.277   0.479  0.5969  1.1222  0.8950
11958SOL     OW38827   6.410   4.148   0.901 -0.6448  0.0813  0.0142
11958SOL    HW138828   6.419   4.147   0.996  0.2642 -0.8130 -0.0737
11958SOL    HW238829   6.499   4.143   0.867 -0.9829 -0.0851 -0.8928
11959SOL     OW38830   3.622   6.385   7.253  0.3528 -0.1146  0.2192
11959SOL    HW138831   3.621   6.338   7.170 -0.8013 -0.8708  0.6462
11959SOL    HW238832   3.706   6.432   7.253  0.8095 -0.9006 -0.9120
11960SOL     OW38833   3.818   2.042   5.199 -0.2839 -0.5973  0.1268
11960SOL    HW138834   3.844   2.029   5.290 -0.3564 -2.1734 -0.0545
11960SOL    HW238835   3.865   2.121   5.172  0.8131 -0.8794  1.1215
11961SOL     OW38836   3.954   2.176   0.950 -0.2588 -0.0847 -0.0035
11961SOL    HW138837   3.933   2.260   0.909  1.5393  0.0794 -0.6689
11961SOL    HW238838   3.906   2.112   0.898 -0.6282  0.4181 -0.2953
11962SOL     OW38839   4.730   5.725   4.124 -0.0896 -0.5290  0.1259
11962SOL    HW138840   4.644   5.699   4.157 -0.2975 -1.0590 -0.7969
11962SOL    HW238841   4.713   5.755   4.034  0.3777  1.3396  0.6091
11963SOL     OW38842   6.755   4.490   1.570 -0.0110 -0.1376 -0.0544
11963SOL    HW138843   6.703   4.441   1.633  0.9432 -1.0691  0.0399
11963SOL    HW238844   6.839   4.505   1.614 -0.7313  2.9415  0.5203
11964SOL     OW38845   1.575   3.006   4.305  0.1506  0.8288  0.0286
11964SOL    HW138846   1.565   3.038   4.395  0.8492 -0.3177  0.5441
11964SOL    HW238847   1.619   2.921   4.315 -1.0690 -0.0070 -1.2926
11965SOL     OW38848   4.173   4.748   5.494 -0.1340  0.0609 -0.3218
11965SOL    HW138849   4.154   4.729   5.586  0.7697 -0.1146 -0.1635
11965SOL    HW238850   4.159   4.665   5.449 -0.3698  0.0932 -0.3080
11966SOL     OW38851   6.936   4.145   4.713 -0.2527  0.6691 -0.6242
11966SOL    HW138852   6.934   4.239   4.732  0.1206  0.4678  0.4987
11966SOL    HW238853   6.855   4.112   4.752 -0.0346  0.4175 -0.3839
11967SOL     OW38854   7.440   5.950   5.290  0.1476 -0.0661 -0.4035
11967SOL    HW138855   7.476   6.039   5.284 -0.4606  0.3673  1.6451
11967SOL    HW238856   7.346   5.962   5.282 -0.1160 -0.2330  1.8476
11968SOL     OW38857   5.142   2.323   0.668 -0.2849 -0.4452  0.0339
11968SOL    HW138858   5.106   2.373   0.741 -0.1322 -0.5042  0.1510
11968SOL    HW238859   5.077   2.255   0.650 -0.4504 -0.2583 -0.0661
11969SOL     OW38860   3.124   6.485   2.284  0.3265 -0.1277 -0.0235
11969SOL    HW138861   3.043   6.495   2.334  0.5973  2.2770  0.0490
11969SOL    HW238862   3.096   6.495   2.192  0.4356 -0.0903 -0.0525
11970SOL     OW38863   2.510   7.917   7.182 -0.5666  0.2677 -0.4488
11970SOL    HW138864   2.531   7.825   7.165  1.3486  0.9252 -2.0152
11970SOL    HW238865   2.444   7.939   7.116 -0.2021  0.3146 -0.7970
11971SOL     OW38866   5.656   2.085   6.351 -0.3844 -0.7450  0.2363
11971SOL    HW138867   5.645   1.992   6.331 -0.1877 -0.8453  0.5782
11971SOL    HW238868   5.697   2.086   6.438  2.2169 -0.3861 -0.9167
11972SOL     OW38869   2.592   5.959   3.979 -0.0759  0.0723  0.0222
11972SOL    HW138870   2.607   6.031   4.040 -1.9316  1.6674 -1.2761
11972SOL    HW238871   2.531   5.901   4.025  1.3760 -0.7136  1.0457
11973SOL     OW38872   2.045   0.585   7.735 -0.2847 -0.1239 -0.3562
11973SOL    HW138873   1.975   0.535   7.777 -0.3846  0.8724  0.6955
11973SOL    HW238874   2.110   0.600   7.804  0.7560 -0.6055 -1.1875
11974SOL     OW38875   0.940   5.718   0.088  0.2847  0.5638 -0.6265
11974SOL    HW138876   0.847   5.713   0.110  0.3267 -0.7510 -0.6756
11974SOL    HW238877   0.943   5.711  -0.008  0.3582  2.1346 -0.7635
11975SOL     OW38878   7.729   6.629   0.835 -0.3862 -0.5197 -0.0551
11975SOL    HW138879   7.816   6.648   0.801  0.2484 -3.0752 -0.0290
11975SOL    HW238880   7.692   6.715   0.855  1.0845  0.8265 -2.5441
11976SOL     OW38881   0.850   6.976   6.268 -0.5229 -0.1143 -0.0077
11976SOL    HW138882   0.925   6.976   6.208  1.5792 -1.4916  2.4014
11976SOL    HW238883   0.784   6.922   6.225  0.9525 -1.1467 -1.0662
11977SOL     OW38884   2.107   3.184   5.775  0.3372 -0.0593  0.2624
11977SOL    HW138885   2.196   3.215   5.786  1.1241 -1.4927 -1.5622
11977SOL    HW238886   2.110   3.091   5.797 -0.3729 -0.4557 -1.2056
11978SOL     OW38887   6.220   6.258   0.983  0.6264  0.5339  0.5999
11978SOL    HW138888   6.211   6.263   1.078  0.8978  1.2523  0.5970
11978SOL    HW238889   6.164   6.328   0.950  2.0336  1.5846  0.3450
11979SOL     OW38890   2.270   2.152   2.213 -0.4553  0.3195  0.0466
11979SOL    HW138891   2.258   2.221   2.279  2.3066  2.2694 -1.2908
11979SOL    HW238892   2.214   2.178   2.140  1.6982  2.1538 -1.0671
11980SOL     OW38893   5.012   6.030   7.115 -0.0128 -0.3642  0.1689
11980SOL    HW138894   5.088   6.067   7.159  0.2319 -0.9031  0.2133
11980SOL    HW238895   4.988   5.954   7.168  0.0675 -0.8145 -0.4326
11981SOL     OW38896   2.427   7.034   3.031  0.0239  0.1177  0.0514
11981SOL    HW138897   2.439   6.944   3.064 -4.1453 -0.8424 -0.4248
11981SOL    HW238898   2.414   7.086   3.110 -1.9454 -0.6630  0.3159
11982SOL     OW38899   3.155   0.046   4.556 -0.3040  0.7351  0.7615
11982SOL    HW138900   3.113   0.126   4.586 -1.4435  0.1662  0.7325
11982SOL    HW238901   3.249   0.066   4.559 -0.5652  2.0726  0.7137
11983SOL     OW38902   0.511   4.826   4.113  0.2370 -0.4292  0.4982
11983SOL    HW138903   0.490   4.755   4.054 -0.1367 -0.1123  0.2445
11983SOL    HW238904   0.589   4.867   4.076 -1.0015  0.8745 -0.7805
11984SOL     OW38905   6.786   3.890   7.934  0.5315  0.3802 -0.0308
11984SOL    HW138906   6.725   3.850   7.997 -0.4377  1.3568 -0.3333
11984SOL    HW238907   6.759   3.854   7.849  1.7442 -0.8186  0.0599
11985SOL     OW38908   6.455   5.332   3.561  0.2393 -0.6519  0.3929
11985SOL    HW138909   6.372   5.328   3.514  0.8110 -1.3037 -0.5943
11985SOL    HW238910   6.433   5.371   3.646 -1.1506 -1.2754  0.3398
11986SOL     OW38911   3.469   8.017   1.601 -0.2979  0.1810 -0.2624
11986SOL    HW138912   3.523   8.051   1.530  0.1454 -1.4119 -0.7241
11986SOL    HW238913   3.520   8.035   1.680  0.3468 -0.2214 -0.5817
11987SOL     OW38914   2.843   5.759   6.815  0.1728 -0.6564  0.0337
11987SOL    HW138915   2.827   5.745   6.908  1.0088 -1.7368  0.0331
11987SOL    HW238916   2.930   5.799   6.811  1.0821 -2.5677 -0.3602
11988SOL     OW38917   2.204   0.501   0.827  0.5712 -0.9061  0.4055
11988SOL    HW138918   2.214   0.441   0.901  0.7753 -2.3118 -0.7403
11988SOL    HW238919   2.111   0.498   0.805  0.6862 -1.2828 -0.0399
11989SOL     OW38920   4.780   6.831   4.749 -0.5529 -0.2423 -0.1412
11989SOL    HW138921   4.689   6.838   4.720  0.0582  1.1875 -1.9215
11989SOL    HW238922   4.775   6.796   4.838 -2.8947  0.9782  0.2675
11990SOL     OW38923   4.128   7.692   3.293  0.6482 -0.2421 -0.4394
11990SOL    HW138924   4.156   7.631   3.361 -0.0912 -0.6162 -0.4565
11990SOL    HW238925   4.104   7.772   3.340  0.4147 -0.4021 -0.2830
11991SOL     OW38926   7.081   7.501   4.951  0.5156 -0.2900 -0.1405
11991SOL    HW138927   7.067   7.408   4.935 -1.1689 -0.0187 -0.4362
11991SOL    HW238928   7.156   7.524   4.896  0.0585 -1.1761 -1.1828
11992SOL     OW38929   4.772   6.417   3.807 -0.1406  0.2042 -0.5525
11992SOL    HW138930   4.736   6.403   3.895  0.3770  0.4150 -0.3037
11992SOL    HW238931   4.757   6.334   3.762 -0.1635 -0.0013 -0.1744
11993SOL     OW38932   0.226   2.191   0.189 -0.0566 -0.4674 -0.6967
11993SOL    HW138933   0.214   2.271   0.241 -0.9240 -0.6489 -0.5954
11993SOL    HW238934   0.158   2.196   0.122 -1.9735 -2.4023  0.9675
11994SOL     OW38935   7.543   0.807   6.804 -0.1464  0.1506 -0.6149
11994SOL    HW138936   7.488   0.861   6.746 -0.0993  0.9969  0.1018
11994SOL    HW238937   7.500   0.812   6.889  0.4550 -0.0555 -0.2929
11995SOL     OW38938   3.106   5.915   8.048 -0.1901  0.0484  0.0783
11995SOL    HW138939   3.084   5.961   7.967  0.2713 -2.0203 -1.2933
11995SOL    HW238940   3.198   5.890   8.037  0.0487  0.2229  1.5107
11996SOL     OW38941   6.916   0.020   4.089 -0.9077  0.4561  0.1655
11996SOL    HW138942   6.879   0.072   4.018 -0.2264  0.5007 -0.1677
11996SOL    HW238943   6.995   0.067   4.115 -0.3582 -0.3236 -0.0383
11997SOL     OW38944   1.139   3.360   2.464  0.2048 -0.0933  0.3790
11997SOL    HW138945   1.095   3.443   2.445 -2.4488 -1.2609  1.0382
11997SOL    HW238946   1.199   3.381   2.536 -0.8047  1.1485  0.8912
11998SOL     OW38947   0.211   5.649   6.506 -0.2101 -0.0285  0.2510
11998SOL    HW138948   0.137   5.703   6.478  0.5828 -0.4733 -3.1955
11998SOL    HW238949   0.185   5.560   6.484  1.0943 -0.2334 -0.5613
11999SOL     OW38950   3.572   6.651   1.051 -0.9584  0.6223  0.5150
11999SOL    HW138951   3.641   6.599   1.009  0.1987  1.7827  0.8911
11999SOL    HW238952   3.526   6.693   0.979 -0.8280  0.3766  0.2871
12000SOL     OW38953   8.066   5.840   2.924 -0.0813 -0.0716  0.1434
12000SOL    HW138954   7.979   5.875   2.942  0.4218  1.4820 -0.2078
12000SOL    HW238955   8.066   5.822   2.830  0.1678  0.5727  0.0123
12001SOL     OW38956   6.004   0.660   0.154  0.2653  0.5541  0.5143
12001SOL    HW138957   5.984   0.575   0.114  0.0574  0.9791 -0.3211
12001SOL    HW238958   6.098   0.658   0.168  0.3281  0.3400  0.0987
12002SOL     OW38959   1.711   1.134   3.174 -0.3361  0.0682  0.6869
12002SOL    HW138960   1.727   1.134   3.080 -1.0032  2.4272  0.5031
12002SOL    HW238961   1.794   1.164   3.212  0.3417 -2.0501  1.0148
12003SOL     OW38962   4.741   7.581   2.335  0.2796 -0.0841 -0.1095
12003SOL    HW138963   4.777   7.537   2.259 -0.8949 -1.8179  0.2928
12003SOL    HW238964   4.646   7.579   2.323  0.0945  0.1793  1.0862
12004SOL     OW38965   4.564   7.822   4.734 -0.3213 -0.1995  0.3916
12004SOL    HW138966   4.639   7.874   4.764 -0.3990 -0.3991  0.9441
12004SOL    HW238967   4.591   7.787   4.649 -0.1721  0.5334  0.1312
12005SOL     OW38968   5.358   8.035   0.544 -0.2319  0.0962  0.1679
12005SOL    HW138969   5.280   8.087   0.524 -0.3609 -0.3273 -0.4560
12005SOL    HW238970   5.383   7.996   0.461  0.4409 -0.0591  0.4373
12006SOL     OW38971   1.139   1.356   6.699  0.1181 -0.2974 -0.5145
12006SOL    HW138972   1.055   1.380   6.736 -0.5333 -0.5986 -1.7225
12006SOL    HW238973   1.137   1.391   6.610  1.0408 -0.7888 -0.7444
12007SOL     OW38974   4.881   3.949   3.265 -0.1042  0.4892 -0.4161
12007SOL    HW138975   4.913   4.019   3.322  1.2222 -0.3348 -0.0861
12007SOL    HW238976   4.960   3.916   3.222 -0.4182 -1.8892  0.6883
12008SOL     OW38977   3.088   0.238   5.027  0.0230 -0.1061  0.6720
12008SOL    HW138978   3.155   0.178   4.996  0.9984  1.9624 -1.5760
12008SOL    HW238979   3.135   0.299   5.084  0.0888  1.1557 -0.6559
12009SOL     OW38980   0.142   2.092   5.773 -0.0408 -0.5932 -0.0031
12009SOL    HW138981   0.218   2.139   5.737 -1.0655  0.8324 -0.4184
12009SOL    HW238982   0.102   2.050   5.697  0.3091 -1.3195  0.2112
12010SOL     OW38983   6.304   2.176   2.819 -0.1823  0.1135 -0.5420
12010SOL    HW138984   6.250   2.097   2.821  1.8494 -1.3352  0.3487
12010SOL    HW238985   6.341   2.178   2.730 -1.1311  0.7396 -0.9378
12011SOL     OW38986   4.395   5.716   5.761  0.2751  0.5098 -0.5957
12011SOL    HW138987   4.392   5.644   5.823 -1.0592  0.5013 -0.6355
12011SOL    HW238988   4.395   5.795   5.816 -0.1586  0.4945 -0.5718
12012SOL     OW38989   1.692   4.742   7.986  0.2906 -0.1820 -0.4354
12012SOL    HW138990   1.668   4.691   8.063 -0.4962  0.3022 -0.3415
12012SOL    HW238991   1.655   4.829   8.003 -0.0097 -0.1055 -1.4112
12013SOL     OW38992   0.207   5.259   3.111 -0.3049  1.0530 -0.2989
12013SOL    HW138993   0.286   5.293   3.153 -0.2551  0.1350  0.3880
12013SOL    HW238994   0.134   5.295   3.162 -0.2756  0.7840 -0.0612
12014SOL     OW38995   5.440   2.939   0.004  0.0026 -0.6698 -0.1409
12014SOL    HW138996   5.514   2.979  -0.042  0.2441 -1.7023 -0.6904
12014SOL    HW238997   5.373   3.007   0.005  0.6614 -0.0010 -0.3891
12015SOL     OW38998   1.859   4.367   6.752  0.2762 -0.0570 -0.5554
12015SOL    HW138999   1.891   4.446   6.708  1.8935 -0.2286  0.2574
12015SOL    HW239000   1.811   4.320   6.684  2.5660 -0.2335 -2.1662
12016SOL     OW39001   2.134   0.113   2.512 -0.0305 -0.5930  0.2445
12016SOL    HW139002   2.067   0.080   2.572  0.7445 -2.2149  0.2536
12016SOL    HW239003   2.084   0.155   2.442 -0.9960 -0.3003  1.0802
12017SOL     OW39004   3.914   7.859   4.176  0.3593 -0.0253  0.1254
12017SOL    HW139005   3.838   7.898   4.220  1.9224  1.9055  1.2573
12017SOL    HW239006   3.906   7.886   4.085 -0.5550 -0.2748  0.1202
12018SOL     OW39007   5.141   1.693   7.921 -0.2176  0.5550  0.5347
12018SOL    HW139008   5.094   1.713   7.840 -0.5752  1.1733  0.8917
12018SOL    HW239009   5.216   1.753   7.921 -0.8295  1.3367  1.1966
12019SOL     OW39010   1.475   5.163   4.012 -0.0189  0.0231 -0.2136
12019SOL    HW139011   1.435   5.127   3.932  1.8522  0.2772 -1.3147
12019SOL    HW239012   1.414   5.138   4.081 -0.7705 -1.8849 -1.4558
12020SOL     OW39013   7.689   3.769   7.283  0.1331  0.0339  0.1292
12020SOL    HW139014   7.758   3.751   7.219 -3.0574 -1.8092 -3.1123
12020SOL    HW239015   7.681   3.687   7.333  0.0644  0.1305  0.2769
12021SOL     OW39016   7.982   7.380   5.989 -0.0732 -0.3465 -0.1414
12021SOL    HW139017   7.942   7.342   6.067 -0.8870  1.2156  0.2293
12021SOL    HW239018   7.985   7.474   6.006 -0.2704  0.0334 -1.9869
12022SOL     OW39019   0.683   3.283   1.859  0.6276 -0.1887 -0.6554
12022SOL    HW139020   0.660   3.191   1.870 -0.7328  0.0886 -1.0160
12022SOL    HW239021   0.625   3.329   1.919  2.4573  0.3410  0.7872
12023SOL     OW39022   7.338   0.593   1.679 -0.4817 -0.1424  0.0342
12023SOL    HW139023   7.302   0.664   1.625 -1.5373  0.3207  1.2861
12023SOL    HW239024   7.273   0.523   1.672  1.1563 -1.5639 -2.2226
12024SOL     OW39025   7.574   5.840   3.129 -0.5533 -0.3588 -0.2613
12024SOL    HW139026   7.514   5.909   3.101 -1.1382 -0.2854  1.0941
12024SOL    HW239027   7.584   5.784   3.052 -0.6715  0.7990 -1.1502
12025SOL     OW39028   4.059   4.212   3.300 -0.0264 -0.2920 -0.0983
12025SOL    HW139029   4.076   4.284   3.239  1.0789 -0.1381  0.3723
12025SOL    HW239030   4.039   4.254   3.383  0.4523 -0.5260  0.1381
12026SOL     OW39031   0.346   3.245   6.515 -0.9568 -0.3187 -0.2474
12026SOL    HW139032   0.389   3.264   6.432  0.1946 -0.5663  0.2732
12026SOL    HW239033   0.256   3.276   6.503 -0.6302  0.2533 -1.3435
12027SOL     OW39034   5.073   2.858   7.066  0.7001 -0.2485 -0.6747
12027SOL    HW139035   5.137   2.926   7.046  0.5627 -0.4873 -1.9934
12027SOL    HW239036   4.992   2.887   7.023  1.0687 -2.0143 -2.7474
12028SOL     OW39037   4.342   6.850   7.025 -0.9173  0.2702  0.1189
12028SOL    HW139038   4.377   6.939   7.025  1.0476 -0.4567  0.9960
12028SOL    HW239039   4.387   6.805   6.954 -3.6148  0.5091 -1.9157
12029SOL     OW39040   0.718   4.529   5.114 -0.0996  0.4866  0.2899
12029SOL    HW139041   0.663   4.586   5.060 -0.1699 -0.4091 -0.6031
12029SOL    HW239042   0.803   4.529   5.070  0.3743  1.1725  1.1829
12030SOL     OW39043   5.533   0.593   2.829  0.5075  0.3285  0.4336
12030SOL    HW139044   5.580   0.621   2.750  1.8310 -1.0252  0.7066
12030SOL    HW239045   5.460   0.540   2.796  1.4532 -0.8141  0.0970
12031SOL     OW39046   0.880   0.193   1.590  0.1575  0.1438  0.2016
12031SOL    HW139047   0.892   0.283   1.622 -0.8973  0.4119 -0.1540
12031SOL    HW239048   0.791   0.190   1.556  1.0161 -0.3264 -2.1537
12032SOL     OW39049   1.255   1.205   3.899 -0.4707  0.2291  0.3879
12032SOL    HW139050   1.210   1.263   3.838 -0.5724 -0.1279  0.1174
12032SOL    HW239051   1.190   1.139   3.922  0.0713 -0.6535 -0.4930
12033SOL     OW39052   1.529   5.358   6.556  0.3283 -0.1436 -0.0025
12033SOL    HW139053   1.457   5.332   6.499  0.3478  0.6396 -0.3990
12033SOL    HW239054   1.505   5.446   6.585  0.1581 -0.6488  1.4656
12034SOL     OW39055   5.209   5.448   5.012  0.4548  1.0859  0.5120
12034SOL    HW139056   5.296   5.478   5.039 -0.1411  0.9678  2.7329
12034SOL    HW239057   5.149   5.517   5.042 -0.3478  0.5830  0.1063
12035SOL     OW39058   0.167   7.749   6.788  0.5039 -0.3380  0.0929
12035SOL    HW139059   0.164   7.839   6.757 -1.7927 -0.2755  0.2896
12035SOL    HW239060   0.248   7.713   6.752  1.1083  1.5884 -0.5645
12036SOL     OW39061   1.949   1.252   3.308  0.2943  0.5973 -0.6406
12036SOL    HW139062   2.032   1.212   3.334  0.0393  0.6196  0.2376
12036SOL    HW239063   1.973   1.319   3.244  0.8793  0.1440 -0.9075
12037SOL     OW39064   5.924   1.138   1.471 -0.2688 -0.2531 -0.0641
12037SOL    HW139065   5.957   1.155   1.383  0.5475 -1.4172 -0.0207
12037SOL    HW239066   5.998   1.156   1.528 -0.4005 -0.7211  0.2611
12038SOL     OW39067   0.121   0.339   3.926  0.4012 -0.0431 -0.0566
12038SOL    HW139068   0.093   0.360   4.015  1.4682 -0.3429  0.3678
12038SOL    HW239069   0.097   0.247   3.914  0.4200 -0.0537 -0.0136
12039SOL     OW39070   5.079   1.266   1.864 -0.3606  0.3040 -0.0698
12039SOL    HW139071   5.058   1.207   1.792  0.0602  1.0727 -0.8405
12039SOL    HW239072   5.053   1.218   1.943  0.1151 -0.9774 -0.6573
12040SOL     OW39073   0.485   4.193   3.733 -0.1452  0.0514 -0.6293
12040SOL    HW139074   0.569   4.205   3.689 -0.0026  2.7894  0.1529
12040SOL    HW239075   0.422   4.239   3.678 -0.3621  1.4973  0.7195
12041SOL     OW39076   3.260   4.244   6.927 -0.1673  0.0245  0.2439
12041SOL    HW139077   3.241   4.275   6.838  0.4381 -0.3510 -0.0283
12041SOL    HW239078   3.218   4.308   6.984  0.9770  1.3454 -0.2976
12042SOL     OW39079   4.045   2.382   2.579 -0.0716 -0.1752  0.3802
12042SOL    HW139080   4.108   2.332   2.526 -1.2635 -0.3444 -0.9228
12042SOL    HW239081   4.094   2.459   2.608  1.1828 -1.0614  0.7091
12043SOL     OW39082   2.802   5.012   6.961 -0.1130 -0.1667  0.6705
12043SOL    HW139083   2.709   5.034   6.965 -0.6186 -2.1593  0.7101
12043SOL    HW239084   2.804   4.917   6.956  1.9319 -0.1483  0.3998
12044SOL     OW39085   0.854   5.870   5.575 -0.0175 -0.2647  0.6913
12044SOL    HW139086   0.920   5.864   5.506 -1.3933 -0.6553 -0.6356
12044SOL    HW239087   0.845   5.781   5.607  1.6734  0.1236  2.4877
12045SOL     OW39088   1.460   7.273   4.026 -0.1605 -0.4090  0.1543
12045SOL    HW139089   1.545   7.229   4.039 -0.4592 -1.2090 -0.4858
12045SOL    HW239090   1.433   7.298   4.114 -0.1326 -1.8433  0.5977
12046SOL     OW39091   7.929   0.361   3.303  0.5797 -0.2392  0.0555
12046SOL    HW139092   7.958   0.345   3.393 -1.1205 -2.3887  0.2933
12046SOL    HW239093   8.010   0.382   3.256  1.5367  0.7812  2.0136
12047SOL     OW39094   6.985   3.859   5.982  0.4631 -0.1192 -0.3283
12047SOL    HW139095   6.901   3.883   6.020 -0.2958 -2.0623 -0.6368
12047SOL    HW239096   7.011   3.781   6.031  1.4058 -0.3402 -1.1547
12048SOL     OW39097   7.003   6.483   3.167  0.1272 -0.3080  0.1200
12048SOL    HW139098   7.045   6.542   3.230  1.1546  0.0823 -0.9053
12048SOL    HW239099   6.943   6.539   3.118 -0.7999 -0.6462  0.8449
12049SOL     OW39100   6.435   3.101   5.736  0.0692  0.2274 -0.4547
12049SOL    HW139101   6.365   3.145   5.687 -0.2481 -0.6130 -0.7855
12049SOL    HW239102   6.468   3.035   5.676  0.6951  0.1721 -0.0538
12050SOL     OW39103   3.746   6.484   2.835 -0.4388 -0.5775 -0.0974
12050SOL    HW139104   3.719   6.514   2.749 -0.6535  0.3228  0.2724
12050SOL    HW239105   3.818   6.423   2.818 -0.0311  0.1107 -0.8752
12051SOL     OW39106   6.355   7.231   4.178  0.2659 -0.2365  0.5487
12051SOL    HW139107   6.329   7.148   4.219  0.2818 -1.4120 -1.7030
12051SOL    HW239108   6.296   7.295   4.218 -0.8771 -1.5871  1.1591
12052SOL     OW39109   0.004   0.886   1.335  0.4469  0.7323  0.3075
12052SOL    HW139110   0.014   0.905   1.428 -1.9505 -0.0276  0.8159
12052SOL    HW239111   0.030   0.794   1.326  1.7500  1.1247 -0.0089
12053SOL     OW39112   3.412   3.439   0.792  1.0216  0.0995  0.1181
12053SOL    HW139113   3.368   3.522   0.772 -0.9628 -1.6354 -3.6002
12053SOL    HW239114   3.486   3.436   0.732  0.2365 -1.3622 -0.8401
12054SOL     OW39115   5.743   3.673   3.485 -0.3327  0.0625  0.1902
12054SOL    HW139116   5.823   3.689   3.435 -0.5277 -0.4852 -0.3158
12054SOL    HW239117   5.672   3.690   3.423 -0.5627 -1.7331 -0.0944
12055SOL     OW39118   0.041   5.326   3.317 -0.4436  0.4767  0.4725
12055SOL    HW139119  -0.045   5.287   3.300 -1.0339  1.1137  1.7976
12055SOL    HW239120   0.033   5.362   3.405  1.0465  0.9606  0.4307
12056SOL     OW39121   6.102   2.859   4.405  0.4403  0.0290  0.1032
12056SOL    HW139122   6.183   2.834   4.362 -0.2860 -0.2011 -1.1943
12056SOL    HW239123   6.117   2.947   4.438  0.2291  1.2765 -2.8666
12057SOL     OW39124   7.700   4.320   7.224  0.8549  0.2515  0.3075
12057SOL    HW139125   7.713   4.232   7.258  1.5088  0.9633  2.0704
12057SOL    HW239126   7.627   4.355   7.275  0.6329  0.7465 -0.3355
12058SOL     OW39127   8.045   1.741   5.621 -0.5171 -0.5371 -0.0869
12058SOL    HW139128   8.123   1.734   5.566  0.6692 -1.0069  1.5706
12058SOL    HW239129   8.072   1.704   5.705 -2.5473 -0.7152  0.5286
12059SOL     OW39130   5.122   0.327   3.117 -0.1452  0.0751  0.1468
12059SOL    HW139131   5.091   0.415   3.138  2.7619  0.9593  1.1714
12059SOL    HW239132   5.184   0.305   3.186  1.3274 -1.6089 -1.5748
12060SOL     OW39133   0.110   0.451   3.468 -0.8704  0.2838 -0.1886
12060SOL    HW139134   0.082   0.485   3.383  1.3911 -0.6753 -1.4030
12060SOL    HW239135   0.038   0.474   3.528 -1.7753  2.4888 -1.9745
12061SOL     OW39136   7.875   7.389   6.685  0.5221 -0.2823  0.1866
12061SOL    HW139137   7.933   7.465   6.698  0.3102 -0.0356 -0.3110
12061SOL    HW239138   7.935   7.314   6.684  0.9014  0.0232 -0.8860
12062SOL     OW39139   1.481   7.496   5.178  0.0270  0.3696  0.3735
12062SOL    HW139140   1.537   7.433   5.133  1.2550  1.1300  0.7802
12062SOL    HW239141   1.434   7.444   5.243  0.6022 -0.2183  0.3269
12063SOL     OW39142   3.990   5.367   5.737 -0.1877  0.7432 -0.0240
12063SOL    HW139143   4.064   5.316   5.768 -0.3587  1.8566  2.4269
12063SOL    HW239144   4.030   5.442   5.692  0.1226  0.3031 -0.4890
12064SOL     OW39145   3.921   5.198   1.385  0.1511  0.2890 -0.5938
12064SOL    HW139146   3.895   5.239   1.303 -2.8897  0.7607  0.4710
12064SOL    HW239147   3.945   5.271   1.442 -0.6524  0.2300 -0.1659
12065SOL     OW39148   6.383   1.248   0.065  1.0839 -0.2835 -0.4302
12065SOL    HW139149   6.317   1.241  -0.004  0.2021 -1.0602  0.4662
12065SOL    HW239150   6.414   1.158   0.078  0.0400 -0.4284  1.3004
12066SOL     OW39151   2.897   4.782   4.426 -0.1002  0.1516  0.3753
12066SOL    HW139152   2.949   4.748   4.499  0.8757 -0.8356 -0.7339
12066SOL    HW239153   2.952   4.850   4.387 -0.2839  0.1340  0.0877
12067SOL     OW39154   2.889   5.456   6.112 -0.6233  0.5631  0.5004
12067SOL    HW139155   2.972   5.500   6.130 -0.2692 -0.3222  1.0672
12067SOL    HW239156   2.896   5.372   6.157  0.4082 -1.9645 -3.8219
12068SOL     OW39157   0.277   5.487   5.427 -0.5140  0.2589 -0.3113
12068SOL    HW139158   0.219   5.480   5.502 -0.1980  0.4631 -0.0488
12068SOL    HW239159   0.361   5.451   5.457 -0.9569 -1.6447 -1.1990
12069SOL     OW39160   4.960   8.064   6.365 -0.3343 -0.2168  0.0825
12069SOL    HW139161   4.874   8.072   6.405 -0.2908 -1.7847  0.5663
12069SOL    HW239162   4.998   8.151   6.373 -2.0192  0.6108 -0.5233
12070SOL     OW39163   2.923   7.709   2.181  0.0515 -0.3019  0.8056
12070SOL    HW139164   2.906   7.801   2.162  1.6750  0.0162  0.7103
12070SOL    HW239165   2.983   7.681   2.112 -1.0817 -1.6957  0.3327
12071SOL     OW39166   3.057   2.393   4.508 -0.2863 -0.3675  0.7049
12071SOL    HW139167   3.117   2.324   4.481 -1.1403 -0.3721 -1.3143
12071SOL    HW239168   3.114   2.461   4.546  0.9880 -0.5100 -0.8311
12072SOL     OW39169   2.189   4.167   8.068 -0.1097 -0.0520  0.4834
12072SOL    HW139170   2.125   4.130   8.007 -0.6125  0.0075  0.9703
12072SOL    HW239171   2.266   4.185   8.014  0.0017 -1.4274  0.1667
12073SOL     OW39172   1.341   3.175   7.351  0.2867  0.4876 -0.3419
12073SOL    HW139173   1.252   3.165   7.383  0.9845 -0.8937  1.3021
12073SOL    HW239174   1.376   3.086   7.348  1.7941  1.0433 -0.3823
12074SOL     OW39175   6.485   1.719   1.408 -0.4795  0.3222  0.3355
12074SOL    HW139176   6.424   1.670   1.353 -0.7828 -0.2308  1.1331
12074SOL    HW239177   6.532   1.776   1.348 -0.4284 -0.6339 -0.5581
12075SOL     OW39178   1.215   4.351   6.403 -0.7136 -0.2670 -0.4589
12075SOL    HW139179   1.218   4.382   6.313 -0.7418  0.0681 -0.3440
12075SOL    HW239180   1.151   4.408   6.446 -0.7494 -0.4696 -0.2439
12076SOL     OW39181   5.454   3.259   5.165  0.0614  0.2214  0.2120
12076SOL    HW139182   5.508   3.205   5.108 -0.2149  0.1627  0.0030
12076SOL    HW239183   5.375   3.278   5.114 -0.0847  0.3687  0.4836
12077SOL     OW39184   3.975   1.387   2.798 -0.2251  0.3025  0.1129
12077SOL    HW139185   3.906   1.322   2.784 -0.5191  0.6743 -0.2007
12077SOL    HW239186   3.935   1.451   2.856  0.2178 -0.0305  0.7930
12078SOL     OW39187   7.046   6.938   3.305  0.0195 -0.4423  0.2323
12078SOL    HW139188   6.971   6.985   3.341 -1.1370 -0.8532 -1.4849
12078SOL    HW239189   7.027   6.932   3.211  1.3784 -2.0752  0.0148
12079SOL     OW39190   0.071   5.438   6.395  0.3522 -0.4669  0.7730
12079SOL    HW139191   0.108   5.414   6.310  0.5697  0.0390  0.7229
12079SOL    HW239192   0.069   5.356   6.444 -1.5868 -1.1777 -0.3893
12080SOL     OW39193   6.154   6.030   8.061  0.7397  0.2505  0.2337
12080SOL    HW139194   6.094   6.064   8.127  2.1196  0.1816  1.5681
12080SOL    HW239195   6.239   6.029   8.104  1.4933 -0.8322 -1.2046
12081SOL     OW39196   2.610   3.766   3.429 -0.7100 -0.0655  0.4739
12081SOL    HW139197   2.661   3.691   3.398 -1.2973 -0.7687  1.1790
12081SOL    HW239198   2.620   3.764   3.524 -0.3971  1.0046  0.4769
12082SOL     OW39199   1.222   5.141   4.782  0.2113  0.4039 -0.0932
12082SOL    HW139200   1.154   5.189   4.831 -0.2674  0.8739 -1.1826
12082SOL    HW239201   1.173   5.076   4.732  0.6860  0.0210 -0.0647
12083SOL     OW39202   1.259   7.557   2.618  0.4559 -0.4223  0.5869
12083SOL    HW139203   1.242   7.652   2.620  0.6850 -0.3906  1.8732
12083SOL    HW239204   1.354   7.550   2.616  0.4493 -0.6477 -1.2711
12084SOL     OW39205   4.673   7.965   6.874  0.5381 -0.0744  0.2869
12084SOL    HW139206   4.589   7.948   6.831  0.0559 -2.7395  2.0708
12084SOL    HW239207   4.660   8.049   6.920 -1.2022 -0.4816  0.6158
12085SOL     OW39208   2.048   7.257   3.596 -0.1115 -0.5672 -0.7732
12085SOL    HW139209   2.059   7.273   3.502  1.5548 -0.5831 -0.6113
12085SOL    HW239210   2.063   7.342   3.637 -1.6725 -0.3793 -0.5543
12086SOL     OW39211   1.451   5.449   3.782  0.0258  0.4193 -0.1818
12086SOL    HW139212   1.401   5.375   3.748 -1.0787  1.0242  0.0583
12086SOL    HW239213   1.537   5.441   3.741 -0.5041 -0.2172 -1.2212
12087SOL     OW39214   5.845   5.623   0.685 -0.2112  0.0908 -0.5478
12087SOL    HW139215   5.812   5.627   0.775  1.8839  0.8211  0.2582
12087SOL    HW239216   5.781   5.671   0.633 -2.2331 -1.5929  0.2551
12088SOL     OW39217   6.254   2.084   0.365 -0.5993 -0.7613 -0.0694
12088SOL    HW139218   6.184   2.020   0.380 -1.1240 -0.1395  0.2083
12088SOL    HW239219   6.233   2.123   0.280  0.3387 -1.7123 -0.7741
12089SOL     OW39220   3.880   1.259   0.902  0.2664  0.0768  0.1703
12089SOL    HW139221   3.880   1.257   0.998 -0.2252 -1.4122  0.1659
12089SOL    HW239222   3.905   1.171   0.876 -0.2308  0.2811 -1.0718
12090SOL     OW39223   2.827   6.483   4.220  0.3243  0.1721  0.4979
12090SOL    HW139224   2.755   6.455   4.277  1.4950 -0.1842  1.8514
12090SOL    HW239225   2.903   6.434   4.250  0.9966 -0.0734 -1.4441
12091SOL     OW39226   4.578   5.262   6.876 -0.7358 -0.1848  0.1403
12091SOL    HW139227   4.568   5.172   6.909 -0.0331 -0.1355  0.4965
12091SOL    HW239228   4.610   5.251   6.787 -0.8016 -0.2919  0.1294
12092SOL     OW39229   3.025   0.602   2.191  0.1346  0.1159  0.2498
12092SOL    HW139230   3.097   0.570   2.246  0.0360  1.4524  1.2071
12092SOL    HW239231   2.946   0.581   2.240 -0.0744 -0.3395 -0.2701
12093SOL     OW39232   7.024   0.650   3.662  0.6210 -0.7242 -0.1676
12093SOL    HW139233   7.033   0.571   3.714 -2.2592 -2.2970 -1.7940
12093SOL    HW239234   7.062   0.627   3.577 -0.8016 -0.6461 -0.8503
12094SOL     OW39235   2.622   5.946   6.727 -0.1788  0.0381  0.2701
12094SOL    HW139236   2.570   5.874   6.691  2.6228 -1.7070 -0.6009
12094SOL    HW239237   2.625   5.930   6.821 -0.2017 -0.5768  0.1701
12095SOL     OW39238   8.064   4.707   4.308  0.0796  0.0881  0.2780
12095SOL    HW139239   8.153   4.676   4.326  0.4177  0.3185 -0.9199
12095SOL    HW239240   8.033   4.738   4.393 -0.0108 -2.7479  1.3889
12096SOL     OW39241   4.224   6.064   7.616  0.7160 -0.7127  0.3207
12096SOL    HW139242   4.193   5.973   7.614 -0.8693 -0.2021 -1.0257
12096SOL    HW239243   4.263   6.078   7.529 -0.0903  0.1891  0.0814
12097SOL     OW39244   3.905   1.890   2.325 -0.4546  0.3455 -0.2411
12097SOL    HW139245   3.843   1.842   2.380  0.4625 -3.1020 -1.9281
12097SOL    HW239246   3.872   1.879   2.236  1.9618 -0.8122 -1.0993
12098SOL     OW39247   5.578   6.088   3.704  0.1392 -0.1952 -0.1006
12098SOL    HW139248   5.631   6.105   3.782 -0.4375 -1.2410  0.5608
12098SOL    HW239249   5.623   6.017   3.659 -0.2510 -0.5392  0.0369
12099SOL     OW39250   5.825   5.710   1.750 -0.0667  0.5653 -0.3300
12099SOL    HW139251   5.827   5.770   1.676 -0.6941  1.5535  0.4209
12099SOL    HW239252   5.780   5.759   1.819  0.0717 -0.5035  0.5482
12100SOL     OW39253   3.216   4.687   0.450 -0.0950  0.6181  0.1604
12100SOL    HW139254   3.127   4.682   0.414 -0.8218  1.8233  1.6809
12100SOL    HW239255   3.205   4.673   0.544  1.4379  0.0524  0.2862
12101SOL     OW39256   2.780   4.193   1.338 -0.6673 -0.6725 -0.1918
12101SOL    HW139257   2.705   4.252   1.347  0.2300  0.4995 -0.1462
12101SOL    HW239258   2.809   4.205   1.248  0.1074 -0.2891  0.0928
12102SOL     OW39259   6.836   8.071   5.074 -0.2950 -0.6903  0.1262
12102SOL    HW139260   6.839   8.006   5.144  0.7946 -1.3436 -0.4907
12102SOL    HW239261   6.746   8.065   5.040 -0.1684 -2.0467 -0.0511
12103SOL     OW39262   4.646   5.760   0.886 -0.3960 -0.1454 -0.1789
12103SOL    HW139263   4.568   5.812   0.905  0.8501  2.1502 -0.9869
12103SOL    HW239264   4.648   5.752   0.791  0.8368  0.6525 -0.2377
12104SOL     OW39265   0.214   1.046   1.526  0.4054 -0.2792  0.6401
12104SOL    HW139266   0.143   0.995   1.564  0.4109  0.0393  1.0829
12104SOL    HW239267   0.230   1.116   1.589  1.5773 -0.7478  0.8923
12105SOL     OW39268   1.553   4.962   5.438  0.6706  0.8282  0.5152
12105SOL    HW139269   1.551   4.882   5.490 -0.3739 -0.7222 -1.7730
12105SOL    HW239270   1.645   4.986   5.433  1.1032 -0.7994  0.4104
12106SOL     OW39271   5.968   1.088   0.002  0.5038  0.0435 -0.5575
12106SOL    HW139272   6.005   1.033   0.071 -2.2592 -0.1693  0.9308
12106SOL    HW239273   5.962   1.031  -0.074  3.4101  0.2156 -1.0235
12107SOL     OW39274   3.443   7.898   3.621  0.2013 -0.1852 -0.0536
12107SOL    HW139275   3.349   7.901   3.641 -0.1908 -0.3588 -1.7618
12107SOL    HW239276   3.485   7.923   3.703 -1.3838  1.9091  0.1945
12108SOL     OW39277   3.166   5.031   5.588  0.2435 -0.7649  0.0962
12108SOL    HW139278   3.074   5.047   5.605  0.4358  0.9269 -0.2128
12108SOL    HW239279   3.185   4.947   5.629 -0.5081  0.6450  3.6283
12109SOL     OW39280   0.660   3.547   6.424 -0.5022  0.3306 -0.5547
12109SOL    HW139281   0.630   3.588   6.342 -0.8943 -2.0085 -1.6513
12109SOL    HW239282   0.585   3.497   6.455 -0.4428  1.3415  1.4370
12110SOL     OW39283   0.684   3.415   5.011 -0.4423  0.3476 -0.5277
12110SOL    HW139284   0.709   3.414   5.104 -0.3973  0.2310 -0.5411
12110SOL    HW239285   0.590   3.430   5.012 -0.8734 -2.0198 -0.3752
12111SOL     OW39286   1.372   0.776   1.341 -0.6116 -0.0257  0.0441
12111SOL    HW139287   1.394   0.865   1.369  1.6471 -0.7103  0.6435
12111SOL    HW239288   1.385   0.778   1.246  1.0819 -0.0919  0.2400
12112SOL     OW39289   3.889   7.928   2.811 -0.8987 -0.0146  0.3421
12112SOL    HW139290   3.869   7.914   2.903  1.2182  1.0093  0.9937
12112SOL    HW239291   3.887   8.023   2.800 -2.4671 -0.1523 -1.0312
12113SOL     OW39292   5.909   2.261   5.417  0.2716 -0.6025  0.4453
12113SOL    HW139293   5.873   2.213   5.492 -1.2541  0.3413  0.3673
12113SOL    HW239294   5.832   2.293   5.370  1.2152  1.0520 -0.0503
12114SOL     OW39295   2.350   6.071   2.805 -0.8866 -0.1944  0.1306
12114SOL    HW139296   2.363   6.166   2.802  0.9185 -0.3006  2.3148
12114SOL    HW239297   2.397   6.039   2.729  3.8728  0.3145  2.5187
12115SOL     OW39298   3.366   6.129   7.289  0.6329  0.3595  0.1753
12115SOL    HW139299   3.428   6.175   7.231 -0.5609  1.8134 -0.0166
12115SOL    HW239300   3.332   6.058   7.235  1.2421  0.2860 -0.1237
12116SOL     OW39301   2.688   6.507   1.420 -0.2980 -0.2237 -0.3801
12116SOL    HW139302   2.748   6.457   1.475 -1.5462 -1.1071  0.2321
12116SOL    HW239303   2.664   6.583   1.473 -1.3096 -0.9493  0.2480
12117SOL     OW39304   3.766   5.619   8.066  0.1699 -0.4528 -0.2793
12117SOL    HW139305   3.723   5.542   8.103 -1.3797  0.7970  0.6610
12117SOL    HW239306   3.811   5.660   8.140 -0.2532  0.3169 -0.4278
12118SOL     OW39307   5.360   3.464   0.853  0.1610 -0.0245  0.0999
12118SOL    HW139308   5.416   3.495   0.782  0.8521  0.8442  0.9935
12118SOL    HW239309   5.369   3.369   0.852  2.4116  0.1170  0.7832
12119SOL     OW39310   7.382   1.908   4.019 -0.6631 -0.4422  0.1514
12119SOL    HW139311   7.440   1.983   4.005 -0.3606 -0.7034 -0.0124
12119SOL    HW239312   7.402   1.878   4.108  0.6051 -1.4936 -0.4327
12120SOL     OW39313   5.453   4.273   0.239  0.3395 -0.2836 -0.2373
12120SOL    HW139314   5.418   4.362   0.240  0.2507 -0.2452 -2.1371
12120SOL    HW239315   5.377   4.217   0.254 -0.0855 -0.0861 -1.4653
12121SOL     OW39316   4.684   0.527   5.411 -0.4298  0.8059 -0.3140
12121SOL    HW139317   4.658   0.595   5.472  2.5591  2.4022 -0.6405
12121SOL    HW239318   4.652   0.557   5.326 -0.1486  1.2062 -0.2785
12122SOL     OW39319   2.627   2.306   2.292  0.2603  0.3519 -0.2341
12122SOL    HW139320   2.684   2.230   2.279 -0.3110 -0.3938  1.3296
12122SOL    HW239321   2.567   2.304   2.217 -0.9301 -1.8763  0.6689
12123SOL     OW39322   7.223   3.621   5.252 -0.1069 -0.1348 -0.2122
12123SOL    HW139323   7.278   3.566   5.308  0.0879  0.2217 -0.0508
12123SOL    HW239324   7.186   3.687   5.311 -0.6142 -0.3007 -0.3429
12124SOL     OW39325   2.249   4.025   7.286  0.0064 -0.4280  0.5454
12124SOL    HW139326   2.175   4.041   7.228  1.0012  1.5077 -0.2696
12124SOL    HW239327   2.234   4.083   7.361  0.6711 -0.0398  0.3848
12125SOL     OW39328   3.077   1.643   1.126  0.5653  0.5056 -0.6425
12125SOL    HW139329   3.116   1.708   1.184 -0.1727  0.8725 -0.5555
12125SOL    HW239330   2.994   1.681   1.097  0.7575  0.1851 -1.6768
12126SOL     OW39331   1.580   6.189   0.131 -0.2274 -0.5154  0.5232
12126SOL    HW139332   1.593   6.112   0.077  1.5258 -0.4323  0.7490
12126SOL    HW239333   1.488   6.187   0.156 -0.5201 -1.7792 -0.5811
12127SOL     OW39334   6.769   0.678   5.756  0.4633  0.1253  0.1328
12127SOL    HW139335   6.854   0.713   5.785  0.9260 -1.2340  0.4792
12127SOL    HW239336   6.756   0.716   5.669  1.7225 -0.1364 -0.1893
12128SOL     OW39337   3.703   2.624   7.343 -0.3648 -0.4670  0.4537
12128SOL    HW139338   3.674   2.704   7.388  1.0115  0.4511 -0.2370
12128SOL    HW239339   3.623   2.588   7.305 -0.7548  1.7279 -0.9824
12129SOL     OW39340   0.629   5.841   6.652  0.2935  0.4948 -0.2339
12129SOL    HW139341   0.659   5.932   6.642  1.1706  0.1205 -1.0998
12129SOL    HW239342   0.537   5.844   6.626  0.2863  1.1531 -0.1568
12130SOL     OW39343   6.438   1.785   5.472 -0.3445 -0.2131  0.3343
12130SOL    HW139344   6.354   1.831   5.474  0.0079  0.6423 -1.4613
12130SOL    HW239345   6.445   1.753   5.381  1.8887  1.0373 -0.0028
12131SOL     OW39346   3.821   0.311   6.318 -0.1204  0.1208  0.1067
12131SOL    HW139347   3.877   0.319   6.241 -0.1518  1.6020  0.2082
12131SOL    HW239348   3.796   0.401   6.339  1.0013 -0.0789  2.6605
12132SOL     OW39349   5.367   5.538   7.210  0.5101  0.6300  0.4013
12132SOL    HW139350   5.446   5.562   7.161 -1.3766  1.2640 -2.5746
12132SOL    HW239351   5.345   5.616   7.261  1.9231  0.3298  1.5320
12133SOL     OW39352   6.129   5.386   4.354  0.0050  0.1401  0.8117
12133SOL    HW139353   6.170   5.465   4.317 -0.3211 -0.1274 -0.1562
12133SOL    HW239354   6.165   5.380   4.442  0.8299  0.8014  0.5385
12134SOL     OW39355   4.228   1.525   1.654  0.6104 -0.7649 -0.5961
12134SOL    HW139356   4.313   1.530   1.609  0.8720  1.0650  0.0245
12134SOL    HW239357   4.216   1.612   1.691 -1.5265 -1.0106 -0.6137
12135SOL     OW39358   1.807   5.736   5.617 -0.8062  0.1340 -0.0158
12135SOL    HW139359   1.850   5.807   5.665  1.6039 -0.9247 -0.4826
12135SOL    HW239360   1.725   5.721   5.664  0.7015  0.2221  2.8252
12136SOL     OW39361   0.927   7.755   7.421 -0.9019 -0.0271 -0.1394
12136SOL    HW139362   0.882   7.718   7.497  0.0624  1.1384  1.0551
12136SOL    HW239363   1.013   7.781   7.455  2.1265 -4.8674 -2.8893
12137SOL     OW39364   6.214   0.562   7.184 -0.6415 -0.6929  0.0118
12137SOL    HW139365   6.284   0.503   7.215  0.6576  0.5023 -0.5216
12137SOL    HW239366   6.197   0.533   7.094  2.3640  1.6633 -1.4974
12138SOL     OW39367   3.396   2.309   7.545  0.1277 -0.0590  0.3715
12138SOL    HW139368   3.445   2.385   7.575  0.6209  0.2206 -1.0713
12138SOL    HW239369   3.315   2.345   7.508  1.4611  0.0777 -2.6504
12139SOL     OW39370   6.319   0.387   1.053 -0.1299 -0.4184  0.0042
12139SOL    HW139371   6.308   0.429   0.968  2.8925 -0.8917 -0.7126
12139SOL    HW239372   6.375   0.446   1.103  1.1953 -1.8256  0.2728
12140SOL     OW39373   3.215   3.789   4.718 -0.0139  0.1451  0.1122
12140SOL    HW139374   3.268   3.713   4.693 -0.1651  0.1334 -0.1764
12140SOL    HW239375   3.224   3.849   4.644  0.1301  0.4230  0.3536
12141SOL     OW39376   7.962   6.146   6.879 -0.2553 -0.1303 -0.2799
12141SOL    HW139377   7.906   6.201   6.934 -0.5722 -0.8917  0.1799
12141SOL    HW239378   7.943   6.057   6.908 -1.0745 -0.6429 -2.1972
12142SOL     OW39379   0.810   1.680   7.075 -0.5716 -0.2215  0.8454
12142SOL    HW139380   0.720   1.650   7.061 -0.6319  0.1139  0.4901
12142SOL    HW239381   0.801   1.773   7.096 -0.2112  0.2135 -0.7696
12143SOL     OW39382   0.868   1.449   7.256  0.3144 -0.3255 -0.3256
12143SOL    HW139383   0.957   1.472   7.227  0.7011 -1.3812 -0.0193
12143SOL    HW239384   0.815   1.455   7.176 -0.1606  3.8223  0.0448
12144SOL     OW39385   1.190   5.745   7.908 -0.1061 -0.0276  0.0727
12144SOL    HW139386   1.189   5.658   7.948  1.5848 -0.4962 -0.8073
12144SOL    HW239387   1.159   5.803   7.977 -0.2990 -1.2085  1.0105
12145SOL     OW39388   0.793   6.122   5.697  0.0430  0.5469  0.4461
12145SOL    HW139389   0.716   6.077   5.731 -0.5416 -0.4101 -1.9354
12145SOL    HW239390   0.835   6.058   5.640  1.6923  1.5993  0.4139
12146SOL     OW39391   3.333   7.071   3.342  0.2899  0.4795  0.3147
12146SOL    HW139392   3.297   7.118   3.266 -0.5893 -0.5733  0.0490
12146SOL    HW239393   3.394   7.132   3.382  1.3593  0.8043 -1.6933
12147SOL     OW39394   3.568   4.209   6.682  0.2736 -0.5742 -0.4008
12147SOL    HW139395   3.520   4.233   6.602  0.5110 -0.1991 -0.4332
12147SOL    HW239396   3.659   4.230   6.663  0.4194 -1.0743 -0.2554
12148SOL     OW39397   8.108   7.482   0.623  0.2075 -0.5529  0.0036
12148SOL    HW139398   8.108   7.440   0.709 -2.2259 -1.0515 -0.1879
12148SOL    HW239399   8.058   7.563   0.636  0.7672 -0.0812 -0.7125
12149SOL     OW39400   1.857   6.557   1.482  0.1469 -0.8056  0.0322
12149SOL    HW139401   1.772   6.514   1.498 -0.0298 -0.9720 -1.2453
12149SOL    HW239402   1.834   6.643   1.447  0.5122 -0.0944  1.4932
12150SOL     OW39403   6.539   2.661   7.740  0.4651  0.1237 -0.0298
12150SOL    HW139404   6.541   2.756   7.725 -1.3634  0.2019 -0.0183
12150SOL    HW239405   6.541   2.652   7.835  2.4580  0.0309 -0.0336
12151SOL     OW39406   2.229   1.260   5.959  0.2557 -0.0756 -0.5223
12151SOL    HW139407   2.174   1.328   5.919 -0.5578  1.2281  2.5279
12151SOL    HW239408   2.305   1.308   5.993  1.2072 -1.2212 -0.9819
12152SOL     OW39409   6.126   6.992   0.062 -0.3941 -0.0580 -0.8361
12152SOL    HW139410   6.075   6.915   0.037  0.2125 -0.8746  0.3433
12152SOL    HW239411   6.060   7.058   0.084 -0.9208 -0.3603 -1.4841
12153SOL     OW39412   5.966   6.394   3.150 -0.5191 -0.3853  0.4833
12153SOL    HW139413   6.012   6.330   3.095  1.4972 -0.1026  1.7165
12153SOL    HW239414   5.977   6.360   3.239  0.7552  1.7198  1.1893
12154SOL     OW39415   0.431   2.296   6.507 -0.1456 -0.0403  0.4211
12154SOL    HW139416   0.439   2.327   6.597 -1.9183 -0.2766  0.7162
12154SOL    HW239417   0.366   2.225   6.513  0.5143 -0.7792 -0.8840
12155SOL     OW39418   3.125   2.825   7.192  0.6258  0.1855 -0.0262
12155SOL    HW139419   3.170   2.768   7.254  0.6247 -0.6432 -0.7690
12155SOL    HW239420   3.177   2.819   7.112  1.2630  2.1112  0.1985
12156SOL     OW39421   0.803   7.826   7.204 -0.2472  0.5033 -0.1056
12156SOL    HW139422   0.859   7.805   7.278  0.9309 -0.4705 -1.2239
12156SOL    HW239423   0.715   7.805   7.233  0.3336 -1.0791  0.6046
12157SOL     OW39424   6.580   3.814   7.354 -0.8169 -0.2715 -0.0661
12157SOL    HW139425   6.517   3.780   7.291  0.7142  0.0767 -1.8582
12157SOL    HW239426   6.652   3.751   7.353  1.1285  1.8164 -1.9004
12158SOL     OW39427   0.808   1.990   3.423  0.2704  0.1685  0.8751
12158SOL    HW139428   0.719   2.022   3.436 -0.1142 -0.6891  0.3958
12158SOL    HW239429   0.839   1.968   3.511 -0.5354 -0.9271  0.9052
12159SOL     OW39430   2.708   5.632   7.951  0.3149  0.2286 -0.5655
12159SOL    HW139431   2.617   5.623   7.922  0.8266  1.8039 -2.9749
12159SOL    HW239432   2.758   5.574   7.894  1.0060  0.6585 -0.4156
12160SOL     OW39433   5.761   5.764   6.456  0.1415  0.3966 -0.0070
12160SOL    HW139434   5.761   5.687   6.512  0.5165  0.8727  0.6695
12160SOL    HW239435   5.849   5.767   6.418  0.2212  0.6473  0.1947
12161SOL     OW39436   4.487   2.316   0.178  0.2183 -0.1076 -0.4601
12161SOL    HW139437   4.579   2.298   0.157 -0.0705 -2.4095 -0.0478
12161SOL    HW239438   4.481   2.303   0.272 -0.8471 -1.7647 -0.7148
12162SOL     OW39439   4.250   7.195   3.984 -0.2158 -0.2192 -0.2472
12162SOL    HW139440   4.271   7.284   3.956  0.4005 -0.5721 -0.9401
12162SOL    HW239441   4.172   7.204   4.039 -0.6547  0.6441 -1.0013
12163SOL     OW39442   3.807   1.538   2.064 -0.0030  0.4246  0.1263
12163SOL    HW139443   3.827   1.445   2.050  0.6133  0.6925 -0.8697
12163SOL    HW239444   3.892   1.581   2.066 -0.2725  0.9290  0.9214
12164SOL     OW39445   1.324   5.231   6.435 -0.9028 -0.3339 -0.3075
12164SOL    HW139446   1.249   5.290   6.441  1.8010  3.8374 -1.9135
12164SOL    HW239447   1.308   5.181   6.355 -2.2124  0.0829 -0.3360
12165SOL     OW39448   3.920   0.190   5.112 -0.1068  0.0948  0.5225
12165SOL    HW139449   3.946   0.098   5.103  1.7028  0.6650 -0.7456
12165SOL    HW239450   3.965   0.220   5.191 -1.1709 -0.2179  1.2751
12166SOL     OW39451   1.180   0.163   1.424  0.6574 -0.5076 -0.1311
12166SOL    HW139452   1.172   0.214   1.505  1.8958 -0.8641  0.2366
12166SOL    HW239453   1.247   0.210   1.374  0.7056 -0.9224 -0.4557
12167SOL     OW39454   2.950   1.836   7.948  0.3677 -0.7915  0.0488
12167SOL    HW139455   3.023   1.889   7.981  1.5103 -1.4787 -1.2664
12167SOL    HW239456   2.922   1.785   8.024 -0.3411  1.1664  1.1905
12168SOL     OW39457   0.208   1.686   1.318 -0.2642 -0.2170  0.2847
12168SOL    HW139458   0.273   1.617   1.326  1.3682  0.6435 -3.5956
12168SOL    HW239459   0.247   1.761   1.364  0.7379 -0.2096 -0.5491
12169SOL     OW39460   7.977   4.234   7.250  0.0745  0.1212 -0.4608
12169SOL    HW139461   8.052   4.174   7.249 -0.6730 -0.8244 -1.7825
12169SOL    HW239462   8.001   4.304   7.189 -0.2880 -0.4045 -1.2112
12170SOL     OW39463   5.802   0.954   5.495 -0.6414 -0.0161 -0.4034
12170SOL    HW139464   5.824   0.946   5.587 -0.4613  1.6921 -0.2673
12170SOL    HW239465   5.865   0.898   5.449 -0.0424 -0.0200  0.4231
12171SOL     OW39466   2.860   7.604   1.840 -0.1138  0.0400 -0.2053
12171SOL    HW139467   2.848   7.567   1.753 -0.2598  1.4559 -0.8201
12171SOL    HW239468   2.878   7.697   1.824 -2.0001  0.7327  1.3460
12172SOL     OW39469   1.669   3.961   3.650 -0.0588  0.5674 -0.2042
12172SOL    HW139470   1.653   3.879   3.696  0.5507  0.6014  0.0773
12172SOL    HW239471   1.587   4.010   3.657  0.1664  0.7768  1.2749
12173SOL     OW39472   2.535   4.211   7.231 -0.4242  0.3456  0.6087
12173SOL    HW139473   2.537   4.298   7.271  1.7191 -0.4866  2.5213
12173SOL    HW239474   2.479   4.159   7.289 -0.4631  0.0904  0.3428
12174SOL     OW39475   5.201   7.661   1.174  0.3567  0.2888  0.6733
12174SOL    HW139476   5.292   7.633   1.181  0.6977  1.3528  0.6761
12174SOL    HW239477   5.167   7.653   1.263 -0.2127 -2.1595  0.3051
12175SOL     OW39478   4.894   6.783   7.579 -0.1589 -0.3381  0.5679
12175SOL    HW139479   4.917   6.718   7.645  0.8865 -1.0357 -0.4562
12175SOL    HW239480   4.884   6.865   7.628  2.3500 -0.4469  1.3825
12176SOL     OW39481   5.402   1.275   7.484  0.2675  0.3947  0.1510
12176SOL    HW139482   5.332   1.324   7.527 -0.2121 -0.4023  0.2860
12176SOL    HW239483   5.360   1.196   7.451  1.2088 -0.3613  0.7145
12177SOL     OW39484   1.446   5.429   1.394  0.3248  0.4104 -0.1166
12177SOL    HW139485   1.396   5.507   1.369 -0.5644 -0.5599 -1.5555
12177SOL    HW239486   1.478   5.448   1.482 -1.3198  1.7094  0.2572
12178SOL     OW39487   3.268   6.020   5.430 -0.3953  0.8754 -0.0309
12178SOL    HW139488   3.234   5.935   5.457  0.2348  0.1856 -1.2989
12178SOL    HW239489   3.362   6.005   5.416 -0.1679  1.9232  0.2676
12179SOL     OW39490   0.354   7.748   7.690  0.7995 -0.0031 -0.1211
12179SOL    HW139491   0.340   7.835   7.727 -0.6789  0.6103 -1.9530
12179SOL    HW239492   0.416   7.706   7.749 -1.2051  0.9365  2.8949
12180SOL     OW39493   7.551   2.917   5.308 -0.2059 -1.0005  0.4475
12180SOL    HW139494   7.464   2.905   5.269  0.5135 -0.1054 -1.5493
12180SOL    HW239495   7.555   3.010   5.329 -1.0116 -1.6154  3.9690
12181SOL     OW39496   2.776   0.589   6.444  0.0496  0.1339  0.1665
12181SOL    HW139497   2.706   0.649   6.418 -0.5686 -0.3920  0.5849
12181SOL    HW239498   2.854   0.623   6.400 -0.8822 -0.5384 -2.2313
12182SOL     OW39499   1.486   5.672   6.474 -0.0307  0.4574  0.3049
12182SOL    HW139500   1.427   5.660   6.400 -0.6014  2.4493  0.3867
12182SOL    HW239501   1.430   5.671   6.551  0.3071  0.3547  0.5560
12183SOL     OW39502   0.594   3.952   7.040  0.0214  0.2639 -0.3226
12183SOL    HW139503   0.653   4.006   6.987 -1.6133  2.0521 -0.4289
12183SOL    HW239504   0.518   3.939   6.984 -0.3749 -0.6239  0.4024
12184SOL     OW39505   7.809   4.860   2.000 -0.1643 -0.3973 -0.6980
12184SOL    HW139506   7.803   4.808   1.920 -2.0485 -0.3934 -0.5966
12184SOL    HW239507   7.779   4.801   2.069 -0.1645  0.1286 -0.2448
12185SOL     OW39508   1.164   6.312   3.544 -0.1929  0.3064  0.8442
12185SOL    HW139509   1.235   6.279   3.598  1.3353  1.2122 -0.5394
12185SOL    HW239510   1.133   6.390   3.590  2.0691  1.9167 -0.2169
12186SOL     OW39511   3.974   5.000   1.014 -0.1694 -0.5736  0.2517
12186SOL    HW139512   4.014   5.080   1.048  1.1445 -0.0114 -2.3291
12186SOL    HW239513   3.896   5.029   0.966  0.0089 -0.8678 -0.2362
12187SOL     OW39514   0.336   6.308   6.873 -0.5200  0.0303 -0.3770
12187SOL    HW139515   0.264   6.256   6.908 -0.0182 -1.1202 -0.9906
12187SOL    HW239516   0.298   6.353   6.797 -1.0551  0.8715  0.3759
12188SOL     OW39517   4.192   0.996   4.202 -0.1529 -0.2898 -0.5543
12188SOL    HW139518   4.279   0.995   4.163 -0.7700  0.1668 -2.0255
12188SOL    HW239519   4.192   0.922   4.263  1.0001 -0.7777 -1.1145
12189SOL     OW39520   2.191   3.765   4.740  0.0610 -0.3946  0.3422
12189SOL    HW139521   2.246   3.841   4.726  0.0844 -0.5254 -0.2911
12189SOL    HW239522   2.252   3.691   4.740 -0.1294 -0.5676 -0.6365
12190SOL     OW39523   7.569   1.841   0.461 -0.3027  0.1443  0.2442
12190SOL    HW139524   7.569   1.877   0.373  0.0628 -0.1582  0.1189
12190SOL    HW239525   7.661   1.838   0.486 -0.3891  0.0402  0.5604
12191SOL     OW39526   5.811   3.888   3.880  0.0657 -0.0617  0.2957
12191SOL    HW139527   5.771   3.831   3.814  0.1743  0.1150  0.0728
12191SOL    HW239528   5.761   3.872   3.960  1.7620 -2.4920  0.9895
12192SOL     OW39529   5.321   6.044   0.417 -0.3749  0.6776  0.0832
12192SOL    HW139530   5.351   5.985   0.348  1.9934  2.7560 -0.8280
12192SOL    HW239531   5.260   6.103   0.373 -0.1773  0.9527  0.1795
12193SOL     OW39532   6.454   4.252   6.504 -0.3311 -0.1313 -0.1704
12193SOL    HW139533   6.518   4.302   6.453 -1.7283  1.1599 -0.7413
12193SOL    HW239534   6.492   4.244   6.591  0.1378  1.5887 -0.1891
12194SOL     OW39535   6.773   3.573   1.375  0.0487  0.5225  0.0079
12194SOL    HW139536   6.818   3.644   1.329 -0.1098 -0.0930 -1.1218
12194SOL    HW239537   6.838   3.543   1.439  0.6121  0.8020 -0.4157
12195SOL     OW39538   6.898   4.040   0.040 -0.5894 -0.2558 -0.3075
12195SOL    HW139539   6.875   4.058  -0.052 -0.8460 -0.9611 -0.3890
12195SOL    HW239540   6.972   3.980   0.035  0.2722  0.7551 -0.0398
12196SOL     OW39541   3.527   3.847   0.455 -0.1261 -0.5733  0.3455
12196SOL    HW139542   3.549   3.880   0.368  1.8927 -1.4627  0.4488
12196SOL    HW239543   3.474   3.768   0.438 -0.5159 -0.2353 -0.0320
12197SOL     OW39544   7.826   0.217   5.575  0.0782 -0.1307 -0.2730
12197SOL    HW139545   7.857   0.175   5.494  0.5138  2.0115 -1.2794
12197SOL    HW239546   7.887   0.288   5.590 -1.5844  1.2181  0.3956
12198SOL     OW39547   4.102   1.472   7.082 -0.3026  0.2525  0.5934
12198SOL    HW139548   4.071   1.427   7.161  0.3821  0.3191  0.9166
12198SOL    HW239549   4.197   1.459   7.084 -0.2797  0.2449 -0.2350
12199SOL     OW39550   4.149   3.004   7.926 -0.1130  0.3219  0.1926
12199SOL    HW139551   4.195   3.032   7.848  1.1381 -1.7674  0.0952
12199SOL    HW239552   4.211   3.018   7.998  0.5218 -1.9008  0.1488
12200SOL     OW39553   0.401   1.032   2.502 -0.3765 -0.0436  0.5299
12200SOL    HW139554   0.459   0.956   2.505 -1.0174 -0.5125  1.2782
12200SOL    HW239555   0.417   1.071   2.416  1.6104  0.2932  1.0005
12201SOL     OW39556   0.176   4.024   6.553 -0.2135 -0.0712 -0.2056
12201SOL    HW139557   0.264   3.987   6.544  1.4512  2.7590  2.7574
12201SOL    HW239558   0.171   4.091   6.485 -0.2333 -0.4567 -0.5888
12202SOL     OW39559   6.219   4.251   0.574 -0.1164  0.1331  0.2379
12202SOL    HW139560   6.124   4.269   0.574 -0.2062 -0.3344  0.5874
12202SOL    HW239561   6.226   4.161   0.604  0.4263  0.0576 -0.1160
12203SOL     OW39562   1.363   1.628   2.131 -0.4513  0.2117  0.3085
12203SOL    HW139563   1.395   1.596   2.216  0.6492  1.2546  0.3223
12203SOL    HW239564   1.379   1.555   2.070 -1.4440 -0.6256  1.0100
12204SOL     OW39565   2.611   7.786   7.423 -0.3434  0.3124 -0.5289
12204SOL    HW139566   2.707   7.791   7.423 -0.2932 -0.4975 -0.7431
12204SOL    HW239567   2.585   7.827   7.341 -0.1221 -0.3551 -0.9346
12205SOL     OW39568   4.694   0.329   7.130 -0.2605  0.0003 -0.0543
12205SOL    HW139569   4.755   0.348   7.059 -1.6185  0.8497 -1.0422
12205SOL    HW239570   4.655   0.413   7.153 -0.5775 -0.4127  1.0307
12206SOL     OW39571   8.015   4.056   1.644 -0.3540 -0.0507  0.3258
12206SOL    HW139572   8.107   4.050   1.619 -0.8324  0.7493 -1.8052
12206SOL    HW239573   7.973   3.983   1.598 -0.9925  0.3031  0.3417
12207SOL     OW39574   2.864   5.104   4.574  0.5981 -0.1640 -0.1194
12207SOL    HW139575   2.935   5.141   4.626 -0.1856 -2.2001  2.6433
12207SOL    HW239576   2.859   5.012   4.601 -2.1705 -0.4428 -1.1901
12208SOL     OW39577   1.568   0.273   6.149  0.0756 -0.1985  0.4335
12208SOL    HW139578   1.481   0.313   6.149  0.4549  0.6544  1.3650
12208SOL    HW239579   1.628   0.344   6.173  0.9796 -0.8941  0.3171
12209SOL     OW39580   6.285   5.066   5.841  0.0074  0.0388  0.0246
12209SOL    HW139581   6.194   5.044   5.861  0.0863  1.1360  1.8134
12209SOL    HW239582   6.325   4.983   5.813 -1.0913 -0.8453  1.0052
12210SOL     OW39583   3.020   2.013   2.485 -0.2217 -0.4631  0.1884
12210SOL    HW139584   2.964   2.000   2.561  1.6088 -1.9444  1.3724
12210SOL    HW239585   3.015   1.931   2.437  2.1360 -1.3091  1.2267
12211SOL     OW39586   6.878   3.954   4.006 -0.2076 -0.6762 -0.3313
12211SOL    HW139587   6.918   4.024   3.955  0.4086 -0.7692  0.0247
12211SOL    HW239588   6.874   3.880   3.946 -0.0351 -0.6076 -0.4266
12212SOL     OW39589   6.197   6.578   0.130  0.2620  0.0051 -0.4081
12212SOL    HW139590   6.255   6.625   0.190 -1.7412  0.9736  0.8606
12212SOL    HW239591   6.147   6.519   0.186 -2.7382  1.9984 -0.7195
12213SOL     OW39592   2.421   2.721   1.736 -0.3358  0.2862  0.4261
12213SOL    HW139593   2.500   2.752   1.690 -1.2114  0.6479 -0.8998
12213SOL    HW239594   2.393   2.645   1.686 -1.1163  0.4761  0.5616
12214SOL     OW39595   2.858   6.917   7.563 -0.0340 -0.4397  0.0913
12214SOL    HW139596   2.879   6.843   7.621  1.4743  0.3506  0.6153
12214SOL    HW239597   2.891   6.994   7.610  0.6127  0.3057 -1.5168
12215SOL     OW39598   3.099   0.523   4.135 -0.0628 -0.2447  0.0962
12215SOL    HW139599   3.166   0.585   4.164 -0.5361  1.6287 -2.4045
12215SOL    HW239600   3.064   0.485   4.215  1.3107  1.6256  1.6730
12216SOL     OW39601   1.965   0.877   0.261  0.3688 -0.2230 -0.0814
12216SOL    HW139602   1.925   0.964   0.253 -1.4603 -1.1059 -1.2666
12216SOL    HW239603   2.059   0.894   0.267 -0.0688  1.9218  1.8181
12217SOL     OW39604   4.604   7.776   5.300 -0.1684 -0.7220  0.1090
12217SOL    HW139605   4.566   7.840   5.360  1.1982 -0.9384  1.2673
12217SOL    HW239606   4.698   7.793   5.304  0.2709 -2.9932  0.7075
12218SOL     OW39607   4.587   6.815   1.767  0.4126 -0.5664 -0.1077
12218SOL    HW139608   4.631   6.872   1.704  0.9805 -1.4094 -0.4971
12218SOL    HW239609   4.657   6.779   1.821  0.2735 -2.1402 -0.9173
12219SOL     OW39610   1.546   5.988   0.582 -0.3176 -0.4784 -0.2744
12219SOL    HW139611   1.610   5.934   0.630 -1.7028 -1.4080  0.5841
12219SOL    HW239612   1.509   6.046   0.649 -0.4244  0.0127 -0.7565
12220SOL     OW39613   4.811   1.470   2.004  0.1457 -0.3594  0.0639
12220SOL    HW139614   4.900   1.453   1.974 -0.1272 -0.8564 -0.4752
12220SOL    HW239615   4.762   1.392   1.979 -0.2857 -0.4095  1.0255
12221SOL     OW39616   6.438   1.944   2.024  0.1663 -0.0799 -0.3196
12221SOL    HW139617   6.369   2.010   2.034  0.8053  0.7393 -1.1444
12221SOL    HW239618   6.459   1.945   1.930  1.6546  0.0757 -0.0142
12222SOL     OW39619   6.963   4.505   1.735 -0.4467  0.1142 -0.5345
12222SOL    HW139620   7.049   4.534   1.705 -0.8411  1.1200 -0.7336
12222SOL    HW239621   6.982   4.436   1.799  0.5118  0.4275 -0.4618
12223SOL     OW39622   3.876   1.100   7.337  0.4140  0.4419  0.2690
12223SOL    HW139623   3.886   1.015   7.296  1.4476 -0.1695  1.6988
12223SOL    HW239624   3.822   1.084   7.414  0.7315  1.0509  0.6304
12224SOL     OW39625   1.205   3.869   0.654  0.8101 -0.3769  0.0843
12224SOL    HW139626   1.247   3.822   0.582  2.6427 -0.3408  1.0680
12224SOL    HW239627   1.125   3.819   0.672  1.3853 -1.5957 -0.6181
12225SOL     OW39628   1.776   1.107   2.082 -0.1379  0.1567 -0.7373
12225SOL    HW139629   1.859   1.108   2.131 -0.1533  0.4282 -0.7140
12225SOL    HW239630   1.716   1.157   2.137 -0.7696 -1.3547  0.0100
12226SOL     OW39631   6.776   3.036   6.699 -0.3472 -0.1888  0.1047
12226SOL    HW139632   6.803   2.987   6.621 -0.7909  0.1746 -0.2817
12226SOL    HW239633   6.789   2.974   6.772 -1.9230 -1.2891 -0.4957
12227SOL     OW39634   1.096   2.726   0.136  0.3614  0.1201  0.0854
12227SOL    HW139635   1.129   2.706   0.223 -2.7105  0.5172  1.4916
12227SOL    HW239636   1.040   2.652   0.113 -1.0470  1.2131 -0.2403
12228SOL     OW39637   4.788   7.861   4.556 -0.3143 -0.1323 -0.5755
12228SOL    HW139638   4.776   7.797   4.485  0.1463 -1.2657  0.3330
12228SOL    HW239639   4.842   7.815   4.620  1.2392  1.6854 -0.5128
12229SOL     OW39640   3.888   2.188   3.653 -0.2222 -0.1253 -0.4662
12229SOL    HW139641   3.955   2.219   3.592 -0.8881  0.5395 -0.8854
12229SOL    HW239642   3.867   2.100   3.623  0.7518 -0.5091 -0.0697
12230SOL     OW39643   5.155   7.681   1.498 -0.7828 -0.4265  0.0782
12230SOL    HW139644   5.069   7.695   1.538 -1.2558  0.2434 -1.1239
12230SOL    HW239645   5.210   7.750   1.535 -0.1799 -2.0113  2.3450
12231SOL     OW39646   6.104   3.654   5.058  0.4843 -0.3416 -0.1502
12231SOL    HW139647   6.026   3.696   5.023  0.2120 -0.8347 -0.1435
12231SOL    HW239648   6.090   3.651   5.152  0.9324  0.4094 -0.0519
12232SOL     OW39649   6.197   0.669   6.643  0.3369 -0.3811  0.2237
12232SOL    HW139650   6.166   0.588   6.603  0.3799 -1.0561  1.5054
12232SOL    HW239651   6.121   0.727   6.641  0.6074 -0.0183 -1.7010
12233SOL     OW39652   0.958   3.277   6.494  0.4721 -0.0214 -0.5684
12233SOL    HW139653   1.020   3.286   6.566 -0.5785 -1.1569  0.5393
12233SOL    HW239654   1.012   3.281   6.415  1.4276  3.4169  0.0907
12234SOL     OW39655   7.501   0.398   1.845  0.0101  0.1582  0.7630
12234SOL    HW139656   7.472   0.444   1.766  1.3137  0.8550  0.6613
12234SOL    HW239657   7.434   0.418   1.910 -0.2812  0.8783  0.2594
12235SOL     OW39658   2.014   6.217   5.159 -0.2866 -0.0216 -0.4764
12235SOL    HW139659   2.072   6.236   5.086  0.4091  0.4294  0.1885
12235SOL    HW239660   1.967   6.299   5.175  1.4197  0.6789  1.2254
12236SOL     OW39661   1.893   7.606   6.991  0.3311 -0.2057 -0.2086
12236SOL    HW139662   1.821   7.633   7.048  0.7834  2.2353 -0.6992
12236SOL    HW239663   1.849   7.564   6.916 -0.6028  1.0870 -0.4239
12237SOL     OW39664   1.276   4.209   1.644 -0.2240  0.4435 -0.3502
12237SOL    HW139665   1.278   4.119   1.677 -2.4231  0.2254 -0.6886
12237SOL    HW239666   1.214   4.207   1.572 -0.0551  2.1890 -0.5865
12238SOL     OW39667   2.947   2.743   3.801  0.0462 -0.1704 -0.1974
12238SOL    HW139668   2.921   2.819   3.748 -0.7679  0.5548  1.1826
12238SOL    HW239669   3.012   2.697   3.747  2.0027  2.5267 -0.3434
12239SOL     OW39670   3.911   1.779   4.291 -0.0872 -0.4602 -0.1007
12239SOL    HW139671   3.991   1.825   4.315 -0.8289  0.5166  0.5818
12239SOL    HW239672   3.850   1.848   4.266  0.2561 -1.3281 -3.8392
12240SOL     OW39673   5.318   3.227   7.214  0.3369 -0.0032  0.2921
12240SOL    HW139674   5.380   3.292   7.246  1.6808 -0.3864 -1.3905
12240SOL    HW239675   5.295   3.176   7.291 -0.5169  2.2202  1.5878
12241SOL     OW39676   1.515   4.263   5.987  0.1774  0.6936  0.3138
12241SOL    HW139677   1.534   4.309   6.069  1.5862 -0.3451  0.6208
12241SOL    HW239678   1.543   4.324   5.918  0.3514  1.0044  0.6571
12242SOL     OW39679   3.874   7.026   3.365  0.3624 -0.2940  0.3049
12242SOL    HW139680   3.897   7.079   3.288 -0.1743 -1.9976 -1.0990
12242SOL    HW239681   3.954   6.979   3.387  0.4902  0.1251  0.7493
12243SOL     OW39682   6.300   7.626   7.587  0.4202  0.6449 -0.2131
12243SOL    HW139683   6.304   7.541   7.632  1.3709 -1.0414 -3.1803
12243SOL    HW239684   6.239   7.678   7.639 -3.8451 -3.3587 -0.5578
12244SOL     OW39685   4.171   1.935   0.274 -0.3182  0.6464  0.3961
12244SOL    HW139686   4.146   2.016   0.318 -1.3978  0.7961 -0.4604
12244SOL    HW239687   4.110   1.928   0.200 -0.0022 -0.7629  0.2511
12245SOL     OW39688   5.079   1.617   0.050  0.1555 -0.1266 -0.1087
12245SOL    HW139689   5.099   1.619  -0.044  0.8301 -1.4538 -0.0204
12245SOL    HW239690   4.995   1.661   0.058 -0.6718 -1.3560 -1.5511
12246SOL     OW39691   0.596   6.495   7.168  0.1238  1.2093 -0.2015
12246SOL    HW139692   0.666   6.434   7.146 -1.4387 -1.2846  1.3127
12246SOL    HW239693   0.563   6.526   7.084  1.2484  0.3072 -1.0004
12247SOL     OW39694   3.652   1.393   0.823 -0.1433  0.3329  0.1279
12247SOL    HW139695   3.729   1.343   0.851  0.2898  0.3240 -1.0175
12247SOL    HW239696   3.578   1.346   0.861  0.1598 -1.9372 -1.8289
12248SOL     OW39697   2.193   7.493   3.178  0.3425 -0.2552  0.0314
12248SOL    HW139698   2.220   7.538   3.098  0.7957 -1.0281 -0.2560
12248SOL    HW239699   2.241   7.539   3.248 -1.5295  1.6985  0.1224
12249SOL     OW39700   7.725   8.134   7.165  0.2766  0.2889  0.2457
12249SOL    HW139701   7.686   8.056   7.125  1.0590 -0.1287  0.2684
12249SOL    HW239702   7.659   8.166   7.226  0.2054 -0.7571  0.7342
12250SOL     OW39703   3.793   0.588   6.321  0.5830  0.8046 -0.6663
12250SOL    HW139704   3.701   0.584   6.346  0.8620  1.4585  0.5270
12250SOL    HW239705   3.791   0.616   6.229 -0.4363 -0.9032 -1.2108
12251SOL     OW39706   7.936   5.217   3.339 -0.1219 -0.0163  0.5541
12251SOL    HW139707   7.901   5.242   3.253 -0.7390 -2.4408  0.0208
12251SOL    HW239708   7.877   5.258   3.402 -1.6757 -0.8927 -0.2760
12252SOL     OW39709   2.800   2.765   2.470  0.2191  0.3397 -0.6544
12252SOL    HW139710   2.846   2.768   2.386  0.3286 -1.5151 -0.6974
12252SOL    HW239711   2.868   2.786   2.535  0.4086  0.6059 -0.9337
12253SOL     OW39712   4.823   3.358   6.949 -0.3661 -0.2494 -0.3617
12253SOL    HW139713   4.884   3.314   7.008  0.5880  3.3671  1.6400
12253SOL    HW239714   4.868   3.357   6.864  0.5185 -1.2375  0.0899
12254SOL     OW39715   0.363   3.238   6.829 -0.1859  0.1447 -0.1297
12254SOL    HW139716   0.363   3.238   6.733  0.4141  1.2191 -0.1410
12254SOL    HW239717   0.293   3.178   6.853 -1.2620  0.9212 -1.2495
12255SOL     OW39718   6.404   5.310   5.741  0.3909 -0.1305  0.0785
12255SOL    HW139719   6.361   5.230   5.771 -0.3088  0.2472  0.0951
12255SOL    HW239720   6.494   5.283   5.722  0.4168 -0.7045  0.9981
12256SOL     OW39721   4.974   0.718   5.579 -0.5328  0.7329 -0.3060
12256SOL    HW139722   5.043   0.708   5.512 -1.2748  1.6036 -1.2186
12256SOL    HW239723   4.923   0.794   5.551  0.3563  2.4657  2.3535
12257SOL     OW39724   0.915   1.578   5.997 -0.3406 -0.3273  0.8334
12257SOL    HW139725   0.934   1.514   6.066 -1.9251 -1.7541  0.0409
12257SOL    HW239726   0.830   1.615   6.022  1.9180  4.0519  3.0298
12258SOL     OW39727   0.916   6.773   4.521 -0.4979 -0.1268 -0.0892
12258SOL    HW139728   0.947   6.685   4.500 -0.1107  0.1854 -0.8662
12258SOL    HW239729   0.930   6.781   4.616  1.6736 -0.0722 -0.3591
12259SOL     OW39730   0.928   6.154   0.187  0.7390 -0.5347  0.3285
12259SOL    HW139731   0.889   6.090   0.247  1.0263  1.0591  2.3495
12259SOL    HW239732   0.963   6.102   0.115 -1.3070 -2.3878  0.5782
12260SOL     OW39733   3.110   7.172   6.543  0.0962 -0.2581  0.9087
12260SOL    HW139734   3.139   7.162   6.452 -0.5625 -0.4234  0.7129
12260SOL    HW239735   3.187   7.207   6.588 -0.0102  1.2556 -0.0101
12261SOL     OW39736   6.122   6.593   6.823  0.1499 -0.3445  0.4361
12261SOL    HW139737   6.217   6.580   6.817  0.3529  1.5285 -2.2633
12261SOL    HW239738   6.112   6.671   6.877  0.1382 -0.4411  0.5751
12262SOL     OW39739   0.370   1.932   6.424  0.1375 -0.6669 -0.1047
12262SOL    HW139740   0.348   1.846   6.459 -1.6641 -0.2637 -0.1590
12262SOL    HW239741   0.291   1.985   6.437  1.2599  1.0465  0.0863
12263SOL     OW39742   5.743   1.909   2.400 -0.0141  0.3221  0.0778
12263SOL    HW139743   5.818   1.941   2.450 -0.5525  2.1091 -0.1932
12263SOL    HW239744   5.689   1.987   2.385 -0.7095 -0.4734 -1.8285
12264SOL     OW39745   1.124   0.911   7.399  0.4842 -0.4330 -0.2136
12264SOL    HW139746   1.153   0.851   7.467 -0.0110 -2.5664 -1.7730
12264SOL    HW239747   1.173   0.885   7.321 -0.6735  0.3493 -1.2562
12265SOL     OW39748   2.461   3.119   8.043  0.9877 -0.2590 -1.1281
12265SOL    HW139749   2.406   3.091   7.970  0.4167 -0.4003 -0.6542
12265SOL    HW239750   2.495   3.204   8.016  0.8822 -0.3644 -1.6073
12266SOL     OW39751   4.914   3.815   2.088  0.1340  0.5044  0.5153
12266SOL    HW139752   4.868   3.770   2.017 -0.4590  0.8283  0.6824
12266SOL    HW239753   4.970   3.879   2.043  0.7349 -0.1725  0.2927
12267SOL     OW39754   4.165   1.809   5.108 -0.4869  0.3661  0.3407
12267SOL    HW139755   4.165   1.889   5.160  2.0216 -0.5490  1.9397
12267SOL    HW239756   4.254   1.803   5.073 -0.9954 -1.0753 -0.8031
12268SOL     OW39757   1.254   7.171   6.546  0.6194 -0.1252 -0.4754
12268SOL    HW139758   1.240   7.149   6.638  0.7269  1.5012 -0.0364
12268SOL    HW239759   1.176   7.138   6.502 -0.2275  0.5289  0.4752
12269SOL     OW39760   5.247   2.992   1.487  0.0576  0.3186 -0.4623
12269SOL    HW139761   5.333   2.957   1.466 -0.0176  0.2185 -0.6087
12269SOL    HW239762   5.187   2.945   1.429 -0.4496 -1.4303  1.3633
12270SOL     OW39763   3.146   7.628   6.161  0.1394 -0.1794 -0.6710
12270SOL    HW139764   3.218   7.594   6.214 -0.4500 -3.1392 -1.6067
12270SOL    HW239765   3.188   7.668   6.085  0.8256 -0.4205 -0.4243
12271SOL     OW39766   3.415   5.871   8.089  0.6909  0.0233  0.1297
12271SOL    HW139767   3.465   5.900   8.165  0.4236  0.8670 -0.0016
12271SOL    HW239768   3.474   5.812   8.042  1.8455  1.5156 -0.3836
12272SOL     OW39769   4.397   2.011   3.559  0.0109 -0.0282 -0.3272
12272SOL    HW139770   4.343   1.997   3.482 -0.9629  1.0687  0.1346
12272SOL    HW239771   4.380   1.934   3.614 -0.5580 -0.0207 -0.4863
12273SOL     OW39772   3.201   2.601   3.757  0.0615  0.3893  0.2902
12273SOL    HW139773   3.272   2.585   3.819  1.7374  0.8224 -1.4156
12273SOL    HW239774   3.227   2.681   3.711  0.2158 -1.2522 -2.7016
12274SOL     OW39775   6.010   3.553   5.720  0.9054  0.0004  0.2283
12274SOL    HW139776   5.923   3.591   5.731  0.4927 -0.9155  0.2071
12274SOL    HW239777   6.017   3.488   5.790  1.7654  0.3890  0.5213
12275SOL     OW39778   4.774   6.070   7.652 -0.4482 -0.5112  0.5972
12275SOL    HW139779   4.835   6.118   7.708 -1.1986  1.6223 -0.3088
12275SOL    HW239780   4.830   6.033   7.583  0.0777 -0.3627  0.9352
12276SOL     OW39781   4.000   8.112   6.885  0.0031  0.0793 -0.1669
12276SOL    HW139782   3.905   8.113   6.888 -0.0045 -0.4998 -0.2515
12276SOL    HW239783   4.026   8.170   6.957 -0.4022 -0.7542  0.6694
12277SOL     OW39784   5.077   7.019   5.707  0.0083  0.2602  0.9921
12277SOL    HW139785   5.085   6.990   5.616  1.4616  0.1967  1.1132
12277SOL    HW239786   5.141   7.090   5.715 -0.5751  0.7144  1.7947
12278SOL     OW39787   0.307   6.160   0.175 -0.4020  0.3352 -0.0648
12278SOL    HW139788   0.355   6.119   0.248  0.6948  0.8523 -0.4764
12278SOL    HW239789   0.358   6.138   0.097 -0.4828  1.4110 -0.4442
12279SOL     OW39790   7.575   3.633   4.491 -0.1623 -0.4997  0.0894
12279SOL    HW139791   7.543   3.544   4.477 -0.6152 -0.0913 -1.6624
12279SOL    HW239792   7.661   3.635   4.449 -0.0444 -0.1762  0.3424
12280SOL     OW39793   4.913   4.007   0.527  0.0047  0.0232 -0.3892
12280SOL    HW139794   4.921   4.047   0.614  0.7531 -0.8291 -0.0582
12280SOL    HW239795   4.846   4.060   0.483 -3.1647 -1.6622  1.9521
12281SOL     OW39796   3.617   3.750   2.082  0.2884  0.3704 -0.4549
12281SOL    HW139797   3.597   3.842   2.098  0.1983  0.3485 -0.4406
12281SOL    HW239798   3.621   3.711   2.170  1.1723  0.5345 -0.4144
12282SOL     OW39799   2.566   0.429   3.922 -0.2598 -0.4149  0.1960
12282SOL    HW139800   2.556   0.517   3.959 -1.5791 -1.8375  3.7376
12282SOL    HW239801   2.478   0.406   3.894 -0.4872 -1.4442  1.6476
12283SOL     OW39802   5.905   0.647   4.666  0.4181 -0.4977  0.2463
12283SOL    HW139803   5.906   0.737   4.701  1.5983 -0.6837  0.7225
12283SOL    HW239804   5.993   0.634   4.631  0.2213 -1.4457  0.0902
12284SOL     OW39805   7.609   3.551   7.459 -0.2354  0.5636 -0.1932
12284SOL    HW139806   7.571   3.569   7.545  0.5438 -0.5347  0.4056
12284SOL    HW239807   7.539   3.507   7.411  0.1736 -1.3678  0.8710
12285SOL     OW39808   2.467   2.615   1.003  0.6164 -0.3291 -0.6918
12285SOL    HW139809   2.453   2.689   0.943 -0.2893 -0.3293 -0.4935
12285SOL    HW239810   2.556   2.627   1.035  0.3009  1.0009 -0.2388
12286SOL     OW39811   6.368   3.982   6.537 -0.5352 -0.0476 -0.2180
12286SOL    HW139812   6.424   4.050   6.500 -0.5468 -1.0472 -2.2184
12286SOL    HW239813   6.280   4.005   6.508 -0.9711  0.5879  1.4900
12287SOL     OW39814   4.331   6.044   8.134  0.5513  0.1067  0.6913
12287SOL    HW139815   4.331   6.138   8.118  1.0090  0.0126  0.1061
12287SOL    HW239816   4.423   6.022   8.149  0.3205 -0.0767  1.8898
12288SOL     OW39817   1.587   1.833   4.266 -0.3210 -0.0235  0.0869
12288SOL    HW139818   1.504   1.834   4.218  0.8795 -0.6734 -2.1677
12288SOL    HW239819   1.619   1.923   4.261  1.4335 -0.6457 -3.6475
12289SOL     OW39820   7.711   7.838   5.008 -0.1739  0.6507 -0.5262
12289SOL    HW139821   7.787   7.780   5.005 -0.6435 -0.0709  0.7463
12289SOL    HW239822   7.688   7.853   4.916  0.5637 -0.3694 -0.8896
12290SOL     OW39823   0.909   4.842   5.160 -0.2534 -0.2599  0.2829
12290SOL    HW139824   0.979   4.906   5.147 -0.5498  0.5960  2.5306
12290SOL    HW239825   0.897   4.802   5.074  0.7355  1.8971 -0.9361
12291SOL     OW39826   0.588   6.156   0.283  0.3296  0.2440 -0.0393
12291SOL    HW139827   0.628   6.235   0.247  0.5620  0.0162 -0.2723
12291SOL    HW239828   0.637   6.139   0.363  0.6341  0.0191 -0.2754
12292SOL     OW39829   4.813   2.363   5.951 -0.5168  0.4747  0.1518
12292SOL    HW139830   4.862   2.288   5.917  0.7825  0.7896  1.2776
12292SOL    HW239831   4.734   2.324   5.990  1.8248 -0.8915  4.0996
12293SOL     OW39832   6.143   1.619   3.120 -0.2772  0.5537  0.4511
12293SOL    HW139833   6.165   1.639   3.211  0.5616 -3.0097  1.1857
12293SOL    HW239834   6.050   1.595   3.123 -0.7655  2.2321 -0.0617
12294SOL     OW39835   3.486   3.177   2.870  0.0975  0.1432 -0.1710
12294SOL    HW139836   3.539   3.168   2.949  0.1127 -1.6499 -0.3445
12294SOL    HW239837   3.410   3.120   2.885  0.4022 -0.6924 -1.6693
12295SOL     OW39838   6.250   2.746   7.034 -0.5740 -0.3417 -0.2066
12295SOL    HW139839   6.277   2.837   7.047 -1.4638 -0.1543  0.4273
12295SOL    HW239840   6.155   2.748   7.042 -0.8911 -0.8866 -2.8127
12296SOL     OW39841   2.027   1.484   1.892 -0.3526 -0.4359 -0.3165
12296SOL    HW139842   2.065   1.483   1.980 -0.6867 -1.4012 -0.1700
12296SOL    HW239843   2.041   1.395   1.859  1.8066  0.4728 -2.1380
12297SOL     OW39844   3.548   4.829   6.297 -0.0768 -0.4611  0.2009
12297SOL    HW139845   3.565   4.922   6.311  2.6950 -0.6584 -1.0362
12297SOL    HW239846   3.495   4.802   6.372  0.3617  1.7809  1.3925
12298SOL     OW39847   3.206   5.055   7.748  0.6877  0.1716 -0.5434
12298SOL    HW139848   3.128   5.062   7.802 -0.2418  1.7745 -1.9987
12298SOL    HW239849   3.176   5.010   7.669  1.1915  0.9024 -1.1624
12299SOL     OW39850   2.292   2.231   2.702 -0.4420  0.1999 -0.0558
12299SOL    HW139851   2.384   2.220   2.676 -0.0627 -2.7343  1.9712
12299SOL    HW239852   2.295   2.292   2.776 -0.1557  0.2581 -0.1149
12300SOL     OW39853   1.771   4.621   3.636  0.4617  0.0140 -0.4178
12300SOL    HW139854   1.785   4.541   3.687 -0.3619  0.8079  1.1036
12300SOL    HW239855   1.680   4.616   3.608  0.4784  0.3164 -0.5300
12301SOL     OW39856   2.899   7.161   3.500 -0.3658  0.3146  0.8234
12301SOL    HW139857   2.971   7.102   3.478 -0.2326  0.9990 -0.7067
12301SOL    HW239858   2.827   7.102   3.524 -0.1796 -0.4973 -0.4717
12302SOL     OW39859   4.734   1.519   1.624  0.1408  0.0917 -0.6889
12302SOL    HW139860   4.699   1.440   1.663 -0.8393  0.6695 -0.3603
12302SOL    HW239861   4.707   1.515   1.533  1.4760 -0.7186 -1.0697
12303SOL     OW39862   6.481   1.812   6.288 -0.1210  0.2679  0.2423
12303SOL    HW139863   6.492   1.776   6.376 -0.2966  0.1535  0.2176
12303SOL    HW239864   6.503   1.740   6.229 -1.2926 -0.0670  0.1907
12304SOL     OW39865   2.442   5.402   0.167  1.0260  0.7082  0.0308
12304SOL    HW139866   2.508   5.342   0.200  0.4720  0.9690  1.7275
12304SOL    HW239867   2.358   5.360   0.190  0.5926  0.7367 -1.4042
12305SOL     OW39868   1.634   2.586   7.216 -0.4982  0.4730 -0.0407
12305SOL    HW139869   1.538   2.591   7.212 -0.4687  0.0634 -2.1532
12305SOL    HW239870   1.659   2.540   7.136  1.5935  2.3170 -0.5306
12306SOL     OW39871   0.578   4.968   6.824 -0.2577  0.3985  0.0370
12306SOL    HW139872   0.525   4.928   6.893  1.7895 -0.3599  1.2808
12306SOL    HW239873   0.584   4.901   6.756  0.3121 -0.1107  0.5736
12307SOL     OW39874   0.347   3.332   2.164 -0.3362 -0.1542 -0.0300
12307SOL    HW139875   0.383   3.393   2.100  2.2520  0.4018  1.7827
12307SOL    HW239876   0.364   3.245   2.127 -0.5052  0.1577 -0.8647
12308SOL     OW39877   4.299   1.336   6.439 -1.0436  0.0332 -0.2355
12308SOL    HW139878   4.329   1.323   6.349  1.2910 -1.1990  0.6379
12308SOL    HW239879   4.349   1.273   6.491  0.0326  2.7607  2.3812
12309SOL     OW39880   4.858   5.490   1.597 -0.0783  0.5023 -0.3600
12309SOL    HW139881   4.864   5.426   1.526  0.2405  0.4175 -0.2595
12309SOL    HW239882   4.897   5.446   1.672  3.4311  1.9663 -1.1110
12310SOL     OW39883   0.376   4.683   3.514 -0.1939 -0.0106  0.2162
12310SOL    HW139884   0.453   4.740   3.506  0.3475 -0.9073 -1.6321
12310SOL    HW239885   0.389   4.637   3.597  1.4528 -0.3651 -0.1884
12311SOL     OW39886   1.459   4.363   2.739  0.5229 -0.0491  0.1066
12311SOL    HW139887   1.515   4.305   2.792  1.1375  0.2191 -0.2375
12311SOL    HW239888   1.519   4.430   2.706 -0.1765  0.7741  0.4801
12312SOL     OW39889   5.718   8.019   4.414  0.5570 -0.3516  0.0303
12312SOL    HW139890   5.803   7.986   4.386  0.6716  0.1066 -0.1747
12312SOL    HW239891   5.669   8.030   4.332  0.4541 -0.2014  0.1114
12313SOL     OW39892   2.462   3.160   6.932 -0.4379  0.1006 -0.6834
12313SOL    HW139893   2.429   3.167   7.022  0.8340 -0.1251 -0.1725
12313SOL    HW239894   2.434   3.241   6.890  0.3876  1.0013  0.4275
12314SOL     OW39895   7.610   7.768   6.421  0.5993 -0.4381  0.1414
12314SOL    HW139896   7.665   7.756   6.343 -0.8304 -0.8765 -0.8356
12314SOL    HW239897   7.558   7.845   6.401  2.0736  1.0710  1.8267
12315SOL     OW39898   2.632   2.451   2.973 -0.4403  0.0766 -0.0686
12315SOL    HW139899   2.725   2.474   2.978 -0.2450 -0.5385 -0.7285
12315SOL    HW239900   2.600   2.498   2.897 -0.2479 -1.0928 -0.8931
12316SOL     OW39901   1.552   5.615   5.213 -0.4650 -0.2165 -0.1755
12316SOL    HW139902   1.547   5.710   5.218 -1.7130 -0.2575 -0.2978
12316SOL    HW239903   1.490   5.584   5.278 -0.1384 -0.9457 -0.2043
12317SOL     OW39904   0.214   6.445   0.719 -0.2026 -0.5607  0.3336
12317SOL    HW139905   0.180   6.521   0.671  0.2926  0.7729  2.0085
12317SOL    HW239906   0.258   6.393   0.653  0.9902  1.5123 -0.6016
12318SOL     OW39907   0.514   5.130   4.439 -0.2927 -0.3781  0.1618
12318SOL    HW139908   0.573   5.078   4.493 -2.2068 -0.5269  2.2768
12318SOL    HW239909   0.499   5.210   4.490 -0.5655  0.4280 -1.1397
12319SOL     OW39910   8.095   2.314   5.634  0.2603 -0.2771 -0.2143
12319SOL    HW139911   8.076   2.241   5.693  2.4644 -0.3708  0.4693
12319SOL    HW239912   8.139   2.273   5.559  1.6943  0.3447  0.2630
12320SOL     OW39913   6.344   6.954   5.338 -0.1221  0.6411  0.1198
12320SOL    HW139914   6.349   6.866   5.375 -0.9649  0.5277 -0.0153
12320SOL    HW239915   6.313   6.941   5.248 -1.5957  1.1547  0.5235
12321SOL     OW39916   4.947   7.382   5.771 -0.2900  0.5748  0.3812
12321SOL    HW139917   4.873   7.442   5.779 -0.4079  0.3249  1.1589
12321SOL    HW239918   4.936   7.342   5.685 -0.9508  0.6769  0.4167
12322SOL     OW39919   5.609   1.126   6.512 -0.0322  0.5299 -0.1784
12322SOL    HW139920   5.594   1.174   6.594 -0.6191  2.1416 -1.1989
12322SOL    HW239921   5.587   1.035   6.534  2.9801  0.2242  2.3752
12323SOL     OW39922   1.597   3.635   4.298 -0.2527  0.2982  0.1473
12323SOL    HW139923   1.535   3.697   4.337 -1.0214 -0.3122 -0.0963
12323SOL    HW239924   1.682   3.661   4.334 -0.8817  0.0061  1.9202
12324SOL     OW39925   4.503   7.978   4.393  0.3360  0.2113  0.1045
12324SOL    HW139926   4.552   7.983   4.475  0.2012 -0.7443  0.2440
12324SOL    HW239927   4.411   7.982   4.419  0.2971  0.1241 -0.0210
12325SOL     OW39928   2.149   2.617   3.700 -0.0604  0.2974  0.6616
12325SOL    HW139929   2.215   2.549   3.708 -0.6176 -0.3753 -0.2493
12325SOL    HW239930   2.149   2.641   3.607 -1.2536  0.1082  0.5918
12326SOL     OW39931   5.510   7.806   4.775 -0.1919  0.3922  0.2272
12326SOL    HW139932   5.567   7.813   4.852 -0.5389  2.0060  0.3672
12326SOL    HW239933   5.498   7.712   4.763 -0.0043  0.1041  2.0468
12327SOL     OW39934   5.081   4.266   3.165 -0.7639 -0.1875  0.3635
12327SOL    HW139935   5.120   4.190   3.122 -1.2145  0.4814 -1.2976
12327SOL    HW239936   4.990   4.242   3.180 -1.0592  0.1942 -0.6922
12328SOL     OW39937   2.219   7.624   0.639 -0.0952 -0.7100 -0.5671
12328SOL    HW139938   2.196   7.532   0.649 -3.2732  0.1373  1.6228
12328SOL    HW239939   2.201   7.662   0.725  1.8429  1.8453 -1.1892
12329SOL     OW39940   6.933   3.268   5.870  0.0495 -0.0020  0.1456
12329SOL    HW139941   7.027   3.254   5.886 -0.2061 -0.5240  1.2841
12329SOL    HW239942   6.900   3.307   5.951 -0.5992  0.8422 -0.5012
12330SOL     OW39943   6.459   6.330   4.911  0.1662  0.2432  0.4643
12330SOL    HW139944   6.418   6.317   4.825  0.3961  2.9846 -0.1395
12330SOL    HW239945   6.544   6.369   4.892  0.0626  1.2720  1.9370
12331SOL     OW39946   4.553   6.632   4.336 -0.1151  0.4208  0.3488
12331SOL    HW139947   4.508   6.557   4.297 -1.2117  0.7066  1.0175
12331SOL    HW239948   4.627   6.594   4.383 -0.4549 -0.2145  0.3833
12332SOL     OW39949   3.857   2.268   5.753  0.2299  0.4515  0.2158
12332SOL    HW139950   3.935   2.237   5.799  0.4788 -1.1099 -1.1944
12332SOL    HW239951   3.787   2.210   5.782  0.4430 -0.7244 -1.5022
12333SOL     OW39952   1.920   3.828   1.557 -0.1736  0.0910 -0.0013
12333SOL    HW139953   1.983   3.868   1.617 -2.0416  0.0466  2.1191
12333SOL    HW239954   1.839   3.878   1.570 -1.2211 -1.2873 -0.8936
12334SOL     OW39955   6.731   5.733   5.929 -0.1753  0.5747  0.0515
12334SOL    HW139956   6.756   5.644   5.953  0.7814  0.8302  0.0427
12334SOL    HW239957   6.784   5.753   5.851  0.5186  1.5617  0.7415
12335SOL     OW39958   1.947   5.161   1.769  0.5062 -0.2743 -0.3059
12335SOL    HW139959   1.873   5.213   1.800  0.0795 -1.7395  1.2462
12335SOL    HW239960   1.963   5.193   1.680  2.8872  5.3603  1.6892
12336SOL     OW39961   0.849   0.071   5.190  0.7462  0.2804 -0.0487
12336SOL    HW139962   0.831  -0.022   5.178  1.2906  0.1458  0.1628
12336SOL    HW239963   0.846   0.084   5.284 -1.1001  0.8441 -0.1489
12337SOL     OW39964   4.737   4.468   5.579  0.0996  0.0847 -0.1839
12337SOL    HW139965   4.814   4.523   5.588  0.4811 -0.5949  0.8734
12337SOL    HW239966   4.674   4.521   5.530  1.7638  0.1001 -2.4554
12338SOL     OW39967   6.373   2.625   2.962 -0.4702  0.0596 -0.4862
12338SOL    HW139968   6.326   2.542   2.962  1.8755 -1.3526  0.4823
12338SOL    HW239969   6.438   2.616   2.892  1.3640  0.0641  1.1230
12339SOL     OW39970   7.321   2.487   5.671 -0.4877 -0.2764 -0.2335
12339SOL    HW139971   7.401   2.476   5.619 -0.0213 -2.1472  0.7793
12339SOL    HW239972   7.265   2.543   5.618  0.4508 -1.0873 -2.1821
12340SOL     OW39973   3.710   1.534   0.099 -0.3919 -0.1366 -0.4656
12340SOL    HW139974   3.700   1.615   0.149  0.7405 -0.8876  1.0644
12340SOL    HW239975   3.661   1.469   0.150  2.1173 -1.2701  0.6544
12341SOL     OW39976   3.720   4.866   7.811  0.1180  0.5861  0.5782
12341SOL    HW139977   3.637   4.856   7.764  0.2636  1.6412  0.0597
12341SOL    HW239978   3.723   4.791   7.871 -0.6889 -0.0685 -0.1696
12342SOL     OW39979   6.367   1.686   6.041  0.3864 -0.5145  0.2794
12342SOL    HW139980   6.301   1.732   5.989 -1.0837  0.3745  2.8058
12342SOL    HW239981   6.332   1.598   6.053  0.9235 -0.8515 -0.5113
12343SOL     OW39982   7.116   3.866   0.011  0.1660 -0.4560  0.3758
12343SOL    HW139983   7.087   3.813   0.086  1.2737 -1.6212  0.0233
12343SOL    HW239984   7.206   3.889   0.032 -0.3439  1.5097  0.5998
12344SOL     OW39985   4.301   4.303   0.372  0.7169  0.1233 -0.9700
12344SOL    HW139986   4.242   4.264   0.437  0.8571 -0.2529 -1.0635
12344SOL    HW239987   4.370   4.344   0.424  0.5500  0.2808 -0.8697
12345SOL     OW39988   0.437   0.486   2.760  0.5326 -0.0583 -0.1451
12345SOL    HW139989   0.437   0.496   2.856  0.8866  0.3138 -0.1835
12345SOL    HW239990   0.489   0.560   2.728 -0.3931  0.3838 -0.6845
12346SOL     OW39991   6.711   5.779   7.793  0.4633  0.5449 -0.0457
12346SOL    HW139992   6.805   5.796   7.800  0.3886  0.6317  0.8581
12346SOL    HW239993   6.672   5.830   7.864 -0.3560  1.1258 -0.8722
12347SOL     OW39994   7.708   6.430   7.576 -0.1064 -0.1618 -0.2072
12347SOL    HW139995   7.657   6.388   7.507  2.3023 -2.1429 -0.9651
12347SOL    HW239996   7.765   6.491   7.529 -1.8985  2.3373  0.6583
12348SOL     OW39997   6.765   3.649   6.997 -0.3608  0.0631 -0.6015
12348SOL    HW139998   6.801   3.570   7.037 -0.7028  1.2617  2.2739
12348SOL    HW239999   6.737   3.620   6.910  0.7790 -2.6254 -0.1898
12349SOL     OW40000   4.830   5.010   1.853 -0.5121  0.4204  0.0525
12349SOL    HW140001   4.853   5.069   1.924  0.9878  0.7739 -0.6764
12349SOL    HW240002   4.771   5.061   1.797  1.0042  1.3999 -0.7275
12350SOL     OW40003   6.333   6.662   1.965 -0.1497  0.1372 -0.4564
12350SOL    HW140004   6.305   6.735   2.019  1.3837  1.8086 -1.8046
12350SOL    HW240005   6.408   6.625   2.013  0.7344  1.1453 -1.0150
12351SOL     OW40006   3.640   1.413   4.836  0.3739 -0.5576  0.3757
12351SOL    HW140007   3.560   1.364   4.857 -0.2814 -0.0343 -0.8264
12351SOL    HW240008   3.684   1.423   4.921 -0.9123 -0.7150  1.0958
12352SOL     OW40009   4.000   4.852   6.801 -0.1877 -0.5767 -0.1999
12352SOL    HW140010   4.007   4.760   6.778 -1.2028 -0.4107 -1.2871
12352SOL    HW240011   4.039   4.899   6.728 -0.1975 -0.1266  0.0766
12353SOL     OW40012   4.663   1.174   2.903  0.2826 -0.2372 -0.0982
12353SOL    HW140013   4.732   1.176   2.837  0.3003  0.3696 -0.0709
12353SOL    HW240014   4.582   1.189   2.853 -0.0779 -2.8079 -0.4006
12354SOL     OW40015   4.618   1.681   8.121  0.2266 -0.2138  0.1742
12354SOL    HW140016   4.544   1.621   8.112 -0.9377  1.4097 -1.9914
12354SOL    HW240017   4.597   1.735   8.197 -0.7114  0.0505 -0.2627
12355SOL     OW40018   4.566   5.267   7.575  0.0109  1.0418 -0.2324
12355SOL    HW140019   4.555   5.279   7.670 -0.1788  0.9920 -0.2494
12355SOL    HW240020   4.507   5.331   7.535 -0.0227  0.9578 -0.3179
12356SOL     OW40021   2.303   6.464   0.226  0.0604  0.2560  0.0319
12356SOL    HW140022   2.282   6.371   0.221  3.1115 -0.5737  1.0582
12356SOL    HW240023   2.381   6.474   0.172 -0.5676  2.4160 -0.5887
12357SOL     OW40024   0.156   4.988   7.132  0.5711  0.1365 -0.4705
12357SOL    HW140025   0.088   5.013   7.194  0.0668 -0.9092 -0.5802
12357SOL    HW240026   0.178   4.898   7.155  0.4302 -0.2487 -1.7437
12358SOL     OW40027   4.189   1.409   6.066 -0.0299 -0.1751 -0.2090
12358SOL    HW140028   4.262   1.355   6.098 -0.2255  0.8801  2.2571
12358SOL    HW240029   4.221   1.499   6.074 -0.6032  0.2109 -1.9037
12359SOL     OW40030   2.000   0.350   2.735 -0.1844  0.1329  0.9142
12359SOL    HW140031   1.924   0.378   2.786 -0.3063  0.6315  0.4784
12359SOL    HW240032   1.996   0.404   2.656  0.7459  0.3223  0.9831
12360SOL     OW40033   2.622   7.581   5.321 -0.6371 -0.0847  0.1019
12360SOL    HW140034   2.534   7.549   5.297 -0.8065 -0.3452  1.0409
12360SOL    HW240035   2.667   7.503   5.353  0.1147 -0.0509 -0.8210
12361SOL     OW40036   6.749   2.148   5.780  0.3448 -0.4508  0.0681
12361SOL    HW140037   6.676   2.118   5.835 -1.1315 -0.0540 -1.5627
12361SOL    HW240038   6.743   2.093   5.701 -0.0256  1.5089 -1.3327
12362SOL     OW40039   3.181   6.712   4.624  0.2198  0.0662 -0.5418
12362SOL    HW140040   3.125   6.692   4.548  1.3631 -0.5534 -1.2583
12362SOL    HW240041   3.265   6.670   4.603  1.2029  1.5965  0.1549
12363SOL     OW40042   5.417   7.037   1.772  0.4903 -0.1497 -0.5985
12363SOL    HW140043   5.425   7.053   1.678  0.9661  1.8877 -0.2576
12363SOL    HW240044   5.500   6.996   1.797  0.3663 -0.6864 -1.0591
12364SOL     OW40045   6.365   6.661   7.449 -0.0059  0.1677 -0.0577
12364SOL    HW140046   6.328   6.740   7.410  1.4844  1.5604  1.1965
12364SOL    HW240047   6.351   6.671   7.543  1.4660 -0.3478  0.2551
12365SOL     OW40048   1.406   1.360   7.861  0.6991  0.1181  0.1703
12365SOL    HW140049   1.345   1.287   7.859 -0.5738  1.0934  1.1951
12365SOL    HW240050   1.366   1.426   7.803  0.6144  0.8700  1.0647
12366SOL     OW40051   6.583   7.155   1.201 -0.6535 -1.1647  0.5489
12366SOL    HW140052   6.519   7.189   1.264 -0.6426 -1.3746  0.6701
12366SOL    HW240053   6.656   7.125   1.254 -0.5371 -1.1077  0.4205
12367SOL     OW40054   7.370   6.710   7.603  1.2371 -0.4587 -0.4884
12367SOL    HW140055   7.322   6.734   7.683  0.9484 -3.1433  0.2443
12367SOL    HW240056   7.442   6.656   7.635  2.0036 -0.3547 -1.9793
12368SOL     OW40057   3.130   1.874   1.268  0.1301  0.0188  0.3100
12368SOL    HW140058   3.104   1.864   1.360 -0.2000 -0.9482  0.1213
12368SOL    HW240059   3.065   1.934   1.231 -1.0518 -1.2813  0.1946
12369SOL     OW40060   6.557   4.758   0.301 -0.1255  0.0502 -0.5704
12369SOL    HW140061   6.561   4.766   0.205  0.3418 -0.0455 -0.5636
12369SOL    HW240062   6.468   4.730   0.320 -0.8017  1.8489 -0.8557
12370SOL     OW40063   2.403   7.566   1.131 -0.3491 -0.3669 -0.2533
12370SOL    HW140064   2.458   7.488   1.137 -1.7721 -1.5691 -1.9964
12370SOL    HW240065   2.426   7.606   1.047 -0.7452  0.2304 -0.0890
12371SOL     OW40066   6.508   3.480   0.193  0.0421  0.4674 -0.3238
12371SOL    HW140067   6.479   3.543   0.127  1.7280  2.4009  0.6637
12371SOL    HW240068   6.536   3.404   0.142 -3.9053 -0.4573 -1.4529
12372SOL     OW40069   7.855   7.873   4.669  0.1904  0.3289  0.2913
12372SOL    HW140070   7.796   7.897   4.597 -1.0500 -2.7358  0.1398
12372SOL    HW240071   7.914   7.808   4.630  1.1388  0.4818  1.4351
12373SOL     OW40072   0.096   4.736   5.867  0.3993  0.1901  0.1194
12373SOL    HW140073   0.081   4.697   5.781 -1.9163  1.2667 -0.0512
12373SOL    HW240074   0.127   4.663   5.921  1.7158 -0.5454 -1.5291
12374SOL     OW40075   1.755   4.722   1.189  0.0819  0.3803  0.0212
12374SOL    HW140076   1.746   4.738   1.283 -0.5476 -0.2047  0.0675
12374SOL    HW240077   1.696   4.649   1.171  1.6377 -0.8210 -0.4896
12375SOL     OW40078   2.895   3.873   1.756 -0.6188  0.4619  0.0271
12375SOL    HW140079   2.970   3.858   1.699 -0.7474  0.9697 -0.2783
12375SOL    HW240080   2.931   3.871   1.844  0.0301  2.1866 -0.1647
12376SOL     OW40081   4.337   5.196   1.207 -0.8534  0.1922 -0.1725
12376SOL    HW140082   4.318   5.102   1.216  1.0432 -0.1929  0.1223
12376SOL    HW240083   4.261   5.231   1.160 -1.2384 -1.6265 -0.9909
12377SOL     OW40084   6.803   4.697   0.964 -0.1552 -0.0674  0.4921
12377SOL    HW140085   6.751   4.618   0.949 -0.6533  0.4623 -0.7410
12377SOL    HW240086   6.738   4.764   0.986  0.3352 -0.1678  2.3563
12378SOL     OW40087   3.933   4.074   6.800 -0.4423 -0.4606 -0.1130
12378SOL    HW140088   3.947   4.006   6.866 -2.8499 -1.9110 -0.9714
12378SOL    HW240089   3.912   4.152   6.851 -0.0742 -0.9916  0.8720
12379SOL     OW40090   3.354   1.301   6.023  0.2072  0.0296 -0.4021
12379SOL    HW140091   3.417   1.259   5.965  0.3162 -0.4282  0.0451
12379SOL    HW240092   3.307   1.363   5.966  0.7069  0.0071 -0.8472
12380SOL     OW40093   4.808   3.147   1.608  0.8566 -0.3060 -0.2222
12380SOL    HW140094   4.788   3.058   1.637 -1.3879  0.2710  0.1774
12380SOL    HW240095   4.901   3.158   1.626  0.1749 -0.7721  4.8261
12381SOL     OW40096   5.991   1.209   3.292  0.0493 -0.1133 -0.3010
12381SOL    HW140097   6.048   1.163   3.353  1.0077  0.6783 -0.5723
12381SOL    HW240098   6.015   1.301   3.301 -0.9814  0.2089 -0.6456
12382SOL     OW40099   4.184   7.418   1.612  0.0625 -0.4196 -0.5311
12382SOL    HW140100   4.215   7.354   1.547  1.7756  0.3995 -0.5766
12382SOL    HW240101   4.124   7.475   1.563  0.9106 -0.1446 -1.2662
12383SOL     OW40102   7.904   4.111   2.291  0.4407  0.0355 -0.1110
12383SOL    HW140103   7.868   4.025   2.315 -0.8115  0.9386  1.3715
12383SOL    HW240104   7.842   4.174   2.326  2.8686  1.6638  1.5473
12384SOL     OW40105   0.627   6.433   0.692  0.5622  0.2259  0.0602
12384SOL    HW140106   0.619   6.502   0.626 -0.2032  0.6183  0.5549
12384SOL    HW240107   0.690   6.372   0.654  1.5056  1.3517 -0.2460
12385SOL     OW40108   1.981   7.148   6.527 -0.3668  0.0454 -0.4166
12385SOL    HW140109   1.898   7.192   6.546  0.1304  0.1767  1.7269
12385SOL    HW240110   2.037   7.216   6.490 -1.6551 -0.4146 -3.4765
12386SOL     OW40111   5.543   7.101   0.710 -0.0273  0.4862  0.3061
12386SOL    HW140112   5.580   7.106   0.798  0.6089  0.4559  0.0412
12386SOL    HW240113   5.580   7.022   0.671 -0.4950  0.3651  0.0920
12387SOL     OW40114   5.875   7.265   5.910  0.0964  0.4308  0.3166
12387SOL    HW140115   5.784   7.241   5.927  0.1281 -0.5780 -0.8457
12387SOL    HW240116   5.913   7.276   5.997 -0.6295 -1.1226  0.8668
12388SOL     OW40117   2.827   5.675   2.622  0.1274 -0.3410 -0.1094
12388SOL    HW140118   2.825   5.632   2.708  2.4625  0.4603  0.4253
12388SOL    HW240119   2.825   5.603   2.559  1.7656 -1.1800  0.7226
12389SOL     OW40120   7.285   1.033   4.539 -0.0184  0.2025 -0.0874
12389SOL    HW140121   7.310   0.981   4.462  0.3092 -1.1528  0.8972
12389SOL    HW240122   7.193   1.056   4.524  0.1346  0.2528 -1.0315
12390SOL     OW40123   5.570   6.452   1.346 -0.0725  0.5740  0.6060
12390SOL    HW140124   5.557   6.546   1.357 -0.0680  0.7564 -0.7887
12390SOL    HW240125   5.535   6.433   1.259 -0.5825 -0.8198  1.0934
12391SOL     OW40126   4.010   6.399   4.707 -0.1862  0.1389 -0.3490
12391SOL    HW140127   4.076   6.368   4.645  0.5283 -2.0761  1.3855
12391SOL    HW240128   3.926   6.373   4.668  0.1677 -0.0682 -0.9787
12392SOL     OW40129   2.546   0.458   3.218 -0.5787 -0.1010 -0.6700
12392SOL    HW140130   2.456   0.485   3.232 -1.0270 -1.3576 -0.9606
12392SOL    HW240131   2.562   0.473   3.125 -1.1185 -1.5813 -1.0252
12393SOL     OW40132   6.273   2.867   6.253  0.2747 -0.1261  0.5294
12393SOL    HW140133   6.258   2.776   6.226 -2.4373  0.5310 -0.5114
12393SOL    HW240134   6.328   2.904   6.184 -0.9323 -0.2724 -0.5395
12394SOL     OW40135   7.135   7.344   5.625 -0.1382 -1.2024  0.0908
12394SOL    HW140136   7.131   7.431   5.585 -2.2916 -0.6399  1.4011
12394SOL    HW240137   7.229   7.330   5.641  0.1204  2.1301  2.4390
12395SOL     OW40138   3.610   4.029   2.151 -0.9778  0.0353  0.2233
12395SOL    HW140139   3.650   4.052   2.236 -0.0543  0.6750 -0.3659
12395SOL    HW240140   3.523   4.069   2.154 -1.0830 -0.2361  1.0053
12396SOL     OW40141   6.925   6.395   3.936 -0.1633  0.0044  0.1971
12396SOL    HW140142   6.868   6.322   3.959  0.9271 -0.8096  0.4235
12396SOL    HW240143   6.885   6.433   3.857 -0.1078 -1.5997 -0.6367
12397SOL     OW40144   1.132   7.843   6.588 -0.0614 -0.3720 -0.3069
12397SOL    HW140145   1.175   7.774   6.637  0.7438  0.2230 -0.1579
12397SOL    HW240146   1.044   7.848   6.625  0.4714 -0.0446  0.9795
12398SOL     OW40147   2.892   0.997   0.900  0.8728  0.4533 -0.1060
12398SOL    HW140148   2.962   0.932   0.895  0.6628  0.2244 -0.0948
12398SOL    HW240149   2.922   1.068   0.843  0.3798 -0.3414 -1.4247
12399SOL     OW40150   3.269   7.627   5.779 -0.0485 -0.0737 -0.3625
12399SOL    HW140151   3.346   7.640   5.724  0.4679  0.6188  0.5019
12399SOL    HW240152   3.197   7.620   5.717  0.4653  1.0663 -1.1388
12400SOL     OW40153   4.621   0.685   3.524  0.0634 -0.0026 -0.2115
12400SOL    HW140154   4.674   0.755   3.562 -1.0436 -0.2393  1.8744
12400SOL    HW240155   4.577   0.727   3.450  2.4198  0.4076 -1.5191
12401SOL     OW40156   5.148   1.113   7.429  0.7514  0.1636  0.6364
12401SOL    HW140157   5.079   1.117   7.363  1.5648  1.8867 -0.1517
12401SOL    HW240158   5.110   1.156   7.506  0.9223  1.1026  0.2067
12402SOL     OW40159   7.822   0.731   4.570 -0.4326 -0.5934  0.6653
12402SOL    HW140160   7.786   0.712   4.483 -0.1993  1.8303 -0.0535
12402SOL    HW240161   7.765   0.683   4.630 -0.8560 -2.0094 -0.7859
12403SOL     OW40162   4.676   4.068   1.883  0.1970  0.0592 -0.0644
12403SOL    HW140163   4.766   4.048   1.858  0.6262  0.7278  0.9194
12403SOL    HW240164   4.625   4.051   1.803  1.1617 -0.4583 -0.5907
12404SOL     OW40165   5.890   4.071   7.697  0.6502 -0.1381 -0.0569
12404SOL    HW140166   5.887   4.029   7.610 -0.2426 -1.0918  0.4078
12404SOL    HW240167   5.951   4.144   7.686 -0.2732  0.4302 -1.7864
12405SOL     OW40168   3.019   7.268   2.339  0.0765  0.2630 -0.1733
12405SOL    HW140169   3.062   7.351   2.321 -0.2522  0.1031 -1.7705
12405SOL    HW240170   2.934   7.293   2.375  1.0719  0.5738  2.1867
12406SOL     OW40171   2.401   7.183   0.492 -0.3370 -0.2841  0.3186
12406SOL    HW140172   2.350   7.116   0.537 -1.0722 -1.3910 -1.9939
12406SOL    HW240173   2.357   7.194   0.408  1.5649  0.8798 -0.5926
12407SOL     OW40174   3.776   5.754   3.480 -0.4878 -0.4534  0.0947
12407SOL    HW140175   3.782   5.801   3.397  0.1630 -0.6684  0.0174
12407SOL    HW240176   3.863   5.763   3.519 -0.7456 -0.4877  0.6814
12408SOL     OW40177   8.103   4.316   2.618 -0.1348  0.5100  0.3330
12408SOL    HW140178   8.163   4.380   2.657  1.2809  0.2734 -1.3366
12408SOL    HW240179   8.098   4.341   2.526 -0.9131 -0.7852  0.0043
12409SOL     OW40180   6.209   4.487   2.409 -0.5136 -0.2127  0.2868
12409SOL    HW140181   6.170   4.481   2.322  0.9659 -2.7231 -0.3044
12409SOL    HW240182   6.184   4.405   2.452  1.5072 -0.5483  0.9569
12410SOL     OW40183   3.213   6.557   1.378  0.0418 -0.1080 -0.3194
12410SOL    HW140184   3.229   6.633   1.435 -0.7187 -1.8017  2.3241
12410SOL    HW240185   3.129   6.576   1.336 -0.5714  0.1871  0.9757
12411SOL     OW40186   4.592   8.091   7.813 -0.0467  0.4581 -0.1462
12411SOL    HW140187   4.639   8.162   7.769 -0.4345  0.2368 -0.9491
12411SOL    HW240188   4.632   8.085   7.900 -0.4232  2.0542  0.1562
12412SOL     OW40189   4.037   7.578   3.060 -0.2538  0.0132 -0.3082
12412SOL    HW140190   4.066   7.616   3.143  2.8697  0.2247 -1.3598
12412SOL    HW240191   3.941   7.575   3.067 -0.4053  3.5002  1.8072
12413SOL     OW40192   4.543   2.447   0.871  0.3260  0.6546 -0.4368
12413SOL    HW140193   4.516   2.360   0.900  2.8067 -0.8313 -2.1312
12413SOL    HW240194   4.603   2.477   0.939 -0.3474  0.9381  0.0343
12414SOL     OW40195   2.612   2.611   3.751  0.2221  0.5972 -0.1622
12414SOL    HW140196   2.584   2.610   3.842 -1.2594  0.0198 -0.5922
12414SOL    HW240197   2.612   2.704   3.727  0.7870  0.7640  0.4571
12415SOL     OW40198   2.284   5.964   5.421 -0.1366  0.1910  0.6287
12415SOL    HW140199   2.335   5.995   5.496 -0.2474  0.4878  0.5834
12415SOL    HW240200   2.275   6.041   5.365 -0.7926  0.1948  0.7306
12416SOL     OW40201   2.679   4.655   1.310 -0.0733 -0.2165  0.2515
12416SOL    HW140202   2.599   4.678   1.262  1.2430  3.5974 -0.4994
12416SOL    HW240203   2.686   4.721   1.378  2.5941 -0.2065  0.0669
12417SOL     OW40204   3.130   0.145   2.601 -0.3384 -0.4906 -0.1223
12417SOL    HW140205   3.056   0.158   2.542 -0.4085 -0.9939 -0.1463
12417SOL    HW240206   3.099   0.177   2.686  0.3786  1.9969 -0.7091
12418SOL     OW40207   1.643   8.041   7.564  0.4980 -0.6868  0.4160
12418SOL    HW140208   1.733   8.014   7.584  0.5346 -0.0997  1.0759
12418SOL    HW240209   1.638   8.131   7.595 -0.3403 -0.7337  0.4246
12419SOL     OW40210   5.987   3.366   6.721 -0.1282  0.1911 -0.2212
12419SOL    HW140211   5.900   3.395   6.750 -0.0048  0.0034  0.3471
12419SOL    HW240212   5.970   3.296   6.658 -0.3876  0.0236  0.0329
12420SOL     OW40213   3.014   6.796   1.972  0.2024  0.4758 -0.0541
12420SOL    HW140214   3.092   6.851   1.977 -0.2861  1.6030 -2.8313
12420SOL    HW240215   2.954   6.834   2.036  1.3406  0.5565  0.9967
12421SOL     OW40216   6.946   1.161   1.001  0.0755 -0.4770  0.0116
12421SOL    HW140217   6.978   1.167   0.911  0.3571  0.8031  0.1670
12421SOL    HW240218   6.890   1.238   1.011 -0.1714 -0.7567  0.8497
12422SOL     OW40219   6.417   3.801   2.318 -0.3227  0.1953  0.1816
12422SOL    HW140220   6.441   3.893   2.304  0.1945  0.1335  0.5907
12422SOL    HW240221   6.344   3.804   2.379  0.5185  0.3056  1.2108
12423SOL     OW40222   7.807   5.997   6.327 -0.1824 -0.8621  0.0654
12423SOL    HW140223   7.716   6.000   6.297  0.0010 -0.4709 -0.4680
12423SOL    HW240224   7.801   6.007   6.422 -0.6355  0.1734 -0.0628
12424SOL     OW40225   7.335   4.972   4.925  0.3566 -0.2274  0.1390
12424SOL    HW140226   7.322   5.029   5.000  0.2250  0.0061 -0.0593
12424SOL    HW240227   7.249   4.968   4.883  0.9806  1.7212 -1.4769
12425SOL     OW40228   2.406   4.792   6.401 -0.3065  0.2665 -0.6385
12425SOL    HW140229   2.482   4.777   6.456  0.0333 -1.6743 -1.5705
12425SOL    HW240230   2.441   4.798   6.312 -1.2951 -1.9075 -1.2439
12426SOL     OW40231   4.533   0.541   1.908  0.3858  0.0534  0.0560
12426SOL    HW140232   4.489   0.491   1.840  2.7429 -0.4873 -1.1927
12426SOL    HW240233   4.597   0.594   1.861  1.4632  0.3631  1.7668
12427SOL     OW40234   0.217   7.743   4.401  0.3513 -0.9898  0.5044
12427SOL    HW140235   0.166   7.699   4.334  0.7548  0.3415 -0.7312
12427SOL    HW240236   0.308   7.724   4.379  0.9713  3.9968 -3.0246
12428SOL     OW40237   6.901   0.518   1.116 -0.1441  0.1241  0.1843
12428SOL    HW140238   6.920   0.469   1.036  0.2091 -0.4506  0.6091
12428SOL    HW240239   6.834   0.467   1.161  0.2727 -0.0089  0.6628
12429SOL     OW40240   1.886   0.372   1.064 -0.2989  0.0548 -0.2654
12429SOL    HW140241   1.927   0.286   1.049 -0.9727 -0.5077  0.9313
12429SOL    HW240242   1.833   0.387   0.987  0.1877 -0.3922 -0.6940
12430SOL     OW40243   6.261   3.933   7.518 -0.7473 -0.2319 -0.0905
12430SOL    HW140244   6.310   3.883   7.583 -1.0685 -1.7458 -0.9710
12430SOL    HW240245   6.231   3.868   7.455 -3.2598  0.7197 -0.0034
12431SOL     OW40246   1.731   2.864   5.296  0.6714 -0.4398  0.0509
12431SOL    HW140247   1.669   2.849   5.367  0.8153  0.3924  0.3720
12431SOL    HW240248   1.701   2.808   5.225  0.3464 -1.0565  0.6687
12432SOL     OW40249   5.950   2.461   0.901 -0.6022 -0.5271 -0.1419
12432SOL    HW140250   5.952   2.385   0.960 -0.4191  0.5788  1.3412
12432SOL    HW240251   6.033   2.506   0.917  0.4435 -1.2933 -2.8502
12433SOL     OW40252   2.825   7.001   6.097 -0.0818  0.9284  0.1087
12433SOL    HW140253   2.910   7.030   6.063 -0.1126 -0.2894 -1.0799
12433SOL    HW240254   2.764   7.069   6.070  0.1657  0.7449 -0.9453
12434SOL     OW40255   3.722   4.589   7.150  0.3720 -0.3969  0.0046
12434SOL    HW140256   3.782   4.558   7.219 -1.6926 -1.7197  1.3106
12434SOL    HW240257   3.742   4.535   7.074  0.4416 -1.2477  0.6166
12435SOL     OW40258   4.716   2.727   3.395  0.8157 -0.4205 -0.3273
12435SOL    HW140259   4.735   2.682   3.312  0.3235 -0.1672 -0.5882
12435SOL    HW240260   4.799   2.765   3.421  0.5130  1.5716 -1.9852
12436SOL     OW40261   1.610   2.658   0.507 -0.0961  0.4125 -0.5050
12436SOL    HW140262   1.565   2.594   0.561 -0.5041  0.7116 -0.4883
12436SOL    HW240263   1.701   2.654   0.535 -0.1009 -0.2265 -0.5708
12437SOL     OW40264   3.376   6.997   3.726  0.4346 -0.4322  0.2686
12437SOL    HW140265   3.314   6.942   3.679  0.4802 -2.2818  2.1915
12437SOL    HW240266   3.457   6.945   3.729  1.2716  0.8048  0.0658
12438SOL     OW40267   3.882   0.627   0.258 -0.2584  0.0498 -0.8718
12438SOL    HW140268   3.912   0.717   0.261 -0.2081  0.0024  0.4055
12438SOL    HW240269   3.930   0.588   0.185  0.0994  0.9148 -1.1088
12439SOL     OW40270   8.082   6.810   6.123 -0.0447  0.4809 -0.2487
12439SOL    HW140271   8.137   6.881   6.158  0.5587 -0.3035  0.4329
12439SOL    HW240272   8.060   6.839   6.034  1.1721  0.9795 -0.4108
12440SOL     OW40273   0.819   6.043   2.771 -0.4345  0.4174  0.1626
12440SOL    HW140274   0.883   6.004   2.712 -0.7856  0.2230 -0.0934
12440SOL    HW240275   0.734   6.020   2.734 -0.6617  0.2182  0.7892
12441SOL     OW40276   3.758   4.101   7.416 -0.8532  0.2967 -0.0873
12441SOL    HW140277   3.786   4.105   7.325  0.6815  0.3586  0.3531
12441SOL    HW240278   3.672   4.059   7.413 -0.8177  0.2676 -1.5489
12442SOL     OW40279   4.931   7.277   5.532 -0.6377 -0.2939 -0.4741
12442SOL    HW140280   4.855   7.311   5.486 -0.6375 -1.4828 -1.3955
12442SOL    HW240281   4.928   7.182   5.517  1.1804 -0.3359 -0.7953
12443SOL     OW40282   3.481   3.772   3.068 -0.3666  0.1402  0.4773
12443SOL    HW140283   3.466   3.699   3.009 -0.2328  0.8673 -0.4771
12443SOL    HW240284   3.451   3.741   3.153 -2.1913 -0.3111 -0.3005
12444SOL     OW40285   5.250   5.431   0.602 -0.1698  0.2712 -0.0716
12444SOL    HW140286   5.297   5.375   0.664 -2.4184  0.7360  2.2444
12444SOL    HW240287   5.193   5.484   0.657 -0.3992  2.6638 -2.4117
12445SOL     OW40288   6.526   4.227   7.575  0.0265 -0.6655  0.1422
12445SOL    HW140289   6.554   4.317   7.561  1.6982 -1.2839 -0.8038
12445SOL    HW240290   6.462   4.210   7.506 -0.6771 -0.0670  0.6369
12446SOL     OW40291   1.662   1.836   6.018 -0.1272  0.1811  0.6742
12446SOL    HW140292   1.695   1.885   6.093 -1.7282  1.6569  0.4781
12446SOL    HW240293   1.647   1.902   5.951 -0.8880 -0.7886 -0.1452
12447SOL     OW40294   4.257   2.506   7.645  0.1191 -0.1906  0.6105
12447SOL    HW140295   4.209   2.438   7.692 -0.6876  0.1721  0.3163
12447SOL    HW240296   4.310   2.457   7.581 -1.5442 -0.4986 -0.5912
12448SOL     OW40297   0.808   5.081   0.890 -0.0802 -0.0017  0.1234
12448SOL    HW140298   0.889   5.045   0.926  0.1237  2.3157  2.3144
12448SOL    HW240299   0.749   5.006   0.883  1.8904 -1.5641 -0.5570
12449SOL     OW40300   7.113   5.997   4.476  0.4480  0.1164 -0.2947
12449SOL    HW140301   7.209   5.988   4.474  0.5024 -0.5980  2.2119
12449SOL    HW240302   7.087   5.985   4.384  2.7887  1.2267 -1.2141
12450SOL     OW40303   1.580   5.335   2.041 -0.6708  0.1667  0.6918
12450SOL    HW140304   1.496   5.292   2.027 -0.4512  0.4557 -1.9990
12450SOL    HW240305   1.559   5.428   2.048 -0.5396  0.3495 -0.9957
12451SOL     OW40306   0.113   6.139   1.424 -0.2787 -0.3176  0.1851
12451SOL    HW140307   0.086   6.230   1.435 -1.9899 -0.7727  0.0699
12451SOL    HW240308   0.202   6.144   1.390  0.0749  1.2845  1.2647
12452SOL     OW40309   1.045   3.170   5.931 -0.2202  0.1873  0.1581
12452SOL    HW140310   1.033   3.081   5.898  0.4957  1.0347 -2.6110
12452SOL    HW240311   1.099   3.213   5.865 -0.3276  2.6236  1.5493
12453SOL     OW40312   6.971   5.937   1.217 -0.4972 -0.1017  0.6252
12453SOL    HW140313   6.944   5.988   1.140  0.3249  0.9197  0.9883
12453SOL    HW240314   6.933   5.850   1.202 -1.3033  0.3905 -0.3814
12454SOL     OW40315   6.158   3.612   2.837  0.3542  0.0734  0.1591
12454SOL    HW140316   6.253   3.616   2.829  0.5628  0.9540  2.3842
12454SOL    HW240317   6.140   3.522   2.865  0.8835  0.6745  2.6721
12455SOL     OW40318   7.530   1.320   3.261 -0.4333  0.1006 -0.4712
12455SOL    HW140319   7.441   1.340   3.230 -0.2417  0.3117 -0.8852
12455SOL    HW240320   7.585   1.325   3.183 -0.0143  0.2317 -0.1718
12456SOL     OW40321   5.314   4.305   7.759  0.2457  0.0817 -0.0983
12456SOL    HW140322   5.293   4.254   7.837  1.5949  0.2168  0.3688
12456SOL    HW240323   5.238   4.292   7.701  0.0808 -1.5767  0.4404
12457SOL     OW40324   3.343   5.237   1.347 -1.0478 -0.5138 -0.0356
12457SOL    HW140325   3.323   5.148   1.318 -1.3507 -0.7124  0.7745
12457SOL    HW240326   3.262   5.286   1.330 -0.8418 -0.3545 -0.5946
12458SOL     OW40327   4.212   2.624   5.798 -0.1414  0.7216  0.0604
12458SOL    HW140328   4.217   2.688   5.727 -1.0452  0.1611 -0.5429
12458SOL    HW240329   4.155   2.555   5.763  1.1400 -0.6163  0.5267
12459SOL     OW40330   5.201   2.148   7.540  0.4364  0.2048  0.0265
12459SOL    HW140331   5.118   2.173   7.579  0.5512 -0.5970  0.7983
12459SOL    HW240332   5.266   2.206   7.581  0.7002 -1.2854  1.8040
12460SOL     OW40333   5.891   6.256   7.929 -0.2043  0.5801  0.0753
12460SOL    HW140334   5.894   6.201   8.006 -0.6735 -0.8348 -0.8855
12460SOL    HW240335   5.979   6.252   7.892 -0.5520 -0.5886 -0.6842
12461SOL     OW40336   5.249   3.401   5.033 -0.1481 -0.0384 -0.5566
12461SOL    HW140337   5.159   3.390   5.001  0.0160 -1.0966 -0.6918
12461SOL    HW240338   5.239   3.433   5.122 -0.6596 -0.1172 -0.5798
12462SOL     OW40339   1.801   6.123   1.374  0.1900  0.1166 -0.1732
12462SOL    HW140340   1.787   6.186   1.304  0.8620 -0.8311 -1.1870
12462SOL    HW240341   1.767   6.040   1.339  0.3442 -0.3241  0.6960
12463SOL     OW40342   4.933   5.169   0.048  0.2184 -0.2888  0.1374
12463SOL    HW140343   4.930   5.169   0.144 -0.5990 -1.3673  0.1312
12463SOL    HW240344   4.907   5.257   0.023 -1.5054 -0.5347  0.8984
12464SOL     OW40345   2.912   0.239   1.034  0.1738  0.1106 -0.8651
12464SOL    HW140346   2.834   0.285   1.064  1.5107  0.1148  3.1838
12464SOL    HW240347   2.909   0.154   1.076  1.8456 -0.2808 -1.4328
12465SOL     OW40348   7.750   3.196   3.447 -0.3800 -0.1511 -0.0610
12465SOL    HW140349   7.798   3.208   3.365 -0.7060 -0.9503 -0.3787
12465SOL    HW240350   7.677   3.258   3.440  0.1233  0.4631  0.0529
12466SOL     OW40351   7.232   3.465   3.331 -0.9915  0.2800 -0.3145
12466SOL    HW140352   7.175   3.536   3.362 -2.9722 -0.5547 -1.8041
12466SOL    HW240353   7.299   3.457   3.399 -1.2199  2.9340  0.3498
12467SOL     OW40354   3.366   7.357   0.150 -0.1130  0.0740  0.0145
12467SOL    HW140355   3.325   7.375   0.065  1.4745 -1.8390 -1.2433
12467SOL    HW240356   3.441   7.416   0.153 -1.3545  1.7041  1.1524
12468SOL     OW40357   0.998   1.798   6.390 -0.2660  0.3492  0.0604
12468SOL    HW140358   0.991   1.837   6.477  0.4270 -0.5316  0.5282
12468SOL    HW240359   1.086   1.821   6.360  0.1198 -0.7319  0.3050
12469SOL     OW40360   0.623   3.806   3.409 -0.2058 -0.4328 -0.1655
12469SOL    HW140361   0.595   3.797   3.500  1.8932 -1.3031  0.4551
12469SOL    HW240362   0.613   3.899   3.390  0.5961  0.0302  1.4475
12470SOL     OW40363   0.008   6.418   5.918  0.2348 -0.4533  0.4398
12470SOL    HW140364   0.054   6.451   5.840 -0.1673  1.5227  0.9834
12470SOL    HW240365   0.033   6.478   5.988 -0.5206 -1.3710  1.5357
12471SOL     OW40366   2.998   2.735   5.064  0.1103  0.4571  0.2813
12471SOL    HW140367   2.976   2.817   5.107  1.6435  1.0834 -0.0662
12471SOL    HW240368   3.091   2.741   5.045 -0.0039 -0.8149 -0.9325
12472SOL     OW40369   0.346   0.651   4.063  0.4685  0.1333  0.0167
12472SOL    HW140370   0.386   0.738   4.070 -0.7747  0.6042  2.7081
12472SOL    HW240371   0.257   0.669   4.034  0.3537 -0.2685  0.1163
12473SOL     OW40372   0.762   7.659   5.204  0.7718  0.6420 -0.1152
12473SOL    HW140373   0.748   7.663   5.109 -0.3868  1.0584  0.0602
12473SOL    HW240374   0.679   7.687   5.242  0.2250 -2.2272  1.0635
12474SOL     OW40375   7.921   7.625   2.035  0.1440  0.2887  0.2010
12474SOL    HW140376   7.899   7.683   1.963 -0.1621  0.4855  0.4537
12474SOL    HW240377   7.838   7.608   2.080 -0.0386 -1.4731 -0.7002
12475SOL     OW40378   1.604   4.015   7.470 -0.0364  0.6775  0.1501
12475SOL    HW140379   1.690   3.998   7.509 -0.2636 -0.1339  0.3308
12475SOL    HW240380   1.554   3.936   7.490 -0.6051  0.8518 -0.5659
12476SOL     OW40381   7.848   5.842   6.096  0.2016  0.2486  0.7788
12476SOL    HW140382   7.805   5.897   6.161  3.6639  1.5962  2.1686
12476SOL    HW240383   7.897   5.778   6.148  2.4097  0.8469 -0.4384
12477SOL     OW40384   6.525   1.973   4.211 -0.6022 -0.1210 -0.5119
12477SOL    HW140385   6.455   1.912   4.236  0.0387 -0.2047  1.1853
12477SOL    HW240386   6.602   1.940   4.256  0.1421  1.0058 -0.9319
12478SOL     OW40387   6.711   7.416   1.350  0.0565  0.1304 -0.1201
12478SOL    HW140388   6.725   7.489   1.289 -0.2933  0.8665  0.6649
12478SOL    HW240389   6.664   7.455   1.424  3.4133  0.1149  2.2728
12479SOL     OW40390   0.104   3.842   1.579 -0.2414 -0.1971  0.0706
12479SOL    HW140391   0.199   3.843   1.567 -0.3606  0.4294 -0.8699
12479SOL    HW240392   0.072   3.783   1.510 -0.6248  0.4572 -0.3149
12480SOL     OW40393   0.987   5.408   1.844 -0.3041 -0.5348  0.0196
12480SOL    HW140394   1.052   5.339   1.833 -1.3269 -1.7614  1.1846
12480SOL    HW240395   1.034   5.479   1.888  0.4113 -1.1220  0.2229
12481SOL     OW40396   0.572   3.033   5.977 -0.0070 -0.5487 -0.1091
12481SOL    HW140397   0.486   3.005   6.009 -0.1207  0.7821  0.8146
12481SOL    HW240398   0.634   2.980   6.026 -0.2641 -0.3873  0.3974
12482SOL     OW40399   0.882   5.694   2.131  0.3943  0.0388 -0.3789
12482SOL    HW140400   0.858   5.603   2.148  2.0490 -0.4106 -0.2381
12482SOL    HW240401   0.968   5.689   2.088  0.2812  1.5138 -0.8516
12483SOL     OW40402   2.675   3.989   5.734  0.6458  0.3658  0.1481
12483SOL    HW140403   2.735   4.061   5.753  1.9056 -0.6835  0.3146
12483SOL    HW240404   2.630   3.973   5.817 -0.1536  1.4100 -0.0779
12484SOL     OW40405   6.388   7.514   7.052  0.2752 -0.0244 -0.4119
12484SOL    HW140406   6.414   7.577   7.119  0.9961 -0.0757 -0.6298
12484SOL    HW240407   6.298   7.490   7.074  0.4408  0.0971  0.4269
12485SOL     OW40408   2.273   1.197   1.812  0.8143  0.1626 -0.6131
12485SOL    HW140409   2.221   1.144   1.873  0.7053  0.4880 -0.4210
12485SOL    HW240410   2.333   1.246   1.868 -0.4574  1.7810 -0.6004
12486SOL     OW40411   2.305   2.133   6.909  0.2669  0.0006 -0.1888
12486SOL    HW140412   2.380   2.100   6.859  0.4411  0.2271 -0.0807
12486SOL    HW240413   2.314   2.092   6.996  0.3910  0.1988 -0.1067
12487SOL     OW40414   7.001   2.510   5.307 -0.5477  0.1262  0.8458
12487SOL    HW140415   7.070   2.476   5.250 -0.4491 -0.3011  1.2158
12487SOL    HW240416   6.986   2.441   5.371 -0.7931  0.5232  1.2262
12488SOL     OW40417   4.670   2.571   5.828 -0.1975  0.2828  0.4305
12488SOL    HW140418   4.714   2.491   5.859  0.1448  0.7609  1.2047
12488SOL    HW240419   4.700   2.639   5.888 -1.0788  0.8485  0.2372
12489SOL     OW40420   0.520   4.348   3.983 -0.2577  0.0135 -0.1037
12489SOL    HW140421   0.503   4.338   3.889  1.1693 -1.5893 -0.2351
12489SOL    HW240422   0.601   4.401   3.987 -1.2280  1.5319  0.3054
12490SOL     OW40423   4.291   2.262   4.441 -0.6431 -0.3584  1.0047
12490SOL    HW140424   4.321   2.181   4.482 -0.5362 -1.6719 -1.4697
12490SOL    HW240425   4.222   2.234   4.381  0.9203  0.9857 -1.6080
12491SOL     OW40426   5.994   3.666   7.771  0.5138 -0.5349 -0.2595
12491SOL    HW140427   5.920   3.702   7.722 -0.3477 -0.6488  0.9255
12491SOL    HW240428   6.039   3.743   7.805  0.5068 -0.4872 -0.3565
12492SOL     OW40429   0.798   0.627   5.610  0.5051 -0.1096 -0.3244
12492SOL    HW140430   0.848   0.546   5.597  0.3316 -0.4715  1.1120
12492SOL    HW240431   0.819   0.654   5.700 -1.1042  0.2738 -0.0368
12493SOL     OW40432   5.759   5.373   2.554 -0.1760 -0.1613 -0.3079
12493SOL    HW140433   5.798   5.304   2.607 -0.8776  0.3419  0.8942
12493SOL    HW240434   5.828   5.440   2.549  0.1745 -0.5416 -0.7155
12494SOL     OW40435   2.578   0.910   4.183 -0.2460  0.2421 -0.1500
12494SOL    HW140436   2.632   0.936   4.108  1.5787 -2.3984  0.0787
12494SOL    HW240437   2.608   0.965   4.255  1.4065 -0.3780 -0.3198
12495SOL     OW40438   7.090   8.123   6.197 -0.0006  0.5432  0.1027
12495SOL    HW140439   7.000   8.131   6.228 -0.8849 -1.8401 -1.5529
12495SOL    HW240440   7.081   8.101   6.104  2.3532  1.5287 -0.4280
12496SOL     OW40441   0.151   5.923   1.587  0.5839  0.3998  0.4620
12496SOL    HW140442   0.147   5.846   1.531  1.7111  0.2306  0.5872
12496SOL    HW240443   0.137   5.997   1.528  0.3843  0.1483  0.1920
12497SOL     OW40444   4.291   0.622   6.633 -0.2528  0.8492  0.4262
12497SOL    HW140445   4.228   0.611   6.562 -2.3114  1.7121  2.0033
12497SOL    HW240446   4.297   0.535   6.673  0.2029  0.5777 -0.2109
12498SOL     OW40447   2.852   6.397   4.997 -0.0835 -0.5449 -0.8152
12498SOL    HW140448   2.799   6.475   5.014 -0.7897 -0.9287 -1.2206
12498SOL    HW240449   2.898   6.416   4.915  3.0693  1.1721  1.1269
12499SOL     OW40450   3.476   3.388   1.826 -0.4276  0.5653 -0.2163
12499SOL    HW140451   3.450   3.404   1.917 -1.5262 -0.4686 -0.3260
12499SOL    HW240452   3.562   3.346   1.832 -0.5140  0.4646  0.3504
12500SOL     OW40453   3.415   6.934   0.242  0.3609 -0.2837 -0.1762
12500SOL    HW140454   3.476   6.971   0.178 -0.8850  0.2184 -1.1325
12500SOL    HW240455   3.360   7.009   0.267  1.1165 -0.3553  1.8855
12501SOL     OW40456   0.610   0.274   3.018  0.3599  0.1437  0.5734
12501SOL    HW140457   0.578   0.353   2.974  3.1211  1.5123  0.8035
12501SOL    HW240458   0.544   0.207   2.999 -1.2481  2.0658 -1.0278
12502SOL     OW40459   4.774   6.996   7.723 -0.0176  0.5969 -0.0638
12502SOL    HW140460   4.715   6.927   7.691 -1.6197  1.1435  1.5685
12502SOL    HW240461   4.771   7.063   7.655 -0.8259  0.3472 -0.2916
12503SOL     OW40462   5.414   1.089   2.198  0.5113  0.0159  0.1660
12503SOL    HW140463   5.454   1.037   2.269  0.7864 -1.3438 -0.9379
12503SOL    HW240464   5.398   1.174   2.238  1.4376 -0.4378  1.6298
12504SOL     OW40465   5.841   1.868   2.910 -0.6259  0.3710 -0.2398
12504SOL    HW140466   5.867   1.945   2.860 -1.5745  1.2725  0.6042
12504SOL    HW240467   5.792   1.903   2.984  0.8171 -0.8965  1.4124
12505SOL     OW40468   4.692   0.270   0.429  0.2331 -0.4486 -0.5947
12505SOL    HW140469   4.726   0.352   0.393  0.3389 -1.5709 -3.3105
12505SOL    HW240470   4.622   0.297   0.489  0.7179  1.6307 -0.9047
12506SOL     OW40471   1.600   4.106   1.304  0.4923  0.1791 -0.0678
12506SOL    HW140472   1.628   4.048   1.234 -0.5886  0.5935 -0.8645
12506SOL    HW240473   1.613   4.055   1.384  2.1300 -0.1438 -0.5164
12507SOL     OW40474   4.728   3.215   5.276 -0.0438 -0.1218  0.5836
12507SOL    HW140475   4.819   3.223   5.249 -0.4647 -0.8839 -1.2456
12507SOL    HW240476   4.678   3.239   5.197 -1.4245  0.2574  1.5350
12508SOL     OW40477   2.757   2.287   4.173 -0.1377  0.1308  0.2447
12508SOL    HW140478   2.792   2.314   4.088  0.3092  0.8007  0.6298
12508SOL    HW240479   2.784   2.195   4.182  0.2700  0.2143 -0.0999
12509SOL     OW40480   5.059   4.388   0.361  0.4850 -0.1265 -0.6393
12509SOL    HW140481   5.100   4.430   0.437 -1.1197  0.1527  0.1060
12509SOL    HW240482   5.081   4.295   0.371 -1.4900 -0.4587  1.4241
12510SOL     OW40483   6.685   6.475   3.476 -0.0207  0.7092 -0.0069
12510SOL    HW140484   6.704   6.559   3.435  3.1488  0.2290  0.1935
12510SOL    HW240485   6.728   6.410   3.420 -1.8152 -0.7473  0.2076
12511SOL     OW40486   7.792   2.517   1.345  0.6518 -0.2277  0.2336
12511SOL    HW140487   7.725   2.586   1.340  1.7282  0.9073  0.9554
12511SOL    HW240488   7.838   2.522   1.261  1.7591  1.0587  0.8762
12512SOL     OW40489   3.626   7.301   3.741 -0.0004 -0.4689  0.0897
12512SOL    HW140490   3.536   7.286   3.713 -0.5125 -0.7091  1.7554
12512SOL    HW240491   3.673   7.222   3.715 -0.5961 -0.9561  0.4654
12513SOL     OW40492   6.837   4.665   0.657 -0.7648  0.1452 -0.1870
12513SOL    HW140493   6.783   4.683   0.734 -0.2247  0.7352  0.0641
12513SOL    HW240494   6.775   4.634   0.591 -1.4739  1.1443 -0.0226
12514SOL     OW40495   3.607   5.411   0.068  0.1939  0.5903 -0.2338
12514SOL    HW140496   3.519   5.382   0.042  0.3254  1.3153 -1.5568
12514SOL    HW240497   3.656   5.329   0.080 -0.6068  0.1857  0.3542
12515SOL     OW40498   6.385   5.581   5.595  0.3238 -0.3334  0.0156
12515SOL    HW140499   6.333   5.607   5.671 -1.5178  1.1641 -1.6527
12515SOL    HW240500   6.365   5.488   5.583 -0.4867 -0.2304  0.5113
12516SOL     OW40501   7.888   0.069   5.281 -0.6346  0.5155  0.8578
12516SOL    HW140502   7.843  -0.005   5.323 -0.2889 -1.5080 -2.0202
12516SOL    HW240503   7.819   0.114   5.233 -0.2590 -0.4155 -0.6222
12517SOL     OW40504   6.476   0.631   4.306  0.6848  0.4718 -0.1691
12517SOL    HW140505   6.469   0.568   4.234 -1.3708 -0.2445  0.5704
12517SOL    HW240506   6.416   0.597   4.373  0.4709  2.5525  0.7667
12518SOL     OW40507   3.517   7.911   4.584  0.1958  0.0124  0.1405
12518SOL    HW140508   3.478   7.994   4.612  0.8170 -0.2525  1.8984
12518SOL    HW240509   3.441   7.854   4.568 -0.2475 -0.2152  2.6303
12519SOL     OW40510   3.148   5.794   7.448 -0.2297  0.3952 -0.2213
12519SOL    HW140511   3.151   5.755   7.361 -1.8070 -0.2620 -0.0219
12519SOL    HW240512   3.068   5.846   7.448 -0.5632 -0.0693  1.0055
12520SOL     OW40513   4.993   3.365   5.185 -0.0384  0.1967  0.0895
12520SOL    HW140514   5.067   3.314   5.217  0.7365  0.0916 -1.7125
12520SOL    HW240515   4.991   3.443   5.240  0.7922 -0.2680  0.7886
12521SOL     OW40516   7.288   3.288   4.640 -0.0627  0.0048 -0.2452
12521SOL    HW140517   7.265   3.226   4.570  0.3976 -0.1697 -0.2478
12521SOL    HW240518   7.244   3.253   4.717 -1.4248  0.7667 -0.6496
12522SOL     OW40519   5.404   3.962   3.565  0.7389  0.3226 -0.0158
12522SOL    HW140520   5.372   3.923   3.484  1.0812  0.2660 -0.1266
12522SOL    HW240521   5.329   3.962   3.624 -0.5309  3.4813 -1.4153
12523SOL     OW40522   5.178   0.666   2.122  0.2984 -0.0311 -0.1604
12523SOL    HW140523   5.260   0.712   2.140 -1.3154  2.3941  1.7915
12523SOL    HW240524   5.194   0.617   2.042  2.7228  2.7588 -1.5733
12524SOL     OW40525   3.336   5.366   2.399 -0.0218 -0.0690  0.5421
12524SOL    HW140526   3.309   5.342   2.488  1.1949 -2.9989  0.2502
12524SOL    HW240527   3.367   5.456   2.406 -2.1866  0.6234  2.5217
12525SOL     OW40528   0.524   5.974   0.980 -0.4669 -0.1266  0.0206
12525SOL    HW140529   0.491   6.061   0.956 -2.5674 -1.1403 -1.0438
12525SOL    HW240530   0.526   5.926   0.897  3.5466 -0.3138  0.0366
12526SOL     OW40531   2.130   6.267   2.449  0.0370 -1.2677  0.0589
12526SOL    HW140532   2.208   6.274   2.504 -0.4686 -0.9168  0.7549
12526SOL    HW240533   2.121   6.173   2.432  0.1494 -1.3944  0.6639
12527SOL     OW40534   4.784   1.633   5.861  0.8200 -0.3259  0.2652
12527SOL    HW140535   4.868   1.634   5.814 -0.1844 -0.5532 -1.6484
12527SOL    HW240536   4.761   1.541   5.867  0.6130 -0.2536  0.5900
12528SOL     OW40537   3.154   2.017   5.334 -0.2226 -0.3024 -0.3212
12528SOL    HW140538   3.145   2.083   5.266 -0.6180  1.3609  1.2525
12528SOL    HW240539   3.157   2.068   5.416  0.5240 -2.1854  0.8827
12529SOL     OW40540   1.596   3.089   5.884  0.0777  0.2005 -0.3600
12529SOL    HW140541   1.506   3.088   5.851  0.4097  2.8656 -1.6802
12529SOL    HW240542   1.636   3.010   5.849 -1.1701  0.0945 -1.6322
12530SOL     OW40543   3.557   6.932   2.929  0.0258  0.4944  0.2057
12530SOL    HW140544   3.538   6.883   2.849  1.1554  1.6724 -0.8284
12530SOL    HW240545   3.588   6.865   2.990 -0.7065 -0.4043 -0.3742
12531SOL     OW40546   7.717   7.097   1.936 -0.2714 -0.2303 -0.0337
12531SOL    HW140547   7.686   7.158   1.869 -0.6869  0.4524  0.7520
12531SOL    HW240548   7.666   7.120   2.014 -0.0894 -1.2760  0.4050
12532SOL     OW40549   1.463   7.495   2.308 -0.2528  0.7232 -0.0168
12532SOL    HW140550   1.424   7.409   2.329  1.9696  0.4852  4.2722
12532SOL    HW240551   1.532   7.475   2.245 -3.0736  0.3578 -3.2997
12533SOL     OW40552   1.243   6.508   0.471 -0.4633 -0.3823 -0.6563
12533SOL    HW140553   1.267   6.430   0.519  1.1148  0.4861  0.0445
12533SOL    HW240554   1.272   6.491   0.381  2.1385  0.2627 -0.0271
12534SOL     OW40555   6.218   0.235   5.009  0.1940 -0.3197 -0.1331
12534SOL    HW140556   6.205   0.312   4.954 -0.4175 -0.1147  0.2847
12534SOL    HW240557   6.190   0.161   4.956  1.1972 -0.3174 -0.6983
12535SOL     OW40558   7.954   6.951   4.513  0.4538 -0.0383  0.1505
12535SOL    HW140559   8.031   6.900   4.537 -0.1096 -0.4973  1.0001
12535SOL    HW240560   7.985   7.042   4.511  0.9165 -0.1743  0.9122
12536SOL     OW40561   2.730   2.236   0.712  0.1189 -0.0925 -0.4826
12536SOL    HW140562   2.658   2.198   0.762 -0.5011  2.1815  0.5104
12536SOL    HW240563   2.697   2.246   0.623 -0.8173  0.8859 -0.0436
12537SOL     OW40564   1.061   1.508   7.584 -0.3758  0.3047  0.6369
12537SOL    HW140565   0.986   1.452   7.565  0.7080 -1.1160  0.4000
12537SOL    HW240566   1.111   1.510   7.502  0.6602 -0.0832  1.2395
12538SOL     OW40567   3.648   2.828   6.653 -0.3877 -0.8023  0.3357
12538SOL    HW140568   3.619   2.766   6.586  1.5447 -0.7920 -0.5763
12538SOL    HW240569   3.679   2.773   6.725 -1.6476 -0.8246  0.8794
12539SOL     OW40570   5.423   6.513   5.683  0.6017 -0.1732  0.0025
12539SOL    HW140571   5.369   6.589   5.659  0.0465 -0.3060  0.7633
12539SOL    HW240572   5.503   6.523   5.633  0.7856  1.2484  0.5417
12540SOL     OW40573   7.219   0.325   7.909  0.1787  0.0696  0.1414
12540SOL    HW140574   7.181   0.387   7.848  0.4957 -0.4550 -0.6111
12540SOL    HW240575   7.245   0.377   7.984  0.0080  0.7691 -0.2801
12541SOL     OW40576   7.376   7.961   5.483  0.2912 -0.1570 -0.1496
12541SOL    HW140577   7.462   8.003   5.480  0.3793 -0.2297  0.9523
12541SOL    HW240578   7.393   7.868   5.473  0.2096 -0.0611 -1.2932
12542SOL     OW40579   4.228   7.196   6.116  0.4544 -0.4726  0.0116
12542SOL    HW140580   4.287   7.122   6.102  0.3310 -0.5478 -0.1057
12542SOL    HW240581   4.177   7.202   6.036 -0.6886 -1.3059  0.6490
12543SOL     OW40582   1.322   3.971   4.869 -0.0612  0.1944 -0.3043
12543SOL    HW140583   1.230   3.972   4.895 -0.5812  1.2128 -1.9849
12543SOL    HW240584   1.359   4.051   4.907 -0.8465  1.7398 -2.5314
12544SOL     OW40585   4.260   7.989   4.477  0.3701  0.1398  0.0749
12544SOL    HW140586   4.174   7.967   4.511  0.8429  0.4382  1.5241
12544SOL    HW240587   4.245   8.066   4.422 -0.5795 -1.0182 -1.3635
12545SOL     OW40588   6.558   6.043   6.550  0.2566  0.0331 -0.1848
12545SOL    HW140589   6.509   6.008   6.476  2.2025 -1.8712 -0.6583
12545SOL    HW240590   6.494   6.044   6.622 -0.6865 -1.7245 -0.9247
12546SOL     OW40591   1.260   0.170   3.510  0.0360  0.6901 -0.1665
12546SOL    HW140592   1.355   0.156   3.505 -0.1223 -0.2212 -0.8717
12546SOL    HW240593   1.246   0.207   3.597  1.2489  2.6934 -0.7348
12547SOL     OW40594   3.646   2.540   5.489 -0.5496 -0.0625 -0.1517
12547SOL    HW140595   3.604   2.530   5.574 -1.7160 -0.9152 -0.8072
12547SOL    HW240596   3.732   2.578   5.509 -0.3079 -1.3702  1.5115
12548SOL     OW40597   5.801   6.433   6.809 -0.0219 -0.4246 -0.0269
12548SOL    HW140598   5.876   6.424   6.868 -0.3835 -2.0933  0.2299
12548SOL    HW240599   5.840   6.455   6.724  0.8265 -1.7687 -0.0091
12549SOL     OW40600   3.155   1.175   2.572  0.2632  0.3843 -0.0209
12549SOL    HW140601   3.127   1.113   2.504 -2.2913 -0.9097  2.0309
12549SOL    HW240602   3.233   1.216   2.536  0.7272 -2.3283 -2.5159
12550SOL     OW40603   2.090   6.820   7.343  0.0306 -0.6329 -0.3571
12550SOL    HW140604   2.115   6.769   7.266 -0.1383  0.5226 -1.1955
12550SOL    HW240605   2.028   6.763   7.390  0.6310 -1.6066 -0.7219
12551SOL     OW40606   4.391   6.324   5.606  0.5801  0.0747  0.9015
12551SOL    HW140607   4.313   6.323   5.552  1.3066 -0.4328 -0.1900
12551SOL    HW240608   4.367   6.374   5.684 -0.7864 -0.0070  0.5483
12552SOL     OW40609   6.451   1.252   1.995  0.3693  0.2753 -0.0826
12552SOL    HW140610   6.454   1.332   2.046 -0.3425  0.1984  0.0839
12552SOL    HW240611   6.529   1.257   1.939  1.5320  0.0375  1.4606
12553SOL     OW40612   1.268   5.552   6.313 -0.6575  0.2060 -0.0865
12553SOL    HW140613   1.185   5.538   6.360  0.1008 -0.7397  1.0199
12553SOL    HW240614   1.247   5.536   6.221 -1.3938 -1.4448  0.3436
12554SOL     OW40615   3.631   1.687   4.829 -0.7305  0.4737  0.0975
12554SOL    HW140616   3.648   1.740   4.907  1.5149  1.0867 -0.7448
12554SOL    HW240617   3.664   1.600   4.850 -0.1898  0.6204 -0.1441
12555SOL     OW40618   5.360   0.399   3.727 -0.1126  0.0789  0.2554
12555SOL    HW140619   5.410   0.318   3.736  0.5787  0.3843 -0.7262
12555SOL    HW240620   5.359   0.435   3.815 -0.5829 -1.0721  0.7483
12556SOL     OW40621   6.953   1.185   0.396 -0.0794  0.6733 -0.0560
12556SOL    HW140622   7.038   1.189   0.352  0.9315 -2.4711  1.3262
12556SOL    HW240623   6.958   1.252   0.464  1.2131  0.6624 -0.1183
12557SOL     OW40624   4.853   6.244   7.258  0.1523 -0.1125  0.4598
12557SOL    HW140625   4.818   6.327   7.224  0.0246  0.3901  1.7371
12557SOL    HW240626   4.902   6.206   7.185  0.5805  1.3113 -0.0251
12558SOL     OW40627   0.893   5.219   4.284 -0.4827 -1.3963  0.2291
12558SOL    HW140628   0.844   5.259   4.355  1.5175 -1.1703  1.5729
12558SOL    HW240629   0.827   5.187   4.223 -2.2203  0.0377  1.2854
12559SOL     OW40630   0.063   6.147   5.994  0.4775 -0.3154  0.2975
12559SOL    HW140631   0.077   6.188   6.079  2.1888 -0.9395  0.3719
12559SOL    HW240632   0.042   6.219   5.935  5.1835  1.2108  0.0067
12560SOL     OW40633   5.784   4.689   4.703 -0.0180 -0.7578  0.1818
12560SOL    HW140634   5.696   4.681   4.740 -0.7952 -0.0720 -1.4107
12560SOL    HW240635   5.815   4.774   4.736 -0.2934 -0.6199  0.0942
12561SOL     OW40636   7.052   1.956   1.475  0.4435  0.1267 -0.7748
12561SOL    HW140637   6.973   2.000   1.443  0.9340  1.7600  0.1161
12561SOL    HW240638   7.103   1.936   1.397 -0.5854 -0.4560 -1.3190
12562SOL     OW40639   0.793   6.871   5.529 -0.1070 -0.3123  0.3781
12562SOL    HW140640   0.704   6.859   5.560 -0.8685  0.5188 -1.3533
12562SOL    HW240641   0.837   6.789   5.550 -1.7532 -1.4110 -0.2514
12563SOL     OW40642   0.359   2.914   6.630 -0.2857 -0.3454 -0.5265
12563SOL    HW140643   0.411   2.868   6.695  0.3043  0.8922 -0.0866
12563SOL    HW240644   0.276   2.867   6.628  0.8466 -2.4751 -1.3677
12564SOL     OW40645   5.049   5.997   4.658 -0.3056 -0.5272 -0.0582
12564SOL    HW140646   5.039   6.068   4.595 -0.3862 -0.0896  0.4398
12564SOL    HW240647   5.006   6.030   4.737  0.6991 -0.6530  0.5512
12565SOL     OW40648   6.031   2.455   2.539  0.3413  0.3684 -0.9115
12565SOL    HW140649   6.003   2.366   2.560 -0.2024  0.9612  1.0331
12565SOL    HW240650   5.954   2.496   2.501  0.3190  0.2865 -0.9548
12566SOL     OW40651   7.731   8.120   3.650 -0.1251 -0.5728 -0.2810
12566SOL    HW140652   7.798   8.140   3.584 -0.1754  1.7089  0.2939
12566SOL    HW240653   7.781   8.102   3.729 -0.1417 -0.6695 -0.2925
12567SOL     OW40654   7.685   5.773   0.125  0.6288 -0.0168  0.0065
12567SOL    HW140655   7.758   5.811   0.075 -0.0919 -0.2612 -1.2868
12567SOL    HW240656   7.661   5.694   0.075 -1.6051  0.9633 -0.5921
12568SOL     OW40657   2.782   6.145   2.355  0.6057  0.8256 -0.0525
12568SOL    HW140658   2.847   6.163   2.287  3.6832  1.8700  2.9017
12568SOL    HW240659   2.813   6.064   2.396 -1.5367 -0.1205 -0.1538
12569SOL     OW40660   2.281   0.825   2.009  0.4651 -0.3998  0.9531
12569SOL    HW140661   2.252   0.915   2.026  2.4092  0.1401  1.7174
12569SOL    HW240662   2.319   0.829   1.921  0.2087 -0.5880  0.8300
12570SOL     OW40663   7.007   4.772   1.557  0.3008  0.7588 -0.1261
12570SOL    HW140664   7.008   4.721   1.476 -0.1784 -0.7538  0.7622
12570SOL    HW240665   7.062   4.721   1.617 -1.3489  0.4856  1.2383
12571SOL     OW40666   5.984   1.493   0.571 -0.4982  0.3976  0.1890
12571SOL    HW140667   6.066   1.447   0.591 -0.2275  1.3071  1.2942
12571SOL    HW240668   6.008   1.557   0.504  0.0497  1.6006  1.4789
12572SOL     OW40669   1.261   4.760   0.295 -0.1137 -0.0565 -0.0706
12572SOL    HW140670   1.264   4.853   0.272  0.4055 -0.2143 -0.6580
12572SOL    HW240671   1.333   4.748   0.356 -0.7019  0.0954  0.6647
12573SOL     OW40672   3.160   3.182   4.146  0.7486  0.1997  0.0917
12573SOL    HW140673   3.097   3.236   4.098 -1.1342 -0.6326  1.5057
12573SOL    HW240674   3.108   3.110   4.182  2.6171 -0.8133  0.9196
12574SOL     OW40675   6.537   2.397   0.382 -0.0807 -0.0859 -0.4349
12574SOL    HW140676   6.464   2.408   0.320 -0.1938  0.6041 -0.1850
12574SOL    HW240677   6.517   2.458   0.453  0.3030 -0.5210  0.0452
12575SOL     OW40678   1.279   0.940   4.968 -0.0709 -0.3139 -0.3555
12575SOL    HW140679   1.185   0.958   4.956  0.1861  1.6719  0.3428
12575SOL    HW240680   1.281   0.867   5.031 -1.1398 -1.7860 -1.9390
12576SOL     OW40681   7.693   1.720   4.249 -0.1004 -0.2095  0.0151
12576SOL    HW140682   7.745   1.763   4.318 -1.1054  0.7943  0.1801
12576SOL    HW240683   7.755   1.706   4.178  0.7284 -0.3382  0.7397
12577SOL     OW40684   1.980   5.833   4.490  0.1431  0.6108 -0.1678
12577SOL    HW140685   1.952   5.904   4.548 -0.0040 -0.7237  1.4851
12577SOL    HW240686   1.908   5.770   4.493  1.1983 -0.6208  0.2204
12578SOL     OW40687   7.262   1.351   6.015  0.2447 -0.0876  0.0083
12578SOL    HW140688   7.310   1.381   6.092 -1.2517  0.3035  0.8435
12578SOL    HW240689   7.216   1.429   5.984 -1.7123 -0.8993  0.6892
12579SOL     OW40690   2.505   1.147   6.700 -0.7396 -0.4734  0.6690
12579SOL    HW140691   2.522   1.151   6.794 -0.6970  0.6954  0.6228
12579SOL    HW240692   2.455   1.226   6.680  0.7432  0.2146 -0.5727
12580SOL     OW40693   1.590   7.117   1.279 -0.3436  0.0705 -0.1505
12580SOL    HW140694   1.640   7.056   1.225 -0.9373  1.1359 -2.0012
12580SOL    HW240695   1.654   7.157   1.336  0.3339 -1.0246 -0.1132
12581SOL     OW40696   3.876   1.643   5.681 -0.2820 -0.0381 -0.2107
12581SOL    HW140697   3.928   1.588   5.621  0.6385  0.1400  0.3994
12581SOL    HW240698   3.820   1.694   5.623  1.5583  1.1450 -1.0631
12582SOL     OW40699   4.618   3.537   6.944 -0.2695  0.1214  0.2574
12582SOL    HW140700   4.657   3.450   6.946 -0.5562  0.0025  2.5277
12582SOL    HW240701   4.667   3.583   6.876  2.0755 -0.8406  1.2001
12583SOL     OW40702   1.841   2.784   0.825 -0.4544 -0.0051 -0.4689
12583SOL    HW140703   1.769   2.734   0.861 -1.1503  1.3526  0.0952
12583SOL    HW240704   1.828   2.873   0.858 -0.2347  0.9560 -2.7921
12584SOL     OW40705   6.361   2.974   2.668  0.2681  0.1045  0.4616
12584SOL    HW140706   6.325   3.061   2.685  1.0446  0.5787 -0.2108
12584SOL    HW240707   6.421   2.958   2.741  1.2484  0.7960 -0.1567
12585SOL     OW40708   6.092   7.603   6.442  0.0746  0.1701 -0.0093
12585SOL    HW140709   6.037   7.616   6.365  1.8519  1.4992 -1.1568
12585SOL    HW240710   6.133   7.689   6.456  0.4156 -0.2701  1.9317
12586SOL     OW40711   7.215   0.670   5.334 -0.2543 -0.1731  0.3289
12586SOL    HW140712   7.170   0.696   5.415 -0.6434  1.3569 -0.3520
12586SOL    HW240713   7.225   0.751   5.285 -0.7955 -1.1938 -1.5680
12587SOL     OW40714   2.514   5.794   4.589  0.2894 -0.0975  0.1732
12587SOL    HW140715   2.561   5.715   4.562 -0.1895 -0.1352 -0.5854
12587SOL    HW240716   2.468   5.823   4.510  0.7323  1.1477  0.3574
12588SOL     OW40717   7.875   3.437   7.485 -0.8762 -0.2214 -0.2785
12588SOL    HW140718   7.782   3.448   7.469 -0.7932  0.5373 -0.2358
12588SOL    HW240719   7.917   3.464   7.404 -0.6872 -0.5788 -0.3038
12589SOL     OW40720   4.084   2.954   7.004 -0.2281  0.1405 -0.6103
12589SOL    HW140721   4.037   2.892   6.948  0.1623 -0.2071 -0.5590
12589SOL    HW240722   4.082   2.913   7.090 -0.8122  0.6674 -0.3728
12590SOL     OW40723   2.373   2.693   7.579  0.0784 -0.1978  0.2476
12590SOL    HW140724   2.305   2.680   7.513  0.8880 -0.8176 -0.4865
12590SOL    HW240725   2.369   2.787   7.599  0.2869  0.1439 -1.2047
12591SOL     OW40726   3.735   6.606   5.425  0.1854 -0.4361 -0.0489
12591SOL    HW140727   3.654   6.646   5.395 -0.5083 -0.7265  1.3445
12591SOL    HW240728   3.707   6.536   5.484  1.4336 -1.0885 -0.1951
12592SOL     OW40729   1.796   1.830   2.417  0.6096  0.3965 -0.2066
12592SOL    HW140730   1.736   1.881   2.363 -0.1964 -0.2467  0.0706
12592SOL    HW240731   1.830   1.894   2.480  1.8224  1.2249 -1.6538
12593SOL     OW40732   6.737   5.891   3.317  0.6267 -0.4116 -0.5078
12593SOL    HW140733   6.795   5.823   3.282  0.6127 -0.3776 -0.5978
12593SOL    HW240734   6.736   5.876   3.411  0.1849 -0.8818 -0.5818
12594SOL     OW40735   8.089   7.418   2.816  0.1082  0.3669  0.2420
12594SOL    HW140736   8.132   7.335   2.837  3.1216  1.5345 -0.8621
12594SOL    HW240737   8.010   7.393   2.769  0.0191 -1.8915  1.4698
12595SOL     OW40738   2.676   4.134   7.999 -0.0084 -0.0574  0.2560
12595SOL    HW140739   2.716   4.071   8.058 -0.3584  0.7117  1.3446
12595SOL    HW240740   2.749   4.164   7.944  0.6652  0.3334  1.3153
12596SOL     OW40741   2.438   1.726   7.799 -0.4938  0.3430  0.0440
12596SOL    HW140742   2.434   1.745   7.893 -0.1845  0.1247  0.1046
12596SOL    HW240743   2.481   1.802   7.761  0.1029  0.0808  0.1884
12597SOL     OW40744   2.224   7.384   6.178  0.4869 -0.1530 -0.2823
12597SOL    HW140745   2.303   7.429   6.148  0.1422  0.0821 -0.8406
12597SOL    HW240746   2.154   7.416   6.121 -0.2768  0.6333  1.0332
12598SOL     OW40747   3.423   2.994   3.367  0.0317 -0.2330  0.5745
12598SOL    HW140748   3.470   3.056   3.424 -1.8554 -0.1406  2.1428
12598SOL    HW240749   3.434   2.909   3.410  0.9284 -0.6796 -0.4870
12599SOL     OW40750   4.975   7.966   0.477 -0.5273 -0.2393 -0.1696
12599SOL    HW140751   4.887   7.930   0.487  0.0690 -1.3796  1.4412
12599SOL    HW240752   5.032   7.903   0.521  0.7819  1.9067  1.3850
12600SOL     OW40753   3.618   3.833   1.556 -0.5436  0.2361 -0.1575
12600SOL    HW140754   3.690   3.832   1.619 -1.8517  1.2299  1.4056
12600SOL    HW240755   3.579   3.746   1.562 -0.7000  0.3479  0.4567
12601SOL     OW40756   0.365   8.132   3.953 -0.4011  0.1525  0.2438
12601SOL    HW140757   0.449   8.089   3.937  0.8173  1.9974  1.1950
12601SOL    HW240758   0.309   8.064   3.990  1.0695 -0.8446  0.7163
12602SOL     OW40759   4.660   4.346   7.114  0.3171  0.3416 -0.1233
12602SOL    HW140760   4.682   4.437   7.097 -0.3176  0.0734 -2.9115
12602SOL    HW240761   4.588   4.350   7.177  1.5965  1.6146  1.3342
12603SOL     OW40762   7.049   1.762   0.991  0.1241 -0.3946  0.1862
12603SOL    HW140763   7.110   1.808   0.934 -0.2006  0.2343  0.3432
12603SOL    HW240764   6.974   1.740   0.935 -1.0521  1.8878  0.7599
12604SOL     OW40765   4.310   0.808   3.051 -0.1147  0.4763  0.5884
12604SOL    HW140766   4.328   0.741   2.985 -0.1561  1.4608 -0.4432
12604SOL    HW240767   4.279   0.759   3.127 -0.7286 -0.6347 -0.3519
12605SOL     OW40768   4.319   2.914   3.913 -0.1187 -0.0388 -0.1875
12605SOL    HW140769   4.272   2.927   3.995 -1.9369 -0.4972 -1.0891
12605SOL    HW240770   4.272   2.969   3.850  0.8293 -0.1964 -1.0559
12606SOL     OW40771   4.079   4.028   1.353 -0.7214  0.3338  0.0930
12606SOL    HW140772   3.986   4.032   1.334 -0.4077  1.0804 -1.4071
12606SOL    HW240773   4.096   4.108   1.404 -0.9221  0.1051  0.5255
12607SOL     OW40774   2.796   1.056   6.359  0.1238 -0.4697  0.0190
12607SOL    HW140775   2.745   0.990   6.311 -1.1186  1.4538 -1.4744
12607SOL    HW240776   2.769   1.045   6.450 -0.9792 -1.2436 -0.3756
12608SOL     OW40777   6.335   1.394   5.090 -0.5036 -0.3902 -0.5714
12608SOL    HW140778   6.401   1.461   5.106 -0.3002 -0.8565  0.6225
12608SOL    HW240779   6.372   1.340   5.020  0.4046 -0.6663  0.1104
12609SOL     OW40780   3.001   0.819   7.949  0.2224  0.0106  0.0038
12609SOL    HW140781   2.918   0.857   7.978 -0.2157  0.0006 -1.1886
12609SOL    HW240782   2.976   0.742   7.898  1.0001 -0.3729  0.1762
12610SOL     OW40783   5.963   4.947   7.171 -0.2429  0.0777  0.6349
12610SOL    HW140784   6.028   4.931   7.240  0.1234 -0.8197  0.1066
12610SOL    HW240785   5.879   4.928   7.212 -0.1082  0.4388  1.0874
12611SOL     OW40786   2.235   4.150   3.766 -0.2170 -0.4766 -0.5784
12611SOL    HW140787   2.198   4.108   3.844 -0.7267 -0.1803 -0.6622
12611SOL    HW240788   2.327   4.165   3.789 -0.1473 -1.1778 -0.3572
12612SOL     OW40789   0.700   1.389   7.773  0.3028 -0.2086  0.2126
12612SOL    HW140790   0.760   1.315   7.765 -0.0011 -0.4410  0.0437
12612SOL    HW240791   0.615   1.353   7.748  0.2801  0.3830 -0.5856
12613SOL     OW40792   5.718   2.761   0.353  0.2590 -0.5483  0.1029
12613SOL    HW140793   5.677   2.837   0.394 -0.0905 -0.7971  0.2138
12613SOL    HW240794   5.740   2.703   0.426  1.3565 -0.1539  0.1012
12614SOL     OW40795   0.572   7.810   2.590  0.4804  0.7091 -0.1925
12614SOL    HW140796   0.502   7.864   2.629 -1.2136 -1.8548  0.5653
12614SOL    HW240797   0.574   7.837   2.498 -2.6710 -0.1418 -0.6362
12615SOL     OW40798   2.482   3.285   4.736  0.2715 -0.4408 -0.4445
12615SOL    HW140799   2.499   3.221   4.668  0.8921 -0.3139 -0.4169
12615SOL    HW240800   2.387   3.283   4.749 -0.0106  0.3910 -2.1404
12616SOL     OW40801   4.819   5.031   0.763 -0.1049  0.0560 -0.0298
12616SOL    HW140802   4.770   5.071   0.836  0.0200  1.4656 -0.6867
12616SOL    HW240803   4.903   5.006   0.802  0.0308  0.9578  0.2907
12617SOL     OW40804   4.771   2.011   0.250 -0.3448 -0.5060 -0.3507
12617SOL    HW140805   4.867   2.003   0.255 -0.4071 -0.9088  0.2851
12617SOL    HW240806   4.745   2.038   0.338 -0.9693 -1.9654 -0.0724
12618SOL     OW40807   2.458   2.765   0.596 -0.1870 -0.5989  0.6623
12618SOL    HW140808   2.544   2.725   0.580 -0.3582 -0.8321  0.3107
12618SOL    HW240809   2.465   2.801   0.684  1.0326  1.3754 -0.1802
12619SOL     OW40810   6.158   2.202   0.790  0.3442 -0.2012 -0.3628
12619SOL    HW140811   6.136   2.128   0.733 -0.8016 -0.2502  0.1155
12619SOL    HW240812   6.220   2.254   0.739 -0.6152 -0.2681 -1.6427
12620SOL     OW40813   7.576   2.808   0.036 -0.6255  0.0295 -0.5546
12620SOL    HW140814   7.569   2.715   0.015 -0.4090 -0.1188  0.0021
12620SOL    HW240815   7.651   2.838  -0.016 -1.3162  0.1352 -1.5146
12621SOL     OW40816   6.074   6.807   1.519  0.0032  0.1295 -0.0746
12621SOL    HW140817   5.993   6.759   1.534  0.9831 -1.6845 -0.3244
12621SOL    HW240818   6.072   6.878   1.583 -1.0900 -0.7779  0.9355
12622SOL     OW40819   2.862   7.260   2.990  0.2386  0.3907 -0.2723
12622SOL    HW140820   2.910   7.177   2.983  0.4117  0.3405  1.1714
12622SOL    HW240821   2.867   7.282   3.083 -1.2245  1.1872 -0.3625
12623SOL     OW40822   0.290   1.595   0.922 -0.2870  0.0549 -0.2368
12623SOL    HW140823   0.375   1.575   0.961 -0.3659  1.6585  0.8499
12623SOL    HW240824   0.236   1.519   0.943  0.5606 -0.4882  0.0523
12624SOL     OW40825   2.165   2.756   7.375 -0.5670  0.4592 -0.1094
12624SOL    HW140826   2.144   2.681   7.320 -1.0567  1.2646 -1.0324
12624SOL    HW240827   2.197   2.823   7.315 -0.2211  1.0389  0.6909
12625SOL     OW40828   7.125   5.223   4.891 -0.4960  0.0123  0.1065
12625SOL    HW140829   7.101   5.303   4.845 -0.6720 -1.0415 -1.7349
12625SOL    HW240830   7.043   5.175   4.901  0.0818 -1.6533 -2.3388
12626SOL     OW40831   1.008   0.878   6.425  0.0175 -0.1910 -0.5905
12626SOL    HW140832   1.101   0.856   6.422 -0.1604 -0.8557 -1.9432
12626SOL    HW240833   0.963   0.794   6.432 -0.5598 -0.1303 -2.8289
12627SOL     OW40834   6.913   2.406   7.777  0.1462 -0.1642 -0.3262
12627SOL    HW140835   6.824   2.378   7.802  0.1439 -0.7781 -0.9926
12627SOL    HW240836   6.900   2.489   7.732  0.0483  0.4144  0.7182
12628SOL     OW40837   6.599   7.439   7.829 -0.1280  0.7886  0.2963
12628SOL    HW140838   6.663   7.474   7.892  0.2619 -0.2015  0.4690
12628SOL    HW240839   6.640   7.360   7.794 -1.5177 -0.2436  0.9020
12629SOL     OW40840   0.063   8.035   4.146  0.8892  0.2005 -0.0268
12629SOL    HW140841  -0.003   8.057   4.213  1.3506  0.6780  0.2807
12629SOL    HW240842   0.146   8.039   4.193  1.1216 -0.6722 -0.3520
12630SOL     OW40843   2.259   3.403   0.061 -0.5096 -0.2388 -0.6224
12630SOL    HW140844   2.337   3.445   0.025  0.8186 -0.9916  1.2011
12630SOL    HW240845   2.290   3.318   0.094 -2.2726 -0.9010 -0.5512
12631SOL     OW40846   3.747   4.508   1.237  0.3140  0.1606 -0.1978
12631SOL    HW140847   3.769   4.588   1.285 -1.2000 -0.0700  0.9587
12631SOL    HW240848   3.681   4.535   1.173  0.1664 -0.0667 -0.1450
12632SOL     OW40849   4.226   5.619   6.726  0.4886 -0.0604 -0.5205
12632SOL    HW140850   4.241   5.612   6.821 -1.5351  1.8403  0.0359
12632SOL    HW240851   4.312   5.643   6.691  0.8645  1.3480  1.1745
12633SOL     OW40852   0.497   5.472   4.172  0.2302 -0.6729  0.6947
12633SOL    HW140853   0.570   5.512   4.126 -0.7443  0.9725  0.4826
12633SOL    HW240854   0.527   5.464   4.262  0.3611  0.9082  0.8230
12634SOL     OW40855   6.707   3.239   6.359 -0.3948  0.1693 -0.0025
12634SOL    HW140856   6.669   3.288   6.433  0.9722 -1.7003  2.0718
12634SOL    HW240857   6.635   3.185   6.328 -1.6770  2.6722 -1.7486
12635SOL     OW40858   8.041   8.045   4.366 -0.0190 -0.3031 -0.1558
12635SOL    HW140859   8.081   8.020   4.449  1.9323 -0.0789 -0.9759
12635SOL    HW240860   7.957   8.000   4.365  0.0288 -0.5063  1.8108
12636SOL     OW40861   0.351   3.439   5.945 -0.2561 -0.6006  0.0504
12636SOL    HW140862   0.418   3.377   5.975  0.3948 -0.1709 -0.4822
12636SOL    HW240863   0.278   3.426   6.005  0.0483 -1.5514  0.2387
12637SOL     OW40864   6.214   2.945   7.829  0.1395 -0.2197 -0.2981
12637SOL    HW140865   6.169   2.918   7.750 -0.9474 -0.0700  0.2527
12637SOL    HW240866   6.281   3.006   7.799  1.4502 -2.0871 -1.3572
12638SOL     OW40867   5.398   1.888   6.358 -0.2975 -0.5408 -0.0960
12638SOL    HW140868   5.405   1.905   6.452 -2.8631 -0.3567  0.1266
12638SOL    HW240869   5.322   1.939   6.329 -0.8073 -2.1311 -1.8487
12639SOL     OW40870   7.684   8.108   2.209  0.3288  0.8436 -0.2593
12639SOL    HW140871   7.660   8.200   2.202 -0.7218  0.7678  1.7425
12639SOL    HW240872   7.766   8.108   2.259 -0.5522  0.6416  1.2278
12640SOL     OW40873   5.665   4.969   6.453  0.3839 -0.1916 -0.2244
12640SOL    HW140874   5.724   4.895   6.466  0.2499 -0.0484  1.4042
12640SOL    HW240875   5.655   5.008   6.540 -0.6396  0.9106 -0.7993
12641SOL     OW40876   7.942   7.663   0.241  0.3173  0.0496  0.3693
12641SOL    HW140877   7.906   7.605   0.308  0.1605 -1.2471 -0.7893
12641SOL    HW240878   7.923   7.751   0.272 -0.7405 -0.5429  1.4817
12642SOL     OW40879   5.235   1.252   0.533 -0.4244  0.5749 -0.1562
12642SOL    HW140880   5.188   1.222   0.611  1.9282  2.3679  2.1495
12642SOL    HW240881   5.320   1.209   0.538  0.1587  1.5767 -1.1056
12643SOL     OW40882   4.876   8.064   6.006  0.5547 -0.6502 -0.0460
12643SOL    HW140883   4.890   8.012   6.085 -0.6521 -0.0906  0.5461
12643SOL    HW240884   4.860   8.152   6.038  1.2120 -0.1762 -0.9849
12644SOL     OW40885   0.429   7.493   2.451 -0.4707 -0.0522  0.5418
12644SOL    HW140886   0.357   7.532   2.401 -0.3665 -0.8359 -0.2276
12644SOL    HW240887   0.496   7.473   2.386  0.2278  0.1555  1.1793
12645SOL     OW40888   4.312   0.410   4.322 -0.5457 -0.6078  0.4602
12645SOL    HW140889   4.386   0.350   4.328 -0.6930 -1.1385 -1.8657
12645SOL    HW240890   4.344   0.482   4.268 -1.0785  0.2737  1.2849
12646SOL     OW40891   7.629   1.151   7.219  0.3676 -0.0547 -0.1428
12646SOL    HW140892   7.722   1.139   7.203  0.1195 -3.3245  0.2144
12646SOL    HW240893   7.597   1.064   7.243 -2.4151  1.3227  1.7172
12647SOL     OW40894   5.842   0.413   4.771  0.2877  0.3422 -0.2051
12647SOL    HW140895   5.817   0.422   4.863  0.7245  2.0787 -0.2216
12647SOL    HW240896   5.885   0.496   4.750  2.2809 -0.8984 -1.3347
12648SOL     OW40897   4.700   4.637   7.749  0.5847  0.5542  0.3339
12648SOL    HW140898   4.677   4.730   7.746 -0.3689  0.3115 -0.2861
12648SOL    HW240899   4.780   4.630   7.697 -0.4507  0.7338 -1.3478
12649SOL     OW40900   0.337   8.091   1.194 -0.2363  0.4039 -0.5014
12649SOL    HW140901   0.356   8.011   1.145 -0.2799 -0.7644  1.2940
12649SOL    HW240902   0.279   8.141   1.136 -2.2441 -1.9741 -0.7423
12650SOL     OW40903   0.885   7.439   2.572  0.4992 -0.5528 -0.9830
12650SOL    HW140904   0.799   7.467   2.604  0.0106 -0.2823 -2.4263
12650SOL    HW240905   0.866   7.368   2.512  1.4015 -1.2375 -0.4815
12651SOL     OW40906   7.318   1.511   4.949 -0.1977 -0.0180 -0.4554
12651SOL    HW140907   7.306   1.497   4.855 -0.7527 -2.4408 -0.0847
12651SOL    HW240908   7.234   1.487   4.988  1.0037 -2.3866  0.9047
12652SOL     OW40909   6.186   7.509   2.422  0.1489  0.1515  0.0696
12652SOL    HW140910   6.229   7.594   2.433 -1.2413  0.7199  1.4837
12652SOL    HW240911   6.120   7.523   2.354  0.0810  0.1340  0.1322
12653SOL     OW40912   7.155   0.743   4.691 -0.7733  0.1591 -0.2358
12653SOL    HW140913   7.246   0.733   4.717 -1.1425  1.2462  1.5916
12653SOL    HW240914   7.143   0.678   4.622  1.6733  0.7553 -1.3327
12654SOL     OW40915   4.674   5.844   2.314 -0.0318 -0.2831 -0.4485
12654SOL    HW140916   4.606   5.793   2.269 -0.6528 -0.9381  1.1430
12654SOL    HW240917   4.730   5.778   2.354  0.3581  0.2812 -0.0561
12655SOL     OW40918   6.254   5.031   6.591  0.2615 -0.3165  0.0288
12655SOL    HW140919   6.300   4.984   6.522  1.2422 -0.7405  0.9418
12655SOL    HW240920   6.320   5.043   6.660 -1.1090 -1.4223  1.6107
12656SOL     OW40921   1.219   5.823   4.522 -0.2675  0.5709 -0.1343
12656SOL    HW140922   1.141   5.850   4.570  0.3443 -0.4057  1.5389
12656SOL    HW240923   1.258   5.755   4.578  1.7429  1.0039 -0.9291
12657SOL     OW40924   5.306   1.683   5.959 -0.1123  0.3198 -0.1919
12657SOL    HW140925   5.371   1.613   5.960 -0.1667  0.2755  0.2875
12657SOL    HW240926   5.221   1.638   5.964 -0.1578  0.4121 -0.1437
12658SOL     OW40927   3.424   1.872   5.260  0.3248  0.0432  0.5397
12658SOL    HW140928   3.335   1.891   5.288  0.4633  0.2603  0.8418
12658SOL    HW240929   3.464   1.958   5.246  0.0341 -0.0513 -1.0770
12659SOL     OW40930   2.831   0.640   4.160  0.1958  0.1392  0.2891
12659SOL    HW140931   2.774   0.563   4.163 -0.4855  0.6777  1.6766
12659SOL    HW240932   2.906   0.612   4.107  0.0852 -1.5679  0.9791
12660SOL     OW40933   7.665   1.433   0.412  0.2553  0.3777 -0.5259
12660SOL    HW140934   7.654   1.488   0.490  0.8692 -1.3785  0.8674
12660SOL    HW240935   7.577   1.425   0.376 -0.1125  0.8797  0.2251
12661SOL     OW40936   0.445   7.545   1.393  0.2304  0.6503 -0.7240
12661SOL    HW140937   0.483   7.485   1.457 -1.9690  0.0145  0.0691
12661SOL    HW240938   0.426   7.624   1.443  0.0549  0.7712 -0.9808
12662SOL     OW40939   6.566   6.074   5.906 -0.5873  0.0099  0.2367
12662SOL    HW140940   6.558   6.130   5.829 -1.9488 -2.8795 -1.9446
12662SOL    HW240941   6.552   5.985   5.872 -1.5392 -1.4198  3.8814
12663SOL     OW40942   1.713   2.038   3.928  0.1785  0.1747 -0.0884
12663SOL    HW140943   1.723   2.114   3.986  1.5424  0.9843 -1.2986
12663SOL    HW240944   1.803   2.017   3.902 -0.4089  0.1653 -2.2925
12664SOL     OW40945   5.395   4.006   7.610 -0.0663 -0.1253 -0.2046
12664SOL    HW140946   5.467   3.980   7.554  0.2303 -0.2481  0.2254
12664SOL    HW240947   5.437   4.042   7.689 -0.4404 -1.7141  0.7672
12665SOL     OW40948   6.794   4.218   7.022 -0.2185 -0.1569 -0.3127
12665SOL    HW140949   6.885   4.248   7.028  0.0782 -0.8938 -1.0016
12665SOL    HW240950   6.799   4.125   7.041 -0.9258 -0.0874  0.2598
12666SOL     OW40951   5.733   6.208   6.306  0.1006  0.6279 -0.3870
12666SOL    HW140952   5.658   6.252   6.346 -0.3657  0.2239 -0.7960
12666SOL    HW240953   5.799   6.276   6.296 -0.5158  1.1771 -0.7805
12667SOL     OW40954   4.459   7.904   3.393 -0.3897  0.0318 -0.3060
12667SOL    HW140955   4.380   7.950   3.362 -0.7085 -0.6656 -0.5497
12667SOL    HW240956   4.523   7.974   3.407  0.3885  0.3640 -4.2116
12668SOL     OW40957   1.327   6.541   7.883  0.3308  0.0189  0.0588
12668SOL    HW140958   1.373   6.473   7.933  0.8517  0.3924  0.0922
12668SOL    HW240959   1.375   6.621   7.903 -1.1205  0.6636  1.1632
12669SOL     OW40960   0.399   3.891   3.129 -0.6081  0.2163 -0.0820
12669SOL    HW140961   0.359   3.921   3.047 -0.0798 -3.7121 -1.9795
12669SOL    HW240962   0.493   3.905   3.116 -0.3601 -1.9421 -0.9693
12670SOL     OW40963   1.657   4.019   1.848 -0.1365  0.1831  0.0654
12670SOL    HW140964   1.614   3.936   1.870 -1.0047  0.5389 -0.2606
12670SOL    HW240965   1.656   4.069   1.929 -0.4863  0.2544  0.0174
12671SOL     OW40966   3.817   2.916   3.053  0.0018 -0.5231  0.0479
12671SOL    HW140967   3.847   2.825   3.059 -0.1631 -0.5748  0.0829
12671SOL    HW240968   3.867   2.962   3.121  0.3186 -0.5237 -0.1789
12672SOL     OW40969   4.610   0.154   1.841  0.3386 -0.1021  0.2900
12672SOL    HW140970   4.688   0.181   1.792 -0.1439  0.5170 -0.1484
12672SOL    HW240971   4.612   0.208   1.920  0.1213  0.2209  0.0742
12673SOL     OW40972   2.776   1.155   4.134  0.0794 -0.4785 -0.2137
12673SOL    HW140973   2.828   1.229   4.102 -0.9871  0.9978  1.2705
12673SOL    HW240974   2.839   1.085   4.149  1.2823  0.4720 -0.6930
12674SOL     OW40975   1.512   7.560   3.384 -0.2999  0.0603 -0.4146
12674SOL    HW140976   1.590   7.593   3.427  1.1403 -1.4426 -1.7268
12674SOL    HW240977   1.545   7.499   3.318 -2.5626 -0.2304 -1.3699
12675SOL     OW40978   4.763   6.885   1.227 -0.1158  0.0247 -0.5006
12675SOL    HW140979   4.748   6.956   1.289  1.3897  0.3219 -0.4232
12675SOL    HW240980   4.856   6.892   1.205 -0.3250 -0.8717 -1.8071
12676SOL     OW40981   5.085   0.206   4.674  0.4678 -0.1694  0.6135
12676SOL    HW140982   5.052   0.116   4.670  0.0871 -0.0056 -0.3743
12676SOL    HW240983   5.051   0.240   4.756  0.5089 -0.8911  0.9373
12677SOL     OW40984   2.046   1.398   5.591  0.6214  0.1848 -0.3068
12677SOL    HW140985   2.069   1.444   5.672 -1.2571  0.6128  0.0210
12677SOL    HW240986   1.964   1.438   5.563  1.0867 -0.1452 -2.2937
12678SOL     OW40987   4.423   1.944   2.848  0.0438  0.4064  0.0446
12678SOL    HW140988   4.424   1.855   2.884  2.2399  0.0360 -0.8092
12678SOL    HW240989   4.341   1.949   2.798  1.6127 -2.6437 -3.2766
12679SOL     OW40990   4.078   5.280   6.573 -0.1677 -0.6916 -0.2865
12679SOL    HW140991   3.992   5.281   6.531 -0.0071  0.0106 -0.6167
12679SOL    HW240992   4.059   5.288   6.666 -0.4268  0.9471 -0.4494
12680SOL     OW40993   1.478   3.363   5.632 -0.6019 -0.5689 -0.0088
12680SOL    HW140994   1.554   3.326   5.588  0.0273  0.9065 -0.2122
12680SOL    HW240995   1.508   3.379   5.722 -0.8552 -0.5458  0.0729
12681SOL     OW40996   7.609   6.314   7.359  0.0545 -0.6922 -0.7327
12681SOL    HW140997   7.588   6.302   7.266 -0.7082 -1.6242 -0.4614
12681SOL    HW240998   7.529   6.288   7.405 -0.0833  1.1463  0.1520
12682SOL     OW40999   5.106   2.138   2.480  0.0121  0.3231  0.2789
12682SOL    HW141000   5.182   2.106   2.528 -0.3316  0.2104  0.7531
12682SOL    HW241001   5.042   2.160   2.548  1.0447  4.3504  0.2045
12683SOL     OW41002   7.484   2.277   0.020 -0.1377  0.8176 -0.5192
12683SOL    HW141003   7.551   2.262   0.088  1.6000  1.8297 -1.9186
12683SOL    HW241004   7.449   2.190   0.002  1.1640  0.1798 -0.0920
12684SOL     OW41005   3.405   7.623   5.045 -0.1587  0.2156 -0.0148
12684SOL    HW141006   3.408   7.718   5.050 -0.1873  0.2223 -0.1253
12684SOL    HW241007   3.398   7.604   4.952 -0.2647  0.1076  0.0157
12685SOL     OW41008   4.474   4.121   4.740 -0.1102  0.3159  0.5094
12685SOL    HW141009   4.400   4.112   4.679  1.3248 -3.7263 -0.9582
12685SOL    HW241010   4.546   4.154   4.687  0.2110  0.2552  0.8985
12686SOL     OW41011   7.987   7.100   6.708  0.3086  0.0851 -0.0555
12686SOL    HW141012   7.948   7.121   6.794  1.6592  2.5008  0.0520
12686SOL    HW241013   7.911   7.082   6.652 -0.8710  1.9683  0.8037
12687SOL     OW41014   7.326   4.963   4.524 -0.2779 -0.0469 -0.2297
12687SOL    HW141015   7.236   4.943   4.499 -0.1041 -1.7926  0.3932
12687SOL    HW241016   7.356   4.885   4.571  0.8159  1.3896  1.6099
12688SOL     OW41017   3.976   5.769   3.002 -0.1473 -0.8567 -0.0375
12688SOL    HW141018   4.054   5.784   3.055  0.3656  0.4445 -1.1063
12688SOL    HW241019   4.008   5.729   2.921 -0.5082  0.0103 -0.6347
12689SOL     OW41020   2.269   7.698   3.007  0.0544  0.0406  0.6543
12689SOL    HW141021   2.214   7.758   2.956 -0.1372 -0.6247  0.0706
12689SOL    HW241022   2.342   7.677   2.949 -0.3667 -1.0274  0.4932
12690SOL     OW41023   4.702   6.190   5.990 -0.4397  0.3659 -0.0960
12690SOL    HW141024   4.782   6.173   6.040 -0.3405 -1.6656 -0.8546
12690SOL    HW241025   4.724   6.165   5.900 -2.2393 -1.4407 -0.0993
12691SOL     OW41026   3.969   1.793   6.798 -0.3522 -0.2071 -0.3392
12691SOL    HW141027   3.891   1.744   6.825 -0.2914  0.6381  1.5873
12691SOL    HW241028   4.036   1.726   6.785 -0.3050 -0.7309  2.1129
12692SOL     OW41029   3.532   3.945   7.386 -0.2995 -0.8161 -0.2452
12692SOL    HW141030   3.455   3.945   7.443  0.9474  1.3241  1.6180
12692SOL    HW241031   3.502   3.986   7.305 -1.1145  0.1351  0.5131
12693SOL     OW41032   0.513   5.685   3.928 -0.2554 -0.0105  0.0192
12693SOL    HW141033   0.593   5.702   3.979 -0.3474  0.3542  0.0405
12693SOL    HW241034   0.534   5.716   3.840 -1.1649  2.2825  0.5407
12694SOL     OW41035   0.984   0.384   6.985 -0.4743 -0.4789  0.4040
12694SOL    HW141036   1.035   0.445   7.039  0.7890 -0.7777 -0.4142
12694SOL    HW241037   0.959   0.314   7.045  1.1658 -0.9551  0.5785
12695SOL     OW41038   7.617   6.181   4.902  0.0781 -0.1382 -0.8995
12695SOL    HW141039   7.703   6.147   4.875  2.2429  2.2470  2.2845
12695SOL    HW241040   7.627   6.276   4.899 -1.3017  0.2435  2.5342
12696SOL     OW41041   6.370   2.346   7.976  0.5143 -0.3094  0.0552
12696SOL    HW141042   6.299   2.376   7.920  0.2420  0.7628  0.9453
12696SOL    HW241043   6.420   2.425   7.997 -0.2890 -0.3743  2.5798
12697SOL     OW41044   4.381   4.422   4.281 -0.0565 -0.0853 -0.1936
12697SOL    HW141045   4.446   4.413   4.352  2.4130  0.0715 -2.2868
12697SOL    HW241046   4.310   4.363   4.306  1.0175 -0.5391  2.0704
12698SOL     OW41047   2.782   6.490   1.174  0.1450  0.5085  0.2538
12698SOL    HW141048   2.726   6.510   1.250 -0.4222  1.3248 -0.3644
12698SOL    HW241049   2.727   6.511   1.098  0.9573  0.3752 -0.3781
12699SOL     OW41050   4.449   3.372   5.982 -0.0151  0.7713 -0.2750
12699SOL    HW141051   4.360   3.344   6.005 -0.5773  4.1280  2.5428
12699SOL    HW241052   4.436   3.440   5.916  0.3251  1.7210  0.6044
12700SOL     OW41053   0.441   5.299   5.538 -0.1627 -0.0408 -0.4914
12700SOL    HW141054   0.466   5.247   5.462 -0.4165 -2.0453  0.7059
12700SOL    HW241055   0.522   5.308   5.589 -0.1995  0.4230 -0.5129
12701SOL     OW41056   0.205   0.795   5.949 -0.1814 -0.9489  0.1436
12701SOL    HW141057   0.144   0.868   5.960  1.0975  0.5208 -1.7723
12701SOL    HW241058   0.237   0.777   6.037 -1.7092 -0.2870  0.8750
12702SOL     OW41059   3.683   3.999   3.515 -0.5401  0.1022  0.5088
12702SOL    HW141060   3.654   3.980   3.604 -1.3898  1.3083  0.5090
12702SOL    HW241061   3.775   4.023   3.526 -0.4830 -0.2962  0.9815
12703SOL     OW41062   4.380   7.618   1.652  0.1869 -0.3166 -0.3755
12703SOL    HW141063   4.399   7.703   1.612 -1.4990  0.0825 -0.4092
12703SOL    HW241064   4.315   7.578   1.594  1.2044 -1.7949 -0.5471
12704SOL     OW41065   4.387   5.499   7.582  0.3887  0.0991  0.4401
12704SOL    HW141066   4.433   5.554   7.645  4.3907 -0.5501 -1.5536
12704SOL    HW241067   4.344   5.561   7.523  0.8331  0.9008  0.9412
12705SOL     OW41068   5.703   2.873   5.094  0.2988  0.0973 -0.4407
12705SOL    HW141069   5.610   2.888   5.107  0.5593  0.8795  0.6217
12705SOL    HW241070   5.716   2.781   5.119 -0.0711  0.1776  0.0576
12706SOL     OW41071   2.921   6.723   0.697  0.3809  0.0390 -0.5567
12706SOL    HW141072   2.998   6.696   0.747 -0.7308 -0.0016  1.2065
12706SOL    HW241073   2.906   6.652   0.635  1.1606 -0.4176 -0.2348
12707SOL     OW41074   3.304   7.367   1.632 -0.4959 -0.1847 -0.6513
12707SOL    HW141075   3.240   7.336   1.696  1.4226 -0.4690  1.2030
12707SOL    HW241076   3.260   7.355   1.547 -2.3140 -1.7422  0.4416
12708SOL     OW41077   7.866   0.080   8.085 -0.5404 -0.4779  0.5376
12708SOL    HW141078   7.851   0.121   7.999  1.1840  0.1037  0.4756
12708SOL    HW241079   7.950   0.036   8.076 -0.6454 -0.9598  1.7559
12709SOL     OW41080   4.846   7.401   4.973 -0.2557  0.4717  0.3813
12709SOL    HW141081   4.803   7.317   4.958 -1.6375  1.2151  0.0644
12709SOL    HW241082   4.817   7.429   5.059 -0.2401  0.8788  0.2582
12710SOL     OW41083   5.392   6.926   2.614 -0.5129 -0.4066  0.2351
12710SOL    HW141084   5.391   6.850   2.672  0.8796 -0.3147  0.4338
12710SOL    HW241085   5.410   7.000   2.672 -0.8603 -0.0616 -0.0913
12711SOL     OW41086   5.381   2.364   7.640 -0.6645  0.9722  0.2199
12711SOL    HW141087   5.319   2.395   7.705 -1.0575  1.9567 -0.5955
12711SOL    HW241088   5.439   2.304   7.688  0.5607  3.4462  2.0725
12712SOL     OW41089   5.865   3.970   6.349  0.2722 -0.0078 -0.5824
12712SOL    HW141090   5.792   3.962   6.288 -1.1158 -0.0926  1.0062
12712SOL    HW241091   5.915   3.889   6.338 -1.3242 -1.1307  0.0341
12713SOL     OW41092   3.580   0.148   4.956 -0.3610  0.2454  0.0344
12713SOL    HW141093   3.646   0.163   4.889 -1.1168  2.2162 -0.3214
12713SOL    HW241094   3.630   0.126   5.035  0.6434  0.3475 -0.5622
12714SOL     OW41095   2.933   7.404   4.519 -0.3748  0.2036  0.2995
12714SOL    HW141096   2.934   7.494   4.552  0.1367  0.8876 -1.4721
12714SOL    HW241097   2.840   7.380   4.520 -0.8473  1.6815 -1.4616
12715SOL     OW41098   3.384   0.761   5.984  0.5090 -0.5333  1.0796
12715SOL    HW141099   3.375   0.856   5.994  2.3450 -0.4048  2.0326
12715SOL    HW241100   3.294   0.728   5.986 -0.2194  1.2423 -0.1545
12716SOL     OW41101   6.699   3.460   3.475 -0.3440 -0.0189 -0.3540
12716SOL    HW141102   6.673   3.443   3.384 -0.1274 -2.4813 -0.0056
12716SOL    HW241103   6.616   3.472   3.521 -0.6805 -2.0594 -0.3271
12717SOL     OW41104   2.471   4.837   7.262 -0.0494 -0.0543  0.0875
12717SOL    HW141105   2.464   4.832   7.166 -0.6828 -0.1697  0.1364
12717SOL    HW241106   2.408   4.773   7.294  0.0748  0.0709  0.5875
12718SOL     OW41107   1.030   0.836   6.763 -0.4033  0.3661  0.1683
12718SOL    HW141108   1.112   0.812   6.720 -0.8326  0.3301 -0.6481
12718SOL    HW241109   1.000   0.913   6.714 -2.0125 -0.9653 -1.0458
12719SOL     OW41110   3.124   5.505   8.063  0.1408 -0.1354  0.2723
12719SOL    HW141111   3.188   5.443   8.098 -1.2868 -1.4086  0.7427
12719SOL    HW241112   3.127   5.493   7.968 -0.5133 -1.3546  0.3940
12720SOL     OW41113   2.474   1.892   2.450 -0.7324 -0.0706  0.1432
12720SOL    HW141114   2.512   1.973   2.487  1.6072 -0.3917 -1.3543
12720SOL    HW241115   2.410   1.864   2.516 -2.5513  3.6039  0.1765
12721SOL     OW41116   6.659   0.190   7.254 -0.6904  0.5403 -0.6476
12721SOL    HW141117   6.740   0.226   7.218  0.2074 -0.8843 -0.1439
12721SOL    HW241118   6.641   0.114   7.199 -0.3658 -0.5207  0.6528
12722SOL     OW41119   2.696   1.761   7.365  0.2595  0.1015  0.4766
12722SOL    HW141120   2.671   1.845   7.404 -2.7085  0.0554 -0.9784
12722SOL    HW241121   2.767   1.783   7.305  0.0208  1.4718  0.6563
12723SOL     OW41122   2.291   4.985   1.046 -0.7675  0.4952  0.1954
12723SOL    HW141123   2.251   4.908   1.006  2.1719  0.1364 -2.4136
12723SOL    HW241124   2.273   5.057   0.986 -1.4717  1.3745  1.4100
12724SOL     OW41125   1.095   1.314   2.002  1.1326 -0.1495 -0.1195
12724SOL    HW141126   1.062   1.327   2.091  1.1967 -0.5032 -0.0403
12724SOL    HW241127   1.167   1.251   2.012  0.1484 -1.4024 -0.5967
12725SOL     OW41128   5.269   5.962   5.832  0.6954  0.0050 -0.5009
12725SOL    HW141129   5.301   5.935   5.918 -1.0791 -0.8945 -0.0729
12725SOL    HW241130   5.246   5.880   5.788  0.3326  0.5271 -1.3135
12726SOL     OW41131   4.095   4.093   2.294 -0.0687 -0.0337  0.0280
12726SOL    HW141132   4.051   4.092   2.209  0.2326 -1.3614 -0.1278
12726SOL    HW241133   4.098   4.186   2.318 -1.0338  0.2748 -0.9448
12727SOL     OW41134   5.923   4.650   0.829 -0.4795  0.7503 -0.2468
12727SOL    HW141135   5.978   4.595   0.885  3.1637  1.6857 -2.5085
12727SOL    HW241136   5.887   4.589   0.765 -2.2147  0.1222  1.2464
12728SOL     OW41137   5.505   4.529   5.198  0.4735  0.1204 -0.4401
12728SOL    HW141138   5.434   4.529   5.262  2.1675 -1.7748  1.5864
12728SOL    HW241139   5.534   4.620   5.193 -1.5725  0.7986 -0.7822
12729SOL     OW41140   6.728   5.737   0.315 -0.4828 -0.5014 -0.4440
12729SOL    HW141141   6.817   5.702   0.316  0.0854  0.6940 -2.5525
12729SOL    HW241142   6.727   5.802   0.385  0.0678 -0.9644  0.0124
12730SOL     OW41143   4.947   2.859   3.887 -0.0032  0.3752  0.2923
12730SOL    HW141144   5.030   2.843   3.932 -0.3841  1.6652  1.5364
12730SOL    HW241145   4.916   2.772   3.860  1.6957 -0.1275 -0.1279
12731SOL     OW41146   1.869   0.830   0.785  0.8270 -0.2189  0.1590
12731SOL    HW141147   1.909   0.883   0.717 -1.5867  0.9838 -0.4559
12731SOL    HW241148   1.914   0.745   0.781  2.6319  0.7519 -0.9810
12732SOL     OW41149   0.810   5.009   5.979  0.1764 -0.4914 -1.0315
12732SOL    HW141150   0.854   4.944   6.034 -0.2857 -0.3604 -0.5041
12732SOL    HW241151   0.719   5.007   6.008  0.0782  0.0993 -1.2981
12733SOL     OW41152   7.052   0.903   5.225 -0.2325 -0.3493 -0.8639
12733SOL    HW141153   7.020   0.823   5.183 -1.9782 -0.7289  1.0477
12733SOL    HW241154   6.977   0.962   5.225  1.0616  1.4175 -2.3453
12734SOL     OW41155   2.289   7.363   4.981 -0.3171  0.5523 -0.4639
12734SOL    HW141156   2.348   7.361   5.056 -0.0967  3.6740 -0.4164
12734SOL    HW241157   2.206   7.328   5.014  0.9936 -2.6156 -0.1726
12735SOL     OW41158   2.962   7.978   1.386  0.1298  0.5560  0.0877
12735SOL    HW141159   2.899   7.906   1.384 -0.2462  0.8753  0.2646
12735SOL    HW241160   2.947   8.020   1.471  1.5521 -0.2231  0.7513
12736SOL     OW41161   6.561   0.875   0.417 -0.1895  0.6313  0.1605
12736SOL    HW141162   6.475   0.886   0.458 -0.0849  0.7343  0.3562
12736SOL    HW241163   6.604   0.959   0.430  0.5646  0.0665  1.5441
12737SOL     OW41164   1.837   6.781   0.811  0.4544  0.7518 -0.4339
12737SOL    HW141165   1.824   6.848   0.745 -3.0924  1.3492  0.6605
12737SOL    HW241166   1.859   6.829   0.891  3.2166  0.1303 -0.7012
12738SOL     OW41167   6.284   1.571   1.304 -0.1089 -0.5503 -0.4015
12738SOL    HW141168   6.201   1.575   1.257 -0.1318  1.3286 -0.2751
12738SOL    HW241169   6.271   1.501   1.369 -1.6723 -0.1443 -0.2303
12739SOL     OW41170   5.711   4.945   4.157 -0.3637  0.6203 -0.0054
12739SOL    HW141171   5.728   4.901   4.240  1.1171  0.3022 -0.4413
12739SOL    HW241172   5.631   4.904   4.124  0.1751 -0.7414  0.2980
12740SOL     OW41173   7.166   7.037   2.350 -0.2207 -0.6769  0.1021
12740SOL    HW141174   7.259   7.035   2.331 -0.4289 -0.2017 -1.0144
12740SOL    HW241175   7.132   6.954   2.316 -0.0597 -1.2876  1.3789
12741SOL     OW41176   5.452   5.166   3.550  0.5695  0.7160 -0.4832
12741SOL    HW141177   5.543   5.171   3.578  0.4357  1.2004 -0.1249
12741SOL    HW241178   5.437   5.247   3.500  0.1859  0.8940 -0.0839
12742SOL     OW41179   4.714   0.178   7.718 -0.2587 -0.4616 -0.0778
12742SOL    HW141180   4.643   0.242   7.711 -0.3662 -0.6798 -1.1806
12742SOL    HW241181   4.763   0.205   7.795 -0.7813  0.4628 -0.0509
12743SOL     OW41182   4.969   2.152   5.868 -0.0541  0.0348 -0.4220
12743SOL    HW141183   5.042   2.149   5.806 -0.4720 -0.4103 -0.9029
12743SOL    HW241184   5.009   2.134   5.953  0.5925  1.0770 -0.4825
12744SOL     OW41185   7.205   8.080   3.248  0.0876 -0.0414  0.3569
12744SOL    HW141186   7.206   8.171   3.280 -0.3791 -0.4351  1.5734
12744SOL    HW241187   7.248   8.030   3.318 -0.7162 -0.9084  0.2527
12745SOL     OW41188   7.550   2.453   5.543 -0.1071 -0.0973 -0.0580
12745SOL    HW141189   7.578   2.511   5.472  0.9360 -1.1615 -0.5537
12745SOL    HW241190   7.607   2.377   5.535 -0.6635 -0.6810  1.3066
12746SOL     OW41191   6.420   2.141   5.274  0.3135 -0.3213 -0.0060
12746SOL    HW141192   6.424   2.077   5.203  1.4072 -0.5911  0.2857
12746SOL    HW241193   6.328   2.142   5.300 -0.8927  2.2593 -3.6526
12747SOL     OW41194   4.960   0.106   7.298  0.1855 -0.9369  0.5974
12747SOL    HW141195   4.894   0.166   7.333  0.4233 -0.3430  0.0544
12747SOL    HW241196   4.978   0.140   7.210 -2.3514 -3.8756 -1.2798
12748SOL     OW41197   7.122   4.440   6.697 -0.2813  0.0828 -0.1317
12748SOL    HW141198   7.164   4.464   6.615  0.1259 -0.6188 -0.1346
12748SOL    HW241199   7.195   4.414   6.754 -0.5519  0.6036  0.4690
12749SOL     OW41200   1.564   6.548   3.563  0.3503 -0.1831 -0.9816
12749SOL    HW141201   1.562   6.550   3.467 -2.4743  0.3168 -1.0063
12749SOL    HW241202   1.536   6.459   3.585 -2.7816  0.7408 -0.7479
12750SOL     OW41203   5.986   3.989   7.454  0.7106 -0.6068 -0.0434
12750SOL    HW141204   6.076   3.989   7.486  1.1621  0.1413 -1.2488
12750SOL    HW241205   5.965   4.082   7.444  1.0814 -0.7738 -3.1206
12751SOL     OW41206   1.451   1.903   6.693 -0.7121 -0.1358 -0.0970
12751SOL    HW141207   1.498   1.829   6.731 -0.8022 -0.9947 -1.5667
12751SOL    HW241208   1.508   1.979   6.708 -0.1897 -0.6615  0.6185
12752SOL     OW41209   2.403   8.090   3.872 -0.1759  0.3704 -0.7488
12752SOL    HW141210   2.394   8.047   3.787 -2.2201  0.1991 -0.4963
12752SOL    HW241211   2.454   8.029   3.925  0.4270  0.1194 -1.5936
12753SOL     OW41212   7.337   3.427   0.450 -0.2583  0.4622 -0.1925
12753SOL    HW141213   7.416   3.472   0.419 -0.6154 -0.3978 -2.5022
12753SOL    HW241214   7.286   3.409   0.371 -2.3975  0.2313  1.1436
12754SOL     OW41215   7.700   1.868   1.629 -0.6007 -0.1990 -0.0926
12754SOL    HW141216   7.781   1.850   1.677 -0.0863  0.2457 -0.7694
12754SOL    HW241217   7.666   1.782   1.605  0.8915 -0.3655 -1.7808
12755SOL     OW41218   1.175   6.809   5.545  0.2556 -1.1585 -0.2063
12755SOL    HW141219   1.263   6.805   5.508  0.6356 -0.2876  0.5635
12755SOL    HW241220   1.171   6.893   5.591 -1.3314 -0.7061 -1.0772
12756SOL     OW41221   4.185   6.923   2.935 -0.1790  0.0594 -0.2487
12756SOL    HW141222   4.237   6.882   2.865 -0.5056  3.5815 -2.8363
12756SOL    HW241223   4.250   6.966   2.991 -0.0162 -1.3361  0.6780
12757SOL     OW41224   5.737   6.100   5.525  0.4079 -0.4233  0.1325
12757SOL    HW141225   5.666   6.163   5.533 -0.2458 -0.9217 -1.4125
12757SOL    HW241226   5.759   6.078   5.616 -1.3455 -0.1761  0.6613
12758SOL     OW41227   4.210   4.014   0.933 -0.6807  0.8683 -0.7908
12758SOL    HW141228   4.297   4.041   0.962 -1.4900  1.2879  1.4803
12758SOL    HW241229   4.218   3.920   0.917  0.4887  1.1436 -1.9362
12759SOL     OW41230   1.580   5.179   3.148  0.3435  0.1416 -0.2297
12759SOL    HW141231   1.546   5.198   3.235  1.2263  1.1567 -0.0902
12759SOL    HW241232   1.654   5.120   3.163  0.6793  0.5523 -0.2661
12760SOL     OW41233   6.494   0.949   2.811 -0.0945  0.2098  0.1137
12760SOL    HW141234   6.560   0.899   2.858  1.0108  1.1799 -0.3408
12760SOL    HW241235   6.474   0.896   2.734  1.7873  0.8173 -0.8837
12761SOL     OW41236   5.104   3.712   6.121  0.7348 -0.7244  0.6167
12761SOL    HW141237   5.100   3.771   6.195 -0.3728 -1.4152  1.1252
12761SOL    HW241238   5.194   3.677   6.123  0.3487 -1.7161  2.4201
12762SOL     OW41239   3.183   3.858   5.709  0.2811  0.0730 -0.4128
12762SOL    HW141240   3.146   3.945   5.694  1.4648  0.1891 -3.3124
12762SOL    HW241241   3.273   3.874   5.736  0.0460 -0.2844  0.6539
12763SOL     OW41242   6.438   5.051   4.593 -0.0325  0.6904 -0.3134
12763SOL    HW141243   6.440   5.033   4.499 -0.1944 -0.9594 -0.0337
12763SOL    HW241244   6.429   5.146   4.599  0.4638  0.8729 -1.9517
12764SOL     OW41245   2.400   4.770   6.109 -0.0819 -0.6612 -0.0201
12764SOL    HW141246   2.350   4.712   6.167 -1.4504  0.2956 -0.1879
12764SOL    HW241247   2.334   4.808   6.051  0.2899  2.8803  1.5644
12765SOL     OW41248   1.069   1.647   4.203  0.3430  0.1595  0.0412
12765SOL    HW141249   1.011   1.580   4.240 -0.0067  1.4955  2.0847
12765SOL    HW241250   1.157   1.620   4.228  0.4495 -0.7247 -1.1850
12766SOL     OW41251   5.438   5.654   7.895  0.0940 -0.4740 -0.2167
12766SOL    HW141252   5.423   5.614   7.981  2.5063 -0.3647  0.3219
12766SOL    HW241253   5.467   5.743   7.915  1.4500 -0.6920 -1.0722
12767SOL     OW41254   3.260   2.277   3.110 -0.2841 -0.1796  0.1649
12767SOL    HW141255   3.295   2.234   3.189 -0.1157 -0.8165 -0.2532
12767SOL    HW241256   3.338   2.312   3.067 -0.4746  1.1261  0.8264
12768SOL     OW41257   4.316   1.337   1.873  0.0092 -0.1102  0.0024
12768SOL    HW141258   4.233   1.378   1.851  0.9806  1.5382 -0.7735
12768SOL    HW241259   4.327   1.267   1.808 -0.5063  0.0249 -0.2275
12769SOL     OW41260   3.950   5.542   7.873  0.3256  0.3148 -0.0435
12769SOL    HW141261   3.879   5.561   7.934  0.7525  0.4847  0.4154
12769SOL    HW241262   3.958   5.447   7.874 -1.6984  0.0561 -2.2046
12770SOL     OW41263   8.021   6.826   0.466 -0.4450  0.4145  0.0644
12770SOL    HW141264   8.045   6.799   0.377 -1.0856  0.7827 -0.2265
12770SOL    HW241265   7.942   6.879   0.454 -0.7466  0.1598  0.8940
12771SOL     OW41266   0.350   5.804   6.018 -0.1036  0.5729  0.1152
12771SOL    HW141267   0.261   5.838   6.019 -0.4018 -0.0537  3.1162
12771SOL    HW241268   0.399   5.861   6.077  0.4785 -1.2953  1.5642
12772SOL     OW41269   6.982   2.030   7.908 -0.4080 -0.0698  0.2933
12772SOL    HW141270   7.049   1.971   7.873 -0.8273  0.7809 -2.1024
12772SOL    HW241271   7.023   2.117   7.907 -1.0072  0.2182  0.3577
12773SOL     OW41272   4.996   3.876   1.367  0.7316 -0.3674  0.3807
12773SOL    HW141273   5.040   3.804   1.323 -2.5825 -1.9510 -0.6315
12773SOL    HW241274   5.048   3.953   1.343  1.7349 -1.7815 -2.4963
12774SOL     OW41275   1.490   1.243   1.194  0.1727  0.0369 -0.1127
12774SOL    HW141276   1.458   1.261   1.283 -0.3085 -3.3086  0.5246
12774SOL    HW241277   1.577   1.205   1.207  0.3308  0.0286 -1.1388
12775SOL     OW41278   2.649   0.574   7.678 -0.7452 -0.0273  0.0749
12775SOL    HW141279   2.703   0.498   7.700 -0.7867 -0.5706 -1.5644
12775SOL    HW241280   2.712   0.643   7.658 -0.6472 -0.3991 -0.9522
12776SOL     OW41281   7.249   4.494   6.474  0.1175 -0.0899  0.0410
12776SOL    HW141282   7.216   4.577   6.439  0.7324  0.6356  1.1159
12776SOL    HW241283   7.313   4.464   6.409  0.0312  0.3806 -0.2621
12777SOL     OW41284   3.043   0.950   4.911 -0.0937  0.2686 -0.3482
12777SOL    HW141285   3.015   0.899   4.834 -1.2235  1.0205 -0.4421
12777SOL    HW241286   2.962   0.982   4.950  0.5672  1.5458  0.0271
12778SOL     OW41287   6.484   6.630   5.994  0.0433 -0.4810  0.5160
12778SOL    HW141288   6.397   6.667   6.012 -0.0719 -0.4600 -0.0826
12778SOL    HW241289   6.517   6.607   6.081 -0.0526  0.6404  0.8750
12779SOL     OW41290   4.948   5.797   0.358 -0.0588  0.4024 -0.5406
12779SOL    HW141291   5.023   5.737   0.358  0.5993  1.2029  0.2904
12779SOL    HW241292   4.982   5.878   0.319 -0.6055  0.6314 -0.5485
12780SOL     OW41293   0.859   4.081   5.541 -0.7691 -0.2403 -0.4426
12780SOL    HW141294   0.824   4.167   5.518 -1.6243 -0.6638 -0.7352
12780SOL    HW241295   0.949   4.083   5.509 -0.1801  1.1778  1.1007
12781SOL     OW41296   1.811   6.350   0.133 -0.4259 -0.0403  0.3292
12781SOL    HW141297   1.732   6.296   0.143  0.7487 -1.5696  1.9023
12781SOL    HW241298   1.877   6.290   0.098  0.8162  0.4557  1.7505
12782SOL     OW41299   2.739   6.917   0.841  0.4994 -0.2261  0.3742
12782SOL    HW141300   2.711   6.883   0.926 -2.0197 -0.5192 -0.5070
12782SOL    HW241301   2.770   6.840   0.793 -0.2589 -0.4478  0.2302
12783SOL     OW41302   1.756   5.821   6.792  0.3821 -0.3181 -0.2643
12783SOL    HW141303   1.753   5.832   6.697  2.7778  1.2637 -0.2389
12783SOL    HW241304   1.837   5.772   6.808 -0.5701 -1.5648  0.9371
12784SOL     OW41305   7.500   1.953   0.212 -0.0900 -0.8566  0.3882
12784SOL    HW141306   7.562   2.023   0.230 -1.6584  0.0801  2.5163
12784SOL    HW241307   7.437   1.991   0.151  0.1966 -1.0998 -0.0646
12785SOL     OW41308   0.057   7.063   5.413  0.5337  0.6797 -0.0883
12785SOL    HW141309   0.096   7.142   5.376  0.3844  0.5065 -0.6193
12785SOL    HW241310   0.064   6.998   5.344  0.6996  0.2097  0.3648
12786SOL     OW41311   0.002   7.689   7.935  0.0319  0.0200 -0.0939
12786SOL    HW141312   0.014   7.673   7.842  1.6960 -0.5330  0.1836
12786SOL    HW241313   0.086   7.725   7.965 -1.0080  1.8329  0.8808
12787SOL     OW41314   5.148   7.101   1.185  0.4022  0.4455  0.2296
12787SOL    HW141315   5.179   7.146   1.107  2.9429 -1.8864 -0.2680
12787SOL    HW241316   5.075   7.047   1.153  0.5997  0.4527 -0.2450
12788SOL     OW41317   8.036   1.296   4.423 -0.2771 -0.1514 -0.0286
12788SOL    HW141318   8.005   1.236   4.490  0.9635 -0.4659  0.2897
12788SOL    HW241319   8.006   1.258   4.341  1.0077 -1.5759  0.1220
12789SOL     OW41320   8.002   7.241   4.518  0.0252 -0.2260 -0.1654
12789SOL    HW141321   8.019   7.287   4.436  2.0845 -2.6245 -1.2394
12789SOL    HW241322   8.079   7.259   4.572 -1.2487  1.2192  1.2732
12790SOL     OW41323   7.920   0.214   7.207 -0.0266  0.3059 -0.1031
12790SOL    HW141324   7.984   0.157   7.249  0.3718 -0.7918 -2.0666
12790SOL    HW241325   7.850   0.155   7.178 -0.7174  1.1366 -0.1720
12791SOL     OW41326   4.332   2.407   1.760  0.5626 -0.9103  0.2738
12791SOL    HW141327   4.239   2.399   1.783  0.2352 -0.5867 -0.8448
12791SOL    HW241328   4.366   2.318   1.765  0.3501 -0.9428  1.3095
12792SOL     OW41329   2.932   0.694   5.177  0.2840  0.1932  0.3985
12792SOL    HW141330   2.883   0.736   5.106  0.1806  0.3772  0.5765
12792SOL    HW241331   2.904   0.602   5.174 -0.8674  0.4997  1.1550
12793SOL     OW41332   2.518   3.102   5.840 -0.3781  0.3246 -0.5076
12793SOL    HW141333   2.474   3.167   5.785  0.8083 -0.1781 -2.1340
12793SOL    HW241334   2.570   3.050   5.778  0.8948 -0.3784  1.0844
12794SOL     OW41335   6.547   0.625   7.343  0.0752  0.1297 -0.2136
12794SOL    HW141336   6.581   0.551   7.394 -0.0552  0.1187 -0.1443
12794SOL    HW241337   6.556   0.597   7.252  1.8319  0.7795 -0.2919
12795SOL     OW41338   7.555   4.263   4.683  0.7676  0.0530 -0.5599
12795SOL    HW141339   7.481   4.288   4.627  0.4532  0.2585 -0.0533
12795SOL    HW241340   7.543   4.315   4.763  0.5297 -1.1559  0.2046
12796SOL     OW41341   2.369   6.248   4.322 -0.2367 -0.0375 -0.3774
12796SOL    HW141342   2.287   6.221   4.365 -1.2575  0.8081 -1.7086
12796SOL    HW241343   2.367   6.344   4.326  0.4263  0.0037 -0.9064
12797SOL     OW41344   5.318   0.634   3.143 -0.6069  0.1545  0.3541
12797SOL    HW141345   5.268   0.630   3.062 -0.4395  1.2073  0.1870
12797SOL    HW241346   5.305   0.723   3.175 -1.4173 -0.4907  1.9715
12798SOL     OW41347   5.327   3.604   3.971 -0.0594  0.4044 -0.4306
12798SOL    HW141348   5.280   3.654   3.905  0.8581 -0.0829 -1.4817
12798SOL    HW241349   5.291   3.516   3.964 -0.8889  0.6386  0.6509
12799SOL     OW41350   2.062   0.714   6.712 -0.3531 -1.0240 -0.2169
12799SOL    HW141351   2.109   0.643   6.755 -0.1827  0.5580  2.3759
12799SOL    HW241352   2.123   0.748   6.647  1.5591 -0.0815  1.9494
12800SOL     OW41353   0.114   1.736   4.060  0.2671  0.4377 -0.0532
12800SOL    HW141354   0.207   1.759   4.059  0.4249 -0.1622  0.6418
12800SOL    HW241355   0.078   1.781   3.983  0.8517  1.7972  0.4440
12801SOL     OW41356   2.000   7.501   7.545  0.6160 -0.3600  0.0635
12801SOL    HW141357   1.915   7.528   7.510 -0.3692 -2.7803  0.3654
12801SOL    HW241358   2.033   7.436   7.483  1.2652 -0.9369  0.9725
12802SOL     OW41359   7.150   0.086   3.518  0.1728 -0.3076  0.2562
12802SOL    HW141360   7.221   0.148   3.538 -0.2821  0.3122 -0.0075
12802SOL    HW241361   7.070   0.132   3.545 -0.1367 -0.9791  0.5115
12803SOL     OW41362   7.980   0.311   1.077  0.0826 -0.2930 -0.2026
12803SOL    HW141363   8.015   0.234   1.121  0.2204  0.1249  0.4274
12803SOL    HW241364   7.892   0.285   1.050  0.0213 -0.5711  0.2664
12804SOL     OW41365   2.791   5.533   5.343 -0.2736 -0.0443 -0.0448
12804SOL    HW141366   2.773   5.624   5.318  0.7928  0.3487  0.5490
12804SOL    HW241367   2.789   5.534   5.439  0.0885 -0.5729 -0.0263
12805SOL     OW41368   5.340   3.821   3.345 -0.2433  0.6688 -0.0949
12805SOL    HW141369   5.266   3.849   3.291  0.2839  0.3214 -1.0301
12805SOL    HW241370   5.301   3.770   3.415 -0.8127 -0.7858 -1.4188
12806SOL     OW41371   4.735   7.277   2.941  0.0640 -0.0947  0.1313
12806SOL    HW141372   4.701   7.326   3.017 -0.6031  1.0232 -0.8455
12806SOL    HW241373   4.822   7.249   2.968 -0.4395 -0.3487  1.5789
12807SOL     OW41374   6.755   0.565   6.107  0.6054 -0.0516 -0.4738
12807SOL    HW141375   6.741   0.654   6.138 -2.2554 -0.9278  1.1708
12807SOL    HW241376   6.681   0.547   6.050  1.6867 -1.0934 -1.6308
12808SOL     OW41377   1.720   7.650   0.159  0.6073  0.8509  0.1328
12808SOL    HW141378   1.753   7.586   0.096  2.4003 -1.9998  3.5758
12808SOL    HW241379   1.632   7.619   0.181  1.3679 -0.4140  1.5890
12809SOL     OW41380   0.743   1.846   4.582  0.1500 -0.5610  0.1635
12809SOL    HW141381   0.748   1.803   4.497  0.5606 -0.0821 -0.0651
12809SOL    HW241382   0.812   1.913   4.578 -2.3811  2.2033 -0.6735
12810SOL     OW41383   6.977   0.312   4.393  0.3776 -0.5653  0.4306
12810SOL    HW141384   6.929   0.336   4.314 -0.5323 -0.0648  1.1088
12810SOL    HW241385   7.064   0.288   4.363 -0.1368 -0.9861 -0.7909
12811SOL     OW41386   3.229   7.208   0.582  0.4461 -0.2553  0.1787
12811SOL    HW141387   3.244   7.201   0.487  1.2304  0.5936  0.2300
12811SOL    HW241388   3.246   7.300   0.602 -1.2245 -0.0689  0.8966
12812SOL     OW41389   5.622   4.198   7.731  0.6641  0.2912 -0.5360
12812SOL    HW141390   5.704   4.168   7.692  0.4671  0.1944 -0.8821
12812SOL    HW241391   5.608   4.139   7.806  0.1919 -0.6063 -1.3098
12813SOL     OW41392   5.960   4.959   4.034 -0.0175  0.6003 -0.3925
12813SOL    HW141393   5.969   5.054   4.036 -0.6500  0.6901 -1.3894
12813SOL    HW241394   5.889   4.940   4.095  0.8868  0.6445  0.7135
12814SOL     OW41395   7.487   5.295   8.124 -0.7545  0.0339 -0.5179
12814SOL    HW141396   7.442   5.255   8.049 -0.1646 -0.4204 -0.6461
12814SOL    HW241397   7.455   5.385   8.126 -0.0844  0.3376 -1.9070
12815SOL     OW41398   5.284   0.913   7.608  0.5019 -0.5763 -0.5169
12815SOL    HW141399   5.257   0.822   7.594 -1.6214  0.0942 -1.1911
12815SOL    HW241400   5.244   0.961   7.535 -2.2182  1.5132  2.0713
12816SOL     OW41401   4.953   4.191   2.894  0.1441 -0.3667  0.1722
12816SOL    HW141402   4.886   4.129   2.867 -1.8193  1.6454  0.1551
12816SOL    HW241403   4.906   4.259   2.942  2.1216  1.2975 -0.0772
12817SOL     OW41404   1.141   2.135   6.400  0.6063  0.6791  0.4150
12817SOL    HW141405   1.104   2.215   6.364  3.1554  1.9616  0.4795
12817SOL    HW241406   1.134   2.146   6.495 -0.1519  0.2350  0.4219
12818SOL     OW41407   0.390   8.080   8.069  0.1613  0.2379 -0.1114
12818SOL    HW141408   0.408   8.158   8.122  2.2345  0.7457 -1.4448
12818SOL    HW241409   0.464   8.022   8.086 -0.9048 -1.1045  0.1639
12819SOL     OW41410   1.406   6.786   7.915  0.4044  0.7343  0.6969
12819SOL    HW141411   1.498   6.812   7.921  0.1714  1.2601  2.3117
12819SOL    HW241412   1.360   6.865   7.885  0.5859  0.1502 -1.2963
12820SOL     OW41413   0.329   3.705   2.863 -0.1622 -0.5360 -0.4652
12820SOL    HW141414   0.269   3.672   2.796 -1.5559  1.2851 -0.1876
12820SOL    HW241415   0.367   3.784   2.824  1.3336 -1.0969 -0.2362
12821SOL     OW41416   3.059   1.518   2.519  0.1235 -0.3771  0.5806
12821SOL    HW141417   2.997   1.500   2.590  0.2294 -1.7861  0.3479
12821SOL    HW241418   3.055   1.439   2.464  0.7870  0.2710 -0.4238
12822SOL     OW41419   0.651   5.490   0.848  0.6282 -0.5302  0.0418
12822SOL    HW141420   0.744   5.491   0.871  0.5476  0.8576  0.3654
12822SOL    HW241421   0.634   5.399   0.822  1.5668 -1.3027  1.9650
12823SOL     OW41422   3.387   4.755   1.704  0.2543 -0.2238  0.1244
12823SOL    HW141423   3.378   4.714   1.618 -0.0430  4.1937 -2.2309
12823SOL    HW241424   3.470   4.803   1.699 -0.4240  1.2268  1.7617
12824SOL     OW41425   1.673   4.887   3.768 -0.4216 -0.7089 -0.3736
12824SOL    HW141426   1.597   4.829   3.769  0.2400 -1.5812  0.8807
12824SOL    HW241427   1.749   4.829   3.771  0.3027  0.1773 -0.8581
12825SOL     OW41428   1.752   8.009   2.242 -0.4852  0.6924 -0.0365
12825SOL    HW141429   1.836   8.054   2.253 -0.0599 -0.3246  1.0105
12825SOL    HW241430   1.687   8.080   2.240  0.4859  1.6101 -2.3762
12826SOL     OW41431   3.416   1.540   4.732  0.0664 -0.0231 -0.6675
12826SOL    HW141432   3.503   1.567   4.762 -0.4872  0.8063  0.2691
12826SOL    HW241433   3.406   1.451   4.764  1.4549 -1.0115 -2.7753
12827SOL     OW41434   5.445   2.989   7.506  0.2529 -0.1169 -0.1503
12827SOL    HW141435   5.433   2.898   7.480  1.3362 -0.1146 -0.7048
12827SOL    HW241436   5.484   2.983   7.594  3.1233 -0.3031 -1.3303
12828SOL     OW41437   2.953   2.806   1.076  0.3066  0.0915 -0.1052
12828SOL    HW141438   2.969   2.852   0.993  0.2649  0.5859  0.1547
12828SOL    HW241439   3.015   2.733   1.075  0.9861  0.6493 -0.1497
12829SOL     OW41440   8.078   4.775   0.486 -0.0441  0.1821 -0.1475
12829SOL    HW141441   8.114   4.860   0.511  2.8092 -0.8237 -0.4502
12829SOL    HW241442   8.155   4.719   0.473 -1.7589 -2.1175 -1.1899
12830SOL     OW41443   2.457   8.128   7.404 -0.2115 -0.1194  0.9236
12830SOL    HW141444   2.394   8.137   7.332 -1.4091 -1.0529  1.8268
12830SOL    HW241445   2.534   8.087   7.364  0.3849  2.1412 -0.4697
12831SOL     OW41446   7.840   5.488   7.914  0.9168 -0.4823  0.2630
12831SOL    HW141447   7.780   5.446   7.976  2.8678 -0.5794  2.1764
12831SOL    HW241448   7.843   5.429   7.839 -1.7852 -0.1797 -0.1981
12832SOL     OW41449   4.652   8.034   6.465 -0.1445  0.0033  0.2285
12832SOL    HW141450   4.563   7.999   6.474 -0.5254  0.4425 -1.4877
12832SOL    HW241451   4.708   7.957   6.456 -0.5173 -0.2526  0.0973
12833SOL     OW41452   6.866   7.651   3.619 -0.1420  0.1088  0.0559
12833SOL    HW141453   6.848   7.731   3.571  3.4990  1.3465  0.4591
12833SOL    HW241454   6.874   7.584   3.552  0.9257  0.9852 -0.7124
12834SOL     OW41455   3.383   6.934   8.027 -0.2807  0.1749  0.0585
12834SOL    HW141456   3.297   6.963   7.998 -0.3098 -0.9298 -1.0414
12834SOL    HW241457   3.367   6.848   8.068  0.3730 -0.3689 -0.7934
12835SOL     OW41458   5.169   0.837   5.883 -0.3886  0.2986  0.2145
12835SOL    HW141459   5.242   0.806   5.829 -0.9518 -0.7616  0.0330
12835SOL    HW241460   5.110   0.761   5.889 -0.4055  0.4275  2.2050
12836SOL     OW41461   2.803   5.475   6.726  0.5160 -0.1296  0.2874
12836SOL    HW141462   2.821   5.553   6.779  1.9818 -2.0075  2.8118
12836SOL    HW241463   2.724   5.438   6.765 -0.2465  0.1411 -0.9806
12837SOL     OW41464   7.174   6.546   1.928 -0.0435  0.1100  0.1814
12837SOL    HW141465   7.136   6.585   1.850 -0.5506 -1.3116 -0.3117
12837SOL    HW241466   7.253   6.501   1.897 -0.4186 -0.7328  0.3944
12838SOL     OW41467   0.339   7.211   4.574 -0.2104  0.0510  0.1511
12838SOL    HW141468   0.375   7.149   4.512  0.2708  0.2664  0.2066
12838SOL    HW241469   0.410   7.227   4.636  0.4974  2.3500 -1.1107
12839SOL     OW41470   1.216   7.608   0.753  0.4823 -0.5591 -0.2084
12839SOL    HW141471   1.221   7.529   0.698  2.8077 -0.4251 -0.2810
12839SOL    HW241472   1.232   7.576   0.842 -2.8097 -0.7037  0.4628
12840SOL     OW41473   1.111   6.671   3.358 -0.1966  0.1327  0.0044
12840SOL    HW141474   1.192   6.718   3.340  0.0295 -0.8340 -1.6871
12840SOL    HW241475   1.073   6.717   3.433  3.0323 -0.8431  2.3928
12841SOL     OW41476   1.317   3.209   0.733  0.1184  0.3526  0.3519
12841SOL    HW141477   1.316   3.230   0.639 -0.9387  0.4283  0.3738
12841SOL    HW241478   1.320   3.294   0.777  0.2421  0.3253  0.3985
12842SOL     OW41479   4.206   5.115   3.554 -0.0743  0.3574 -0.3818
12842SOL    HW141480   4.231   5.053   3.622  2.5099  0.7923 -0.8497
12842SOL    HW241481   4.137   5.168   3.594  1.0547  0.3175  1.7504
12843SOL     OW41482   3.504   8.069   5.414 -1.1626 -0.5123 -0.2655
12843SOL    HW141483   3.573   8.124   5.377  0.4481  0.2511  3.4511
12843SOL    HW241484   3.423   8.103   5.375  0.3391 -0.8929 -4.1364
12844SOL     OW41485   7.189   2.397   5.163  0.0978  0.1240  0.3708
12844SOL    HW141486   7.208   2.313   5.122 -0.1552 -0.0065  0.5182
12844SOL    HW241487   7.248   2.459   5.120 -0.3936  0.0536 -0.4149
12845SOL     OW41488   7.193   2.361   7.162 -0.0760 -0.4636  0.3047
12845SOL    HW141489   7.176   2.409   7.081 -1.3745 -0.8237  0.3397
12845SOL    HW241490   7.255   2.293   7.137 -0.6481 -0.7268 -0.4611
12846SOL     OW41491   7.691   0.671   7.156 -0.2793  0.5078 -0.6742
12846SOL    HW141492   7.606   0.631   7.139 -0.3370  0.6399 -0.7030
12846SOL    HW241493   7.735   0.611   7.215 -0.9149  1.0938  0.4394
12847SOL     OW41494   3.980   0.315   3.323 -0.0027 -0.3858  0.4593
12847SOL    HW141495   3.968   0.401   3.363 -0.5673 -0.9415  1.5208
12847SOL    HW241496   4.075   0.301   3.325  0.1559  0.4901 -0.3516
12848SOL     OW41497   2.525   1.746   4.452  0.0903 -0.3692  0.1828
12848SOL    HW141498   2.527   1.716   4.542  0.0649 -1.3564 -0.1333
12848SOL    HW241499   2.458   1.814   4.450  0.8093  0.3948  1.1118
12849SOL     OW41500   1.140   3.997   6.409 -0.5385 -0.1553 -0.2222
12849SOL    HW141501   1.168   3.912   6.444 -1.2644 -0.1192  0.4965
12849SOL    HW241502   1.127   4.051   6.487 -3.4839 -0.4566 -0.3964
12850SOL     OW41503   5.778   6.234   1.047  0.4839 -0.2867  0.6092
12850SOL    HW141504   5.728   6.161   1.011 -0.2560  0.5929 -0.1807
12850SOL    HW241505   5.822   6.197   1.124 -2.4939 -0.7739  2.2200
12851SOL     OW41506   6.864   1.486   0.204 -0.0584  0.6415  0.5127
12851SOL    HW141507   6.861   1.418   0.136 -0.6583 -1.4920  2.5358
12851SOL    HW241508   6.945   1.534   0.187  0.9099 -1.2383 -0.4389
12852SOL     OW41509   5.699   4.188   6.468  0.4008 -0.0299  0.9202
12852SOL    HW141510   5.728   4.120   6.406  0.6512  1.9470 -1.2646
12852SOL    HW241511   5.607   4.202   6.446 -0.1438 -0.8004  2.5473
12853SOL     OW41512   7.107   7.452   5.228  0.3715  0.2294 -0.1215
12853SOL    HW141513   7.068   7.463   5.142 -0.1383 -0.6658 -0.0103
12853SOL    HW241514   7.193   7.493   5.220  0.1947  0.4649 -0.9453
12854SOL     OW41515   2.792   2.235   1.800  0.0061 -0.0614  0.0989
12854SOL    HW141516   2.839   2.307   1.758 -1.1648  1.1794  0.8398
12854SOL    HW241517   2.810   2.246   1.893 -0.6148 -0.4063  0.2655
12855SOL     OW41518   0.009   5.985   5.162 -0.1912 -0.1783 -0.1487
12855SOL    HW141519   0.033   5.981   5.255  1.1990  0.0793 -0.4740
12855SOL    HW241520  -0.022   5.896   5.142  0.1372 -0.4202  0.3948
12856SOL     OW41521   5.017   0.053   0.718 -0.6348 -0.3560  0.1853
12856SOL    HW141522   5.022   0.089   0.630  0.2263 -2.5325 -0.7368
12856SOL    HW241523   5.099   0.078   0.760 -0.6173 -0.1507  0.0291
12857SOL     OW41524   1.358   4.094   0.683 -0.6539 -0.4936  0.1634
12857SOL    HW141525   1.349   4.004   0.651  0.0532  0.3491 -2.6192
12857SOL    HW241526   1.449   4.118   0.663 -0.1513  0.2224  2.8037
12858SOL     OW41527   5.943   3.888   2.408  0.1195  0.6970 -0.6245
12858SOL    HW141528   5.853   3.857   2.416  0.5404 -0.7401 -1.0124
12858SOL    HW241529   5.936   3.977   2.374 -1.1674  0.9534  0.2570
12859SOL     OW41530   2.193   0.300   0.157 -0.0532  0.0289 -0.4278
12859SOL    HW141531   2.141   0.323   0.080 -1.1728 -1.3323 -0.1195
12859SOL    HW241532   2.139   0.235   0.203 -0.2596  2.0783  2.4648
12860SOL     OW41533   5.500   1.051   0.790 -0.1105  0.3814 -0.0379
12860SOL    HW141534   5.522   1.121   0.728 -1.2973  0.2367 -0.6540
12860SOL    HW241535   5.422   1.083   0.835  0.2706  0.1262  0.8190
12861SOL     OW41536   0.103   6.890   5.218  0.6119 -0.7437  0.0574
12861SOL    HW141537   0.178   6.881   5.159  0.5370 -1.8908  0.1158
12861SOL    HW241538   0.059   6.805   5.214  0.1334 -0.5637  1.1334
12862SOL     OW41539   6.090   6.405   6.063  0.2491 -0.0288  0.3505
12862SOL    HW141540   6.054   6.409   6.152 -1.1153  0.1686 -0.1868
12862SOL    HW241541   6.013   6.400   6.006  1.1078 -0.3882 -0.8145
12863SOL     OW41542   4.569   1.407   6.514 -0.2166 -0.1038  0.4733
12863SOL    HW141543   4.634   1.341   6.540 -0.6389 -1.0794 -0.8100
12863SOL    HW241544   4.487   1.375   6.551 -0.8259 -1.5126 -1.8528
12864SOL     OW41545   7.350   7.969   4.445 -0.3810 -0.3943  0.2452
12864SOL    HW141546   7.315   8.034   4.507 -1.1461 -0.1597 -0.4107
12864SOL    HW241547   7.275   7.912   4.426 -0.4308  0.1266 -1.2081
12865SOL     OW41548   6.567   4.486   3.971  0.0167  0.7365 -0.4537
12865SOL    HW141549   6.644   4.449   3.927 -0.2759  1.4869 -1.5984
12865SOL    HW241550   6.591   4.484   4.064  0.8664 -0.3168 -0.6689
12866SOL     OW41551   1.617   7.977   1.118 -0.1680 -0.1001 -0.9784
12866SOL    HW141552   1.574   7.938   1.042  0.3871 -0.1035 -1.2901
12866SOL    HW241553   1.670   7.906   1.155 -0.8951 -0.2762 -0.2286
12867SOL     OW41554   7.599   1.589   0.618  0.0588  0.2375 -0.0078
12867SOL    HW141555   7.525   1.567   0.675 -1.1029  0.9328 -1.2141
12867SOL    HW241556   7.589   1.682   0.599  0.3660  0.0020 -1.4324
12868SOL     OW41557   5.080   4.628   3.571 -0.6246  0.5019  0.5718
12868SOL    HW141558   5.000   4.600   3.526  0.6585 -1.5399 -0.5486
12868SOL    HW241559   5.120   4.692   3.512 -1.2179  1.2838  0.9871
12869SOL     OW41560   1.512   3.549   1.701  0.7728  0.1592 -0.0873
12869SOL    HW141561   1.460   3.485   1.654  0.5930  0.4862 -0.3362
12869SOL    HW241562   1.584   3.499   1.739 -0.1378 -0.4284  0.9122
12870SOL     OW41563   3.232   1.661   7.957 -0.2882  0.4686  0.0745
12870SOL    HW141564   3.153   1.614   7.983 -0.2865  0.1369 -0.5026
12870SOL    HW241565   3.201   1.731   7.901 -0.3501  1.5600  1.4194
12871SOL     OW41566   7.492   6.960   2.628  0.7104  0.1928  0.2663
12871SOL    HW141567   7.552   6.999   2.691 -0.9807  1.6918  1.0456
12871SOL    HW241568   7.409   7.006   2.642 -0.0432 -0.2295 -2.2690
12872SOL     OW41569   0.354   5.858   6.591 -0.0470  0.3378 -0.0617
12872SOL    HW141570   0.311   5.869   6.676 -1.1936  0.6137 -0.6516
12872SOL    HW241571   0.298   5.797   6.544  0.7468 -0.0512 -0.5205
12873SOL     OW41572   1.001   6.450   7.525 -0.7806  0.1608  0.4246
12873SOL    HW141573   1.049   6.463   7.444 -1.0967 -1.7899 -0.1460
12873SOL    HW241574   0.910   6.435   7.497 -1.0497  0.3064  1.1906
12874SOL     OW41575   7.466   6.337   0.169 -0.4822 -0.0187 -0.2700
12874SOL    HW141576   7.474   6.290   0.086  0.0099  1.0070 -0.8189
12874SOL    HW241577   7.556   6.366   0.188 -0.3796 -1.1689  1.1834
12875SOL     OW41578   6.732   2.603   5.394 -0.2696  0.1015 -0.3907
12875SOL    HW141579   6.654   2.591   5.340 -1.3536 -0.3444  1.1942
12875SOL    HW241580   6.757   2.515   5.421  0.3862  0.2932 -0.3569
12876SOL     OW41581   0.538   2.948   1.563 -0.2826  0.1581 -0.3109
12876SOL    HW141582   0.584   3.032   1.551  1.8270 -0.8314  0.3522
12876SOL    HW241583   0.491   2.959   1.645  0.4764  0.5062  0.0925
12877SOL     OW41584   3.456   3.907   5.777  1.0458 -0.1867 -0.1494
12877SOL    HW141585   3.443   3.996   5.743 -0.9356  0.3758  1.8650
12877SOL    HW241586   3.487   3.919   5.867 -0.6418 -1.4533  0.6693
12878SOL     OW41587   7.436   2.827   3.996  0.6868 -0.4011  0.3048
12878SOL    HW141588   7.427   2.748   3.942 -2.0867  0.0926 -0.0926
12878SOL    HW241589   7.378   2.891   3.956 -1.0839  0.1898  3.4530
12879SOL     OW41590   3.842   2.285   4.739  0.5859 -0.7186  0.1449
12879SOL    HW141591   3.766   2.308   4.793 -0.2274 -2.1816 -0.3028
12879SOL    HW241592   3.914   2.274   4.801 -0.1723 -1.6978  0.8827
12880SOL     OW41593   2.569   2.663   6.213  0.2647  0.0908  0.5887
12880SOL    HW141594   2.482   2.626   6.205  0.7644 -0.6742 -3.2208
12880SOL    HW241595   2.569   2.738   6.154  2.3686 -0.3564 -0.0676
12881SOL     OW41596   2.455   5.017   0.146  0.0395  0.3881 -0.3809
12881SOL    HW141597   2.471   5.067   0.226 -0.3861 -0.4039  0.2107
12881SOL    HW241598   2.406   4.940   0.175 -0.5229  0.3217 -1.4733
12882SOL     OW41599   7.741   6.306   2.335 -0.6418  0.4843  0.1384
12882SOL    HW141600   7.678   6.337   2.270 -0.3761 -1.2177 -1.0019
12882SOL    HW241601   7.799   6.381   2.350 -1.5379  1.3411 -0.5613
12883SOL     OW41602   1.742   0.749   2.448 -0.1439  0.2552 -0.1290
12883SOL    HW141603   1.707   0.789   2.368 -2.6289 -1.0224  0.2194
12883SOL    HW241604   1.691   0.668   2.458  1.7756 -0.8364  1.4628
12884SOL     OW41605   0.943   8.062   1.616  0.2172  0.4522 -0.0740
12884SOL    HW141606   0.971   8.152   1.599 -1.0401  0.4691 -2.4581
12884SOL    HW241607   0.853   8.058   1.582 -0.1712 -1.4171  1.0295
12885SOL     OW41608   2.506   7.704   1.357  0.6269  0.0037 -0.0916
12885SOL    HW141609   2.476   7.676   1.270 -1.1877  1.5808 -0.0479
12885SOL    HW241610   2.498   7.626   1.411 -0.0258 -0.5287 -0.9310
12886SOL     OW41611   6.168   0.853   1.497 -0.2779  0.5206  0.0859
12886SOL    HW141612   6.203   0.777   1.451 -2.2423 -1.3687  1.5033
12886SOL    HW241613   6.189   0.838   1.589 -0.1465  2.0395  0.3299
12887SOL     OW41614   6.759   5.194   0.752  0.2528  0.2261  0.2018
12887SOL    HW141615   6.786   5.166   0.665  2.0938  0.1952  0.7258
12887SOL    HW241616   6.677   5.240   0.739 -1.0579 -2.3211 -1.1394
12888SOL     OW41617   7.381   6.887   5.231  0.0740 -0.2249  0.2672
12888SOL    HW141618   7.311   6.873   5.295  0.4742 -0.6084  0.6271
12888SOL    HW241619   7.459   6.904   5.284  0.3852 -0.4309 -0.1198
12889SOL     OW41620   6.595   0.677   6.383  0.2166 -0.0488  0.3600
12889SOL    HW141621   6.672   0.728   6.357  0.0683  0.0974  0.2029
12889SOL    HW241622   6.522   0.718   6.335 -0.1229  0.4448  1.2813
12890SOL     OW41623   6.044   1.130   4.372  0.0791 -0.3536 -0.4122
12890SOL    HW141624   6.046   1.172   4.458 -0.7642 -0.3609 -0.3763
12890SOL    HW241625   6.129   1.149   4.333 -0.1460  1.0616 -0.2376
12891SOL     OW41626   5.037   5.848   4.164  0.0577 -0.1527  0.1400
12891SOL    HW141627   5.109   5.849   4.101  0.3845  1.0084  0.5087
12891SOL    HW241628   4.983   5.773   4.138  1.3753 -1.0240 -0.1544
12892SOL     OW41629   1.888   0.336   4.508  0.0750  0.0129 -0.4223
12892SOL    HW141630   1.835   0.413   4.530 -0.6837  0.3195 -2.9387
12892SOL    HW241631   1.972   0.372   4.480  0.5114 -0.2592  0.5006
12893SOL     OW41632   4.934   2.581   6.362 -0.7215  0.1519  0.1277
12893SOL    HW141633   4.945   2.676   6.358 -0.1992  0.0733 -0.6505
12893SOL    HW241634   5.005   2.550   6.417  1.2477 -0.0610 -2.3258
12894SOL     OW41635   3.254   6.033   5.955  0.4405  0.4491  0.4921
12894SOL    HW141636   3.195   6.079   6.016  0.6217  0.8213  0.3929
12894SOL    HW241637   3.209   5.951   5.935  0.5353  0.1597  1.3989
12895SOL     OW41638   3.111   4.405   4.171 -0.0406  0.6862 -0.1457
12895SOL    HW141639   3.038   4.467   4.179 -0.0626  0.6595 -0.1395
12895SOL    HW241640   3.114   4.385   4.077 -0.8912 -0.3338  0.0295
12896SOL     OW41641   0.298   0.461   6.036  0.4392 -0.0766  0.2139
12896SOL    HW141642   0.308   0.371   6.006 -0.0029 -0.7748  2.0075
12896SOL    HW241643   0.362   0.511   5.986  0.6920 -1.3767 -0.8120
12897SOL     OW41644   4.379   3.640   3.747  0.1901 -0.0696  0.6612
12897SOL    HW141645   4.339   3.666   3.831 -0.4830  0.0832  0.3044
12897SOL    HW241646   4.421   3.720   3.715  0.4837 -0.1390  0.8693
12898SOL     OW41647   4.967   3.505   1.831 -0.3062  0.2073 -0.5594
12898SOL    HW141648   4.997   3.557   1.757 -1.0731 -0.3449 -1.2670
12898SOL    HW241649   4.879   3.537   1.849  0.4836  1.5874  1.2901
12899SOL     OW41650   1.740   1.937   6.986  0.3633 -0.3767  0.3470
12899SOL    HW141651   1.702   1.939   7.074  0.3185 -0.0139  0.3216
12899SOL    HW241652   1.747   1.844   6.965 -0.5459 -0.4552  0.3395
12900SOL     OW41653   4.639   0.364   3.850  0.0220 -0.6618 -0.3620
12900SOL    HW141654   4.547   0.341   3.832 -0.8317  1.8847  0.3319
12900SOL    HW241655   4.636   0.408   3.935  1.9415 -0.6940 -0.2434
12901SOL     OW41656   0.341   0.154   7.111  0.1103 -0.3087 -0.1838
12901SOL    HW141657   0.429   0.139   7.076 -0.1140 -3.3850  0.3377
12901SOL    HW241658   0.283   0.114   7.047 -0.8714  0.6599  0.0709
12902SOL     OW41659   5.105   4.427   5.680  0.2676 -0.1948  0.1127
12902SOL    HW141660   5.070   4.425   5.769 -0.7198 -1.2326 -0.2790
12902SOL    HW241661   5.086   4.515   5.649 -3.4667 -1.0951 -0.6123
12903SOL     OW41662   2.248   0.846   5.363  0.2888  0.1273 -0.2604
12903SOL    HW141663   2.258   0.938   5.338  2.7390 -0.2784 -1.0346
12903SOL    HW241664   2.259   0.845   5.458 -1.4400  0.7872 -0.0194
12904SOL     OW41665   7.780   7.274   2.997  0.1321 -0.5127 -0.0430
12904SOL    HW141666   7.787   7.202   2.935 -2.2645 -0.3842 -0.5566
12904SOL    HW241667   7.851   7.259   3.059  1.1707 -1.9335 -1.4900
12905SOL     OW41668   1.436   2.854   1.336 -0.4093 -0.0923  0.2444
12905SOL    HW141669   1.491   2.922   1.375  1.5993 -0.8983 -1.0447
12905SOL    HW241670   1.460   2.853   1.244 -0.2236 -2.6453  0.2518
12906SOL     OW41671   6.688   2.174   2.783 -0.6448  0.4220 -0.3295
12906SOL    HW141672   6.702   2.107   2.850 -1.4010 -1.2957 -1.8112
12906SOL    HW241673   6.602   2.211   2.804 -1.6691 -1.3102 -1.2812
12907SOL     OW41674   4.674   7.599   1.974 -0.1380  0.0159 -0.6148
12907SOL    HW141675   4.717   7.545   2.041 -1.1292  2.0283  1.7948
12907SOL    HW241676   4.584   7.567   1.972 -0.3400  0.5469 -0.2836
12908SOL     OW41677   7.536   2.387   4.842 -0.2104  0.2813 -0.4666
12908SOL    HW141678   7.505   2.420   4.758  0.1041 -0.3262 -0.8254
12908SOL    HW241679   7.515   2.457   4.904 -0.1061  0.8929 -1.1075
12909SOL     OW41680   5.259   1.025   6.108  0.2520  0.5601 -0.2521
12909SOL    HW141681   5.222   0.972   6.036 -0.2556 -0.4724  0.7392
12909SOL    HW241682   5.354   1.023   6.093  0.0934  1.5123 -1.6512
12910SOL     OW41683   8.014   1.800   3.221 -0.3419 -0.1838 -0.2065
12910SOL    HW141684   8.093   1.763   3.261 -0.6321 -1.0070 -0.3877
12910SOL    HW241685   7.945   1.737   3.241 -1.1986  1.0336  0.8800
12911SOL     OW41686   4.758   3.014   4.277 -0.8354 -0.4135 -0.0469
12911SOL    HW141687   4.769   3.029   4.183 -0.9211 -1.1716 -0.1848
12911SOL    HW241688   4.667   2.986   4.287 -1.0424  0.3811  0.3625
12912SOL     OW41689   1.690   6.334   1.229  0.5187  0.4378 -0.2566
12912SOL    HW141690   1.606   6.314   1.186 -0.5014  1.1430  1.3155
12912SOL    HW241691   1.686   6.428   1.245  1.0628  0.2630  0.9669
12913SOL     OW41692   7.275   2.987   7.392 -0.1036  0.0061  0.1195
12913SOL    HW141693   7.331   3.047   7.442  0.3652  0.4713 -0.9519
12913SOL    HW241694   7.226   2.939   7.460 -0.4846  1.5734  1.0038
12914SOL     OW41695   7.155   2.627   5.995 -0.4923 -0.1808 -0.1862
12914SOL    HW141696   7.132   2.683   6.069 -2.2499  0.1925 -0.9748
12914SOL    HW241697   7.124   2.675   5.918  1.8665 -0.2519 -1.2708
12915SOL     OW41698   1.067   4.170   7.250  0.5572 -0.1237  0.2703
12915SOL    HW141699   0.986   4.145   7.294  0.3027 -0.1916 -0.2427
12915SOL    HW241700   1.087   4.097   7.192  1.4396 -0.4906  1.0044
12916SOL     OW41701   4.129   5.911   1.452 -0.5362  0.5470  0.2287
12916SOL    HW141702   4.098   5.998   1.429 -0.0138  0.6680 -0.0147
12916SOL    HW241703   4.138   5.866   1.368  1.9120  1.1631  0.1026
12917SOL     OW41704   7.831   6.956   0.885 -0.1180 -0.2144  0.3672
12917SOL    HW141705   7.795   7.044   0.874  0.5971  0.1792  1.0894
12917SOL    HW241706   7.788   6.923   0.964  1.1567  0.3139  1.3197
12918SOL     OW41707   5.397   0.411   2.499  0.0436 -0.3659  0.4021
12918SOL    HW141708   5.423   0.320   2.515 -0.8086 -0.4513  1.4329
12918SOL    HW241709   5.474   0.451   2.459  0.7494 -1.3155  0.7585
12919SOL     OW41710   7.610   7.722   1.675  0.2716  0.0631 -0.4016
12919SOL    HW141711   7.693   7.716   1.722 -0.0046  1.6939  0.3688
12919SOL    HW241712   7.550   7.763   1.738 -1.2522 -1.4655 -0.7937
12920SOL     OW41713   3.997   0.428   1.678 -0.1185 -0.4735  0.6233
12920SOL    HW141714   4.065   0.470   1.626  0.0007  0.2717  1.3431
12920SOL    HW241715   3.915   0.458   1.639 -0.0754 -2.1228 -0.8351
12921SOL     OW41716   6.899   0.605   6.606  0.4993  0.2525  0.1445
12921SOL    HW141717   6.928   0.685   6.650 -0.2668  1.0568 -0.7832
12921SOL    HW241718   6.826   0.633   6.551  1.0175 -0.8463 -1.1425
12922SOL     OW41719   2.922   7.615   6.304 -0.4439  0.1540 -0.3024
12922SOL    HW141720   2.999   7.626   6.248 -0.7091 -0.6150 -0.8383
12922SOL    HW241721   2.914   7.520   6.314 -0.3972  0.2714  1.0621
12923SOL     OW41722   5.181   3.416   7.604  0.3042  0.0755  0.2108
12923SOL    HW141723   5.125   3.389   7.532  0.4842  2.0972 -0.7750
12923SOL    HW241724   5.265   3.374   7.586  0.1155 -0.0934 -0.3012
12924SOL     OW41725   7.625   7.308   3.601  0.6338  0.2878  0.1468
12924SOL    HW141726   7.594   7.382   3.549  1.2240  0.5363  0.1405
12924SOL    HW241727   7.590   7.231   3.556 -0.1436  0.5648  0.2622
12925SOL     OW41728   8.066   2.533   6.341 -0.0320 -0.1343 -0.6677
12925SOL    HW141729   8.126   2.606   6.355 -1.7894  1.3705 -0.6610
12925SOL    HW241730   8.001   2.566   6.279 -3.5649  0.0163  2.7827
12926SOL     OW41731   6.294   3.862   1.956 -0.6724  0.4357  0.2548
12926SOL    HW141732   6.306   3.925   2.027 -2.7091  1.3455 -0.1229
12926SOL    HW241733   6.213   3.890   1.913 -0.0221 -0.6631 -1.8339
12927SOL     OW41734   6.770   0.743   0.221 -0.5846 -0.3934  0.2208
12927SOL    HW141735   6.843   0.778   0.171 -0.5678  0.2620  0.6939
12927SOL    HW241736   6.736   0.818   0.270 -0.5112 -1.0470  1.3072
12928SOL     OW41737   1.126   6.459   5.296  0.0009 -0.1044 -0.3186
12928SOL    HW141738   1.036   6.437   5.271  0.2441 -0.6610 -0.7114
12928SOL    HW241739   1.116   6.523   5.367 -0.7055 -0.7263  0.1500
12929SOL     OW41740   3.016   6.315   6.867 -0.8808  0.0009 -0.0488
12929SOL    HW141741   2.973   6.332   6.783 -1.2022 -0.7345 -0.0379
12929SOL    HW241742   3.059   6.398   6.888  0.2741 -0.1720 -1.5489
12930SOL     OW41743   6.168   6.949   6.675 -0.2891  0.0931 -0.3983
12930SOL    HW141744   6.247   6.994   6.705 -2.9375  4.0120  1.5562
12930SOL    HW241745   6.162   6.971   6.582 -0.2826  1.8854 -0.0058
12931SOL     OW41746   7.901   0.340   2.845 -0.0118 -0.0317  0.1305
12931SOL    HW141747   7.960   0.270   2.874  0.4110 -0.2347 -1.1580
12931SOL    HW241748   7.956   0.418   2.843  0.0370 -0.0729 -0.3473
12932SOL     OW41749   4.190   5.105   2.930 -0.0063 -0.1281  0.0401
12932SOL    HW141750   4.268   5.080   2.979  2.2161 -0.5972 -3.3976
12932SOL    HW241751   4.169   5.028   2.877  0.0486  1.4602 -2.4472
12933SOL     OW41752   5.411   1.903   3.447  0.4958  0.4625  0.1970
12933SOL    HW141753   5.476   1.860   3.391  0.5295  1.8307 -0.8767
12933SOL    HW241754   5.330   1.897   3.397  0.0521 -0.1414  0.9736
12934SOL     OW41755   1.313   1.518   4.567  0.5670  0.6067  0.4409
12934SOL    HW141756   1.295   1.610   4.548 -0.6960  0.1717 -0.5648
12934SOL    HW241757   1.340   1.481   4.484 -0.4571 -0.2783  0.4853
12935SOL     OW41758   6.104   6.773   1.108 -0.1703 -0.2480  0.1660
12935SOL    HW141759   6.091   6.693   1.159 -0.0614 -0.8693 -0.7642
12935SOL    HW241760   6.197   6.791   1.116 -0.3136  0.2073  0.9677
12936SOL     OW41761   0.109   1.121   4.233  0.2238 -0.4648  0.0875
12936SOL    HW141762   0.121   1.107   4.327 -1.9741  0.5422  0.5979
12936SOL    HW241763   0.179   1.181   4.208  2.3914 -2.6922  0.4558
12937SOL     OW41764   1.695   5.391   3.410  0.9597  0.5714 -0.4527
12937SOL    HW141765   1.769   5.329   3.407 -0.0551 -0.6401 -2.0622
12937SOL    HW241766   1.730   5.472   3.373  1.8494  0.4463  0.0854
12938SOL     OW41767   0.258   7.172   2.287  0.3610 -0.7119  0.2409
12938SOL    HW141768   0.261   7.143   2.196 -0.2853 -0.7839  0.2389
12938SOL    HW241769   0.339   7.140   2.326  1.4722  0.7756 -0.7349
12939SOL     OW41770   2.604   5.549   3.981  0.3300 -0.0872 -0.3564
12939SOL    HW141771   2.518   5.579   3.951  0.2106  1.2721  1.2397
12939SOL    HW241772   2.584   5.488   4.052  0.5861  2.9205  2.5313
12940SOL     OW41773   6.611   2.720   0.380 -0.2597  0.0444  0.3919
12940SOL    HW141774   6.684   2.779   0.397 -0.8501  0.7977  0.3291
12940SOL    HW241775   6.543   2.746   0.442 -1.0332  0.3462 -0.5533
12941SOL     OW41776   5.188   2.159   3.446 -0.1785  0.0089  0.1497
12941SOL    HW141777   5.167   2.066   3.452 -1.1174  0.2929  1.7581
12941SOL    HW241778   5.174   2.193   3.534  1.7058  1.3809 -0.0045
12942SOL     OW41779   4.624   6.308   5.466  0.4295 -0.0943  0.3864
12942SOL    HW141780   4.614   6.240   5.399  2.6635 -1.0380  0.8905
12942SOL    HW241781   4.540   6.310   5.511  0.3555 -2.7476  0.5109
12943SOL     OW41782   5.730   6.917   2.424  0.2940 -0.6625 -0.0324
12943SOL    HW141783   5.775   6.867   2.492  2.4815  1.5879  0.3174
12943SOL    HW241784   5.698   6.995   2.469  1.4624  0.6890 -1.4443
12944SOL     OW41785   5.030   0.831   7.819  0.6417 -0.2265  0.4943
12944SOL    HW141786   5.084   0.792   7.750  0.2016  0.8853 -0.5302
12944SOL    HW241787   5.059   0.789   7.900  3.4717  0.7251  0.0840
12945SOL     OW41788   7.942   4.485   7.675  0.2117 -0.8017  0.1765
12945SOL    HW141789   7.910   4.535   7.600  0.3210  1.5091  1.5761
12945SOL    HW241790   7.888   4.406   7.677 -0.6608 -0.2783 -1.5482
12946SOL     OW41791   4.469   3.117   5.638  0.2324  0.3131 -0.2858
12946SOL    HW141792   4.522   3.056   5.688 -1.6636  0.6321  2.2672
12946SOL    HW241793   4.529   3.190   5.619  0.9969  0.2150  1.5995
12947SOL     OW41794   7.099   7.328   3.635  0.4848 -0.0290 -0.0714
12947SOL    HW141795   7.098   7.402   3.696  1.2957  0.2658 -0.4144
12947SOL    HW241796   7.054   7.258   3.683 -0.6531  0.7931  0.1038
12948SOL     OW41797   3.601   0.498   0.243  0.3822  0.0730 -0.1599
12948SOL    HW141798   3.556   0.473   0.324 -1.0085 -0.8458 -1.1778
12948SOL    HW241799   3.687   0.527   0.272  0.8407 -2.5836  1.4718
12949SOL     OW41800   4.486   0.267   6.227  0.0900 -0.3496  0.1573
12949SOL    HW141801   4.496   0.362   6.239  0.1201 -0.4299  0.7970
12949SOL    HW241802   4.516   0.230   6.310 -0.7132 -0.8767  0.2156
12950SOL     OW41803   7.054   0.736   0.516  0.2138  0.1438 -0.0742
12950SOL    HW141804   7.082   0.762   0.429  0.7870 -0.4976 -0.0848
12950SOL    HW241805   6.969   0.693   0.502  0.6017 -0.5291 -0.3960
12951SOL     OW41806   6.412   1.611   0.220 -0.3244 -0.5688 -0.1815
12951SOL    HW141807   6.403   1.523   0.257 -1.7134  0.3571  1.8373
12951SOL    HW241808   6.336   1.620   0.162 -0.6630 -0.4073  0.2815
12952SOL     OW41809   3.357   2.755   4.712 -0.0468  0.1780  0.1623
12952SOL    HW141810   3.350   2.729   4.620  3.3333 -0.5905 -0.0192
12952SOL    HW241811   3.391   2.844   4.710 -0.8471  0.5122  0.7127
12953SOL     OW41812   1.411   0.593   5.457  0.2079  0.0855  0.7405
12953SOL    HW141813   1.350   0.651   5.502 -0.3176  0.4241 -0.3780
12953SOL    HW241814   1.403   0.509   5.503  0.6672  0.7617  2.1060
12954SOL     OW41815   0.195   7.670   2.158  0.4545 -0.2476  0.5210
12954SOL    HW141816   0.106   7.676   2.195  0.1875  1.6492 -0.2997
12954SOL    HW241817   0.250   7.713   2.223  0.4067  0.5737  0.0373
12955SOL     OW41818   1.508   7.958   3.029  0.1447 -0.3477  0.0351
12955SOL    HW141819   1.504   7.891   2.962  2.3560  0.9993 -1.5869
12955SOL    HW241820   1.526   7.910   3.110 -1.8606 -1.9427 -0.3915
12956SOL     OW41821   3.085   0.549   2.529 -0.0305 -0.0194 -0.1506
12956SOL    HW141822   3.133   0.488   2.473  2.7915  1.0686  0.9227
12956SOL    HW241823   3.116   0.635   2.502  0.3980  0.5981  2.1157
12957SOL     OW41824   4.070   4.006   5.377 -0.0234  0.1629  0.0021
12957SOL    HW141825   4.165   4.001   5.373 -0.0796 -1.0489  0.0359
12957SOL    HW241826   4.039   3.946   5.309 -0.7716  0.9030 -0.3386
12958SOL     OW41827   1.812   1.670   5.866  0.4408 -0.1478 -0.0587
12958SOL    HW141828   1.740   1.710   5.915  2.0767  0.7281  1.7465
12958SOL    HW241829   1.890   1.717   5.894  1.9950 -2.2386 -0.5896
12959SOL     OW41830   6.862   0.021   2.291 -0.2539  0.1036 -0.6245
12959SOL    HW141831   6.780   0.070   2.292  0.0877  0.7265 -1.6125
12959SOL    HW241832   6.865  -0.023   2.376 -1.7103 -0.1090 -0.6638
12960SOL     OW41833   5.035   5.932   3.329 -0.1924 -0.6029 -0.1884
12960SOL    HW141834   5.109   5.946   3.269 -0.5400 -0.5837 -0.6197
12960SOL    HW241835   5.076   5.915   3.414  0.3240 -1.0984 -0.5271
12961SOL     OW41836   3.237   1.837   0.119  0.6463  0.2747  0.2821
12961SOL    HW141837   3.192   1.885   0.049 -0.4198 -0.8092  0.1961
12961SOL    HW241838   3.226   1.745   0.096 -0.7291 -0.1695  2.4282
12962SOL     OW41839   6.624   3.343   6.592 -0.1041 -0.2213 -0.0747
12962SOL    HW141840   6.607   3.324   6.685 -1.5502 -0.0667 -0.2852
12962SOL    HW241841   6.701   3.400   6.593 -2.1757  2.7905  1.3237
12963SOL     OW41842   1.567   4.811   6.955 -0.3580  0.1633  0.3621
12963SOL    HW141843   1.572   4.882   6.891  0.9839  0.2295  0.5075
12963SOL    HW241844   1.610   4.846   7.033 -1.4641 -0.1214  1.1236
12964SOL     OW41845   5.928   4.931   4.780 -0.4791  0.0831 -0.0143
12964SOL    HW141846   6.009   4.978   4.797 -1.5186  1.8959  0.1181
12964SOL    HW241847   5.924   4.924   4.685  1.0814 -2.4070  0.0016
12965SOL     OW41848   4.592   0.834   4.362  0.0304 -0.2856  0.4020
12965SOL    HW141849   4.686   0.833   4.346 -0.2759 -1.7642 -1.7860
12965SOL    HW241850   4.583   0.802   4.452  1.6427  1.6476  1.3380
12966SOL     OW41851   2.163   5.642   1.783 -0.5810 -0.1553  0.1634
12966SOL    HW141852   2.243   5.591   1.796  0.7678  1.6111 -0.7656
12966SOL    HW241853   2.126   5.608   1.701 -0.0134 -0.0634 -0.1373
12967SOL     OW41854   3.387   0.851   2.291  0.7965  0.9255 -0.4657
12967SOL    HW141855   3.332   0.823   2.365  1.6389 -2.9373 -1.0951
12967SOL    HW241856   3.353   0.802   2.216  4.3854 -0.9151 -1.0679
12968SOL     OW41857   4.946   6.054   0.008 -0.3418  0.0899  0.0573
12968SOL    HW141858   4.953   6.070  -0.086  0.7490 -0.6801 -0.0078
12968SOL    HW241859   4.870   5.996   0.017 -0.3616  0.0518 -0.3663
12969SOL     OW41860   4.081   8.074   4.715 -0.1255  0.2560 -0.1108
12969SOL    HW141861   4.144   8.068   4.787  0.0447 -0.5171 -0.3126
12969SOL    HW241862   4.000   8.038   4.751 -0.3204  0.8009 -0.0005
12970SOL     OW41863   7.950   5.210   6.483 -0.0065  0.5168 -0.0692
12970SOL    HW141864   7.964   5.119   6.509 -0.7379  0.2855 -0.4794
12970SOL    HW241865   7.953   5.208   6.387  1.8705  1.2371 -0.0793
12971SOL     OW41866   3.728   5.068   4.882 -0.1807 -0.0028 -0.4863
12971SOL    HW141867   3.808   5.041   4.926 -0.0274 -0.9329 -1.3020
12971SOL    HW241868   3.749   5.152   4.842  0.0503  0.2644  0.1917
12972SOL     OW41869   3.132   2.845   4.005  0.2555 -0.1273  0.3679
12972SOL    HW141870   3.071   2.912   4.036  0.1183 -0.1470  0.1401
12972SOL    HW241871   3.087   2.803   3.932  0.8004  0.2819 -0.2098
12973SOL     OW41872   5.551   8.126   8.004  0.6589  0.5871  0.2920
12973SOL    HW141873   5.519   8.132   8.094  2.8005  0.3366  1.1269
12973SOL    HW241874   5.578   8.035   7.994  0.7888  0.7041 -0.4893
12974SOL     OW41875   1.275   3.464   5.297  0.6524 -0.3580 -0.0404
12974SOL    HW141876   1.185   3.494   5.283  1.1813  1.0362 -0.6237
12974SOL    HW241877   1.312   3.528   5.357  1.1811 -1.1108  0.4561
12975SOL     OW41878   2.315   5.139   4.434 -0.6285 -0.5612 -0.3320
12975SOL    HW141879   2.357   5.087   4.503 -1.2429  1.4390  1.7041
12975SOL    HW241880   2.361   5.115   4.354  2.2832 -0.7722  1.2564
12976SOL     OW41881   1.300   3.625   3.735 -0.0982  0.1436  0.2654
12976SOL    HW141882   1.275   3.634   3.827  2.1809  0.3978  0.9404
12976SOL    HW241883   1.335   3.536   3.728  1.0476  0.5882  0.0343
12977SOL     OW41884   6.037   7.477   2.203 -0.1301 -0.0610 -0.0865
12977SOL    HW141885   6.107   7.519   2.152 -0.4403  0.7789  0.1640
12977SOL    HW241886   5.958   7.489   2.150  0.0265 -1.6952 -0.7421
12978SOL     OW41887   6.424   7.018   6.008 -0.0488 -0.0710 -0.3507
12978SOL    HW141888   6.351   7.049   5.955  0.2176  1.9783  0.4055
12978SOL    HW241889   6.384   6.982   6.087 -0.3041 -0.5381 -0.6881
12979SOL     OW41890   4.094   3.646   4.173  0.0265  0.8743  0.1395
12979SOL    HW141891   4.029   3.577   4.162  1.0133  0.1623 -1.4543
12979SOL    HW241892   4.137   3.625   4.256 -1.1115  0.8349  0.7463
12980SOL     OW41893   4.827   0.698   5.813  0.0422 -0.2601 -0.0300
12980SOL    HW141894   4.876   0.685   5.732  1.3733  2.1171  0.2902
12980SOL    HW241895   4.792   0.787   5.806 -0.0584 -0.1019  1.8544
12981SOL     OW41896   8.020   6.220   4.083  0.2822 -0.1081  0.4297
12981SOL    HW141897   8.038   6.136   4.127  0.8540  0.8571  2.1081
12981SOL    HW241898   7.928   6.216   4.060  0.3700 -1.3112  0.2120
12982SOL     OW41899   3.375   0.271   2.190 -0.4729 -0.6356  0.3794
12982SOL    HW141900   3.351   0.237   2.104 -0.5798 -0.0374  0.1700
12982SOL    HW241901   3.471   0.270   2.190 -0.4707 -0.5102  0.1986
12983SOL     OW41902   4.299   1.143   0.041  0.4572  0.0729  0.4030
12983SOL    HW141903   4.333   1.140   0.130  0.3471  0.1630  0.4471
12983SOL    HW241904   4.378   1.149  -0.014  0.5680 -0.7563  0.4495
12984SOL     OW41905   5.080   1.449   2.211 -0.3418  0.1950  0.6994
12984SOL    HW141906   5.099   1.391   2.138 -1.4467 -1.4331  1.6315
12984SOL    HW241907   5.057   1.533   2.170 -2.4927 -1.0963 -0.9569
12985SOL     OW41908   3.832   4.473   4.992  0.0359  0.3812 -0.2456
12985SOL    HW141909   3.905   4.525   5.024  0.6475 -1.4150  1.4532
12985SOL    HW241910   3.866   4.428   4.915  1.9809 -2.9502  2.2961
12986SOL     OW41911   2.662   2.243   6.169 -0.5079  0.9677 -0.6792
12986SOL    HW141912   2.622   2.302   6.105 -0.6886 -1.3388 -2.8341
12986SOL    HW241913   2.620   2.158   6.154  1.5967 -0.3596  0.4446
12987SOL     OW41914   4.523   4.611   3.584  0.1083  0.1451 -0.1988
12987SOL    HW141915   4.505   4.518   3.599 -0.3002  0.2900  0.2063
12987SOL    HW241916   4.606   4.627   3.627  0.8669 -0.3407 -1.4106
12988SOL     OW41917   0.346   6.737   6.577  0.1368 -0.1134  0.0161
12988SOL    HW141918   0.324   6.736   6.670 -0.4124 -2.3908 -0.0991
12988SOL    HW241919   0.336   6.829   6.551 -2.1859  0.1559  1.6307
12989SOL     OW41920   3.259   4.349   3.028  0.0170  0.5657 -0.2947
12989SOL    HW141921   3.240   4.383   2.941 -0.6246  0.1594 -0.3181
12989SOL    HW241922   3.228   4.259   3.026 -1.4731  1.0107  0.8451
12990SOL     OW41923   0.638   2.079   0.696 -0.8033 -0.7843 -0.2437
12990SOL    HW141924   0.590   2.002   0.729 -1.2825 -1.2287 -1.9032
12990SOL    HW241925   0.641   2.066   0.602  1.9023 -0.3238 -0.2738
12991SOL     OW41926   8.088   5.998   5.749  0.0614 -0.0560 -0.0663
12991SOL    HW141927   8.137   6.061   5.697  0.4460 -0.6597 -0.4499
12991SOL    HW241928   8.125   6.004   5.837 -0.5388  0.9127  0.1362
12992SOL     OW41929   2.794   4.477   3.767  0.2675 -0.3241  0.1633
12992SOL    HW141930   2.836   4.549   3.813 -0.0119  0.2197 -0.4342
12992SOL    HW241931   2.774   4.413   3.836 -2.1507  1.4101  1.1894
12993SOL     OW41932   2.924   2.587   2.227 -0.3593 -0.0399  0.0699
12993SOL    HW141933   3.018   2.598   2.208  0.1126 -1.7852  1.1167
12993SOL    HW241934   2.881   2.601   2.142  0.6749  2.0839 -0.1816
12994SOL     OW41935   3.913   7.853   2.182 -0.8044  0.5917  0.5197
12994SOL    HW141936   3.857   7.886   2.252 -1.3483  3.1072 -1.0014
12994SOL    HW241937   3.854   7.803   2.126 -0.6680 -0.1466  1.0154
12995SOL     OW41938   2.866   6.907   8.109  0.4353 -0.2447 -0.2952
12995SOL    HW141939   2.944   6.932   8.059  1.8032 -0.6883  1.4961
12995SOL    HW241940   2.820   6.845   8.053  3.3249 -2.8776 -0.0394
12996SOL     OW41941   3.097   4.081   2.525 -0.2664  0.3989  0.0928
12996SOL    HW141942   3.177   4.059   2.571 -1.6248  0.4728  2.6832
12996SOL    HW241943   3.038   4.007   2.541 -1.4784  1.3643  0.2530
12997SOL     OW41944   3.215   7.008   6.212  0.4261  0.5493  0.2082
12997SOL    HW141945   3.215   7.095   6.252 -1.0026  0.5498  0.2631
12997SOL    HW241946   3.308   6.983   6.209  0.7264  1.2657  1.9363
12998SOL     OW41947   7.863   3.415   6.048  0.6189 -0.5478  0.1515
12998SOL    HW141948   7.847   3.406   6.141 -0.6824 -2.2307 -0.1825
12998SOL    HW241949   7.930   3.349   6.028  0.8674 -0.2227 -0.1033
12999SOL     OW41950   6.606   4.350   5.385 -0.6077 -0.9256 -0.7462
12999SOL    HW141951   6.546   4.294   5.435 -0.8032  0.1003  0.2276
12999SOL    HW241952   6.631   4.418   5.448 -0.5912  0.2185 -1.9631
13000SOL     OW41953   0.535   0.543   1.680 -0.0152 -0.2613  0.1046
13000SOL    HW141954   0.601   0.572   1.617 -0.2866 -1.1853 -0.6171
13000SOL    HW241955   0.577   0.470   1.726 -0.5305 -0.8593 -0.3645
13001SOL     OW41956   5.053   5.965   2.880 -0.1916  0.0512 -0.1296
13001SOL    HW141957   5.085   5.888   2.833  1.2585 -0.7533  2.0213
13001SOL    HW241958   4.958   5.955   2.879 -0.1567 -0.5687 -1.7565
13002SOL     OW41959   6.441   6.208   5.435 -0.5536 -0.5115  0.7927
13002SOL    HW141960   6.520   6.158   5.451 -0.2631 -0.5655 -0.6368
13002SOL    HW241961   6.370   6.151   5.465 -0.0593 -0.2988  2.4445
13003SOL     OW41962   5.238   2.770   8.040 -0.0482 -0.5568  0.1507
13003SOL    HW141963   5.262   2.740   7.953 -2.0173  0.3289 -0.7693
13003SOL    HW241964   5.321   2.789   8.084  0.9725  0.7245 -2.1666
13004SOL     OW41965   2.509   7.300   5.842  0.2254 -0.5663  0.2476
13004SOL    HW141966   2.557   7.222   5.871  0.2736 -0.6922 -0.1540
13004SOL    HW241967   2.418   7.272   5.838 -0.1312  0.0888  2.4519
13005SOL     OW41968   1.225   2.142   5.083  0.5909 -0.0089 -0.0160
13005SOL    HW141969   1.305   2.184   5.116  0.1505 -0.0511  1.1493
13005SOL    HW241970   1.250   2.052   5.067  0.8650  0.0572  0.0293
13006SOL     OW41971   7.393   6.492   5.745  0.1881  0.7517 -0.2281
13006SOL    HW141972   7.346   6.518   5.824 -0.2341  0.3184 -0.3328
13006SOL    HW241973   7.325   6.460   5.685  0.6813 -0.7866 -0.0268
13007SOL     OW41974   4.630   1.983   7.498  0.1831 -0.3680  0.2973
13007SOL    HW141975   4.688   1.960   7.570 -0.9138  0.2370  1.4079
13007SOL    HW241976   4.662   2.068   7.468  0.0924 -0.1925  0.6877
13008SOL     OW41977   0.050   4.546   7.789 -0.1498 -0.2204  0.3969
13008SOL    HW141978  -0.035   4.523   7.752 -0.6917  1.2408  0.6695
13008SOL    HW241979   0.085   4.612   7.729  0.0958  0.2986  1.0932
13009SOL     OW41980   3.865   7.466   2.163  0.2423 -0.2993  0.3348
13009SOL    HW141981   3.901   7.532   2.104 -0.0463 -0.6071 -0.1919
13009SOL    HW241982   3.842   7.514   2.242  1.2509  0.0077  0.4554
13010SOL     OW41983   6.314   4.844   5.693  0.1193 -0.6100  0.4868
13010SOL    HW141984   6.243   4.865   5.632  0.2722  0.0595  0.5294
13010SOL    HW241985   6.394   4.854   5.641  0.2402 -0.2395  0.7407
13011SOL     OW41986   5.663   5.995   0.998 -0.3529 -0.2510  0.0225
13011SOL    HW141987   5.667   5.918   0.941 -0.4452 -0.2513  0.0153
13011SOL    HW241988   5.618   5.964   1.077  0.4809 -0.4574  0.4296
13012SOL     OW41989   7.671   2.748   6.546  0.5545  0.1597 -0.3842
13012SOL    HW141990   7.654   2.658   6.575 -0.7257  0.3977 -0.3060
13012SOL    HW241991   7.756   2.744   6.503  0.5042 -1.0980 -0.4084
13013SOL     OW41992   4.347   8.061   5.180 -0.7008 -0.0778 -0.6620
13013SOL    HW141993   4.312   8.060   5.269 -1.1237 -0.4033 -0.8242
13013SOL    HW241994   4.342   7.969   5.152 -1.5515  0.1710 -1.3881
13014SOL     OW41995   4.388   6.422   4.263  0.3844  0.1523  0.0321
13014SOL    HW141996   4.326   6.437   4.192  0.2142 -0.5212  0.0339
13014SOL    HW241997   4.354   6.345   4.309  0.5985  0.4665  0.7268
13015SOL     OW41998   5.865   4.141   4.192 -0.1806  0.1077 -0.0664
13015SOL    HW141999   5.903   4.159   4.106 -1.1164  1.1932 -0.2683
13015SOL    HW242000   5.928   4.081   4.233  0.9165  0.5665 -1.0042
13016SOL     OW42001   6.925   2.830   5.361  0.1509  0.6428  0.0407
13016SOL    HW142002   7.002   2.825   5.417  0.1404 -1.0107 -0.0659
13016SOL    HW242003   6.878   2.748   5.377 -0.5607  0.7549 -1.3664
13017SOL     OW42004   7.282   7.643   1.606 -0.1849  0.2523 -0.3302
13017SOL    HW142005   7.218   7.599   1.661  0.2984  0.4413  0.4040
13017SOL    HW242006   7.277   7.599   1.521 -2.2061  1.1104 -0.7017
13018SOL     OW42007   0.948   0.395   5.543  0.2771 -0.3920  0.3111
13018SOL    HW142008   0.923   0.323   5.601 -1.9750  1.0178  1.2097
13018SOL    HW242009   0.932   0.363   5.455 -0.7188 -1.0026  0.7018
13019SOL     OW42010   3.018   5.829   3.331 -0.3672 -0.2151  0.2073
13019SOL    HW142011   3.023   5.785   3.246 -1.5590 -0.3169  0.1736
13019SOL    HW242012   2.976   5.913   3.312  0.1360  0.1330  0.5764
13020SOL     OW42013   0.932   7.939   4.103  0.2284 -0.4103  0.1987
13020SOL    HW142014   0.849   7.900   4.129 -0.3020  0.4701 -0.1190
13020SOL    HW242015   0.971   7.875   4.043 -0.7527 -0.3471 -0.5371
13021SOL     OW42016   0.519   2.783   4.503 -0.1822 -0.0311 -0.5442
13021SOL    HW142017   0.481   2.739   4.580  0.1331  1.2681  0.3799
13021SOL    HW242018   0.444   2.811   4.452 -0.3964 -1.4027 -1.0439
13022SOL     OW42019   5.971   0.890   5.069  0.2224  0.4216 -0.1580
13022SOL    HW142020   5.962   0.796   5.056 -1.4273  0.4360  0.6617
13022SOL    HW242021   5.897   0.928   5.022  0.8354  1.3235 -0.4289
13023SOL     OW42022   5.030   7.846   4.374 -0.4456  0.3481  0.5007
13023SOL    HW142023   4.986   7.930   4.361  0.4021  0.7069 -0.1524
13023SOL    HW242024   5.037   7.837   4.469 -2.6419 -0.1204  0.6853
13024SOL     OW42025   5.825   6.402   5.494 -0.0863  0.2973  0.0364
13024SOL    HW142026   5.812   6.329   5.434 -1.0748  0.1616  0.4008
13024SOL    HW242027   5.749   6.458   5.481  0.1987  0.7840  0.4278
13025SOL     OW42028   0.082   7.460   6.338 -0.7973  0.5700  0.0804
13025SOL    HW142029   0.019   7.487   6.271 -0.0155  0.4355 -0.7363
13025SOL    HW242030   0.163   7.503   6.312 -0.5815  0.8428  1.1887
13026SOL     OW42031   1.960   7.054   8.045 -0.1286 -0.1881  0.3783
13026SOL    HW142032   1.895   7.002   8.093  0.7257 -0.7206  0.9932
13026SOL    HW242033   1.911   7.094   7.974 -0.7145 -2.3831 -0.5549
13027SOL     OW42034   6.724   2.034   1.842 -0.4589 -0.0935 -0.1923
13027SOL    HW142035   6.815   2.036   1.813 -0.1043 -0.4599  0.8344
13027SOL    HW242036   6.690   2.120   1.819  0.1193  0.0120 -0.6795
13028SOL     OW42037   3.145   2.505   3.002  0.2638 -0.7497  0.4846
13028SOL    HW142038   3.181   2.423   3.035 -0.5664 -0.6921  1.5983
13028SOL    HW242039   3.126   2.556   3.081 -1.1344 -0.3045 -0.1151
13029SOL     OW42040   6.084   7.978   2.218 -0.3080  0.1541 -0.3705
13029SOL    HW142041   6.074   7.924   2.140  1.0947 -0.5944 -0.0598
13029SOL    HW242042   6.049   7.924   2.289 -0.3460  0.2884 -0.2862
13030SOL     OW42043   7.958   0.668   8.028 -0.5128  0.2701 -0.3148
13030SOL    HW142044   7.921   0.602   8.087 -0.0399  0.8785  0.6754
13030SOL    HW242045   8.032   0.705   8.076 -1.3882  2.2667 -0.4007
13031SOL     OW42046   7.971   5.240   5.764  0.3053  0.0996 -0.6645
13031SOL    HW142047   8.038   5.230   5.831  0.1583  0.1864 -0.5022
13031SOL    HW242048   7.988   5.170   5.701  0.3907 -0.0341 -0.4919
13032SOL     OW42049   4.138   1.228   2.170  0.5814  0.6665 -0.4459
13032SOL    HW142050   4.126   1.308   2.220 -0.1555 -0.0848  0.6291
13032SOL    HW242051   4.232   1.213   2.169  0.5509 -0.4623  2.7175
13033SOL     OW42052   4.523   4.434   3.096  0.2678  0.1613 -0.2251
13033SOL    HW142053   4.565   4.348   3.095 -2.1199 -1.0658 -0.2621
13033SOL    HW242054   4.502   4.453   3.005 -4.1482 -1.9048  0.1124
13034SOL     OW42055   7.038   1.436   0.503 -0.1525 -0.6296  0.1582
13034SOL    HW142056   7.068   1.463   0.416 -0.0451 -0.1368  0.3455
13034SOL    HW242057   7.117   1.432   0.556 -0.5556  3.5188  1.4361
13035SOL     OW42058   5.863   1.616   5.181 -0.1210 -0.2562 -0.4442
13035SOL    HW142059   5.820   1.608   5.096 -2.0212 -0.2898  0.4594
13035SOL    HW242060   5.797   1.585   5.244  1.1866 -0.1343  1.0413
13036SOL     OW42061   4.719   5.561   2.044 -0.1565  0.2275  0.3309
13036SOL    HW142062   4.715   5.509   1.964  0.3696  0.1025  0.3812
13036SOL    HW242063   4.715   5.652   2.014  2.5584  0.2865 -0.0677
13037SOL     OW42064   5.969   0.640   7.428  0.1208 -0.3334 -0.1208
13037SOL    HW142065   6.005   0.553   7.412  0.5290 -0.1812 -0.0524
13037SOL    HW242066   5.952   0.675   7.341  2.0670  0.3815 -0.2613
13038SOL     OW42067   3.002   1.376   0.002 -0.6609 -0.7248 -0.5293
13038SOL    HW142068   3.089   1.337   0.003 -1.0724 -1.7040 -1.4090
13038SOL    HW242069   2.968   1.358  -0.086 -1.5370  0.1324 -0.3929
13039SOL     OW42070   7.081   0.357   5.666  0.5367 -0.2013  0.3402
13039SOL    HW142071   7.122   0.420   5.726  0.3834 -0.4067  0.6654
13039SOL    HW242072   7.107   0.386   5.579  0.8629  0.0337  0.5130
13040SOL     OW42073   4.178   5.443   4.459  0.5962 -0.6024  0.2296
13040SOL    HW142074   4.194   5.531   4.426  1.3820 -1.3588 -1.5584
13040SOL    HW242075   4.253   5.424   4.516 -0.1576  0.2747  1.5531
13041SOL     OW42076   3.743   1.072   6.275 -0.3821  0.3496  0.4220
13041SOL    HW142077   3.701   1.067   6.361 -0.1761 -1.2294  0.4447
13041SOL    HW242078   3.717   1.158   6.241  0.4663  1.5300  2.5326
13042SOL     OW42079   5.272   4.145   0.699 -0.8434 -0.7374  0.4515
13042SOL    HW142080   5.306   4.234   0.714 -0.6161 -0.7773  0.1751
13042SOL    HW242081   5.178   4.153   0.711 -0.9313 -0.2658 -0.4525
13043SOL     OW42082   5.806   2.556   4.791 -0.3416 -1.2028 -0.5326
13043SOL    HW142083   5.833   2.621   4.726  0.6255  2.5549  3.2153
13043SOL    HW242084   5.711   2.558   4.788 -0.3849  1.4087  0.2502
13044SOL     OW42085   3.838   6.487   3.587  0.3432 -0.2289 -0.3722
13044SOL    HW142086   3.901   6.416   3.588 -1.7166 -2.1461  0.5780
13044SOL    HW242087   3.753   6.445   3.601 -0.9919  2.3966  0.1382
13045SOL     OW42088   3.139   6.273   5.465  0.0721 -0.1467  0.4288
13045SOL    HW142089   3.168   6.181   5.465  1.7276  0.3399  1.3133
13045SOL    HW242090   3.160   6.304   5.553 -1.9368  0.6717  0.6633
13046SOL     OW42091   0.447   7.848   5.144 -0.0154 -0.3379 -0.1685
13046SOL    HW142092   0.464   7.755   5.159  1.7803 -0.1805 -0.9139
13046SOL    HW242093   0.352   7.857   5.147 -0.2137 -2.2043 -0.1246
13047SOL     OW42094   0.943   1.705   1.510  0.3050 -0.1185 -0.0646
13047SOL    HW142095   0.962   1.616   1.540 -0.5767  0.2926  1.9016
13047SOL    HW242096   0.905   1.748   1.587 -2.0643  1.0844 -1.7926
13048SOL     OW42097   1.754   1.312   6.776  0.5079  0.5165  0.0027
13048SOL    HW142098   1.672   1.361   6.776  0.5942  0.7001 -0.9771
13048SOL    HW242099   1.820   1.375   6.806  0.2909  0.3520  0.8441
13049SOL     OW42100   4.256   6.910   4.012  0.1932 -0.5117  0.8245
13049SOL    HW142101   4.253   7.006   4.010  0.4898 -0.5131 -0.4204
13049SOL    HW242102   4.260   6.888   4.105 -1.1871  0.6377  1.1858
13050SOL     OW42103   2.103   3.392   0.975 -0.4133 -0.1322 -0.0040
13050SOL    HW142104   2.154   3.416   0.897 -0.4958  1.5218  0.4164
13050SOL    HW242105   2.012   3.401   0.948 -0.4595 -0.5375  0.0075
13051SOL     OW42106   7.200   2.685   6.562 -0.0876  0.3698  0.6436
13051SOL    HW142107   7.111   2.657   6.583 -0.9179  1.4296 -1.2559
13051SOL    HW242108   7.227   2.628   6.490 -0.8085  2.5528 -1.4875
13052SOL     OW42109   0.833   1.257   3.601 -0.2575  0.3799  0.2156
13052SOL    HW142110   0.777   1.254   3.678 -0.6377  2.7860  0.1128
13052SOL    HW242111   0.780   1.220   3.531 -0.5856 -0.1323  0.7299
13053SOL     OW42112   1.503   7.753   5.297  0.1266 -0.5372 -0.6654
13053SOL    HW142113   1.514   7.658   5.288 -0.3633 -0.5983 -0.6474
13053SOL    HW242114   1.450   7.778   5.222 -2.3772 -0.7690  0.8976
13054SOL     OW42115   1.874   0.403   1.577 -0.0624 -0.3612 -0.0437
13054SOL    HW142116   1.795   0.352   1.559  0.4224 -1.2056  0.1565
13054SOL    HW242117   1.928   0.344   1.630  0.7560  0.1551 -0.3031
13055SOL     OW42118   3.818   0.313   2.774  0.7539  0.7468  0.0721
13055SOL    HW142119   3.826   0.228   2.816  0.7345  0.8075  0.1987
13055SOL    HW242120   3.809   0.375   2.846 -0.9825  0.6847 -0.0540
13056SOL     OW42121   2.413   1.472   1.833  0.4274 -0.0831 -0.3707
13056SOL    HW142122   2.395   1.557   1.873  1.4032 -0.1980  0.3291
13056SOL    HW242123   2.444   1.417   1.905  0.7892 -0.7321 -1.0098
13057SOL     OW42124   5.810   1.098   0.267 -0.6430 -0.3026  0.5731
13057SOL    HW142125   5.724   1.118   0.229 -0.2678  1.4818  0.5617
13057SOL    HW242126   5.865   1.171   0.240  1.1715 -1.8873 -0.2530
13058SOL     OW42127   7.674   4.657   7.036  0.1522  0.2418 -0.0433
13058SOL    HW142128   7.747   4.601   7.062  0.0243 -0.2392 -0.6888
13058SOL    HW242129   7.643   4.619   6.954 -1.3525 -0.0602  0.6357
13059SOL     OW42130   0.168   0.481   2.393  0.5287 -0.1361 -0.3348
13059SOL    HW142131   0.121   0.403   2.422  2.6191 -1.8383 -1.1753
13059SOL    HW242132   0.131   0.502   2.308 -0.0611 -0.1788 -0.0931
13060SOL     OW42133   3.986   6.575   2.116 -0.3000  0.2780 -0.3412
13060SOL    HW142134   3.899   6.581   2.156  0.0479  1.2217  0.3047
13060SOL    HW242135   4.043   6.547   2.187  0.0298  0.2705 -0.6088
13061SOL     OW42136   7.190   6.937   7.268 -0.1444 -0.0831  0.1419
13061SOL    HW142137   7.156   6.937   7.178  1.5638 -1.0943 -0.5666
13061SOL    HW242138   7.226   6.849   7.279  1.0749  0.5260  1.2579
13062SOL     OW42139   0.191   3.918   1.971 -0.2646  0.1648  0.1373
13062SOL    HW142140   0.220   3.885   2.056  0.9733 -0.2271 -0.4188
13062SOL    HW242141   0.137   3.848   1.935 -0.9584  0.4123  0.6685
13063SOL     OW42142   1.494   5.703   4.203 -0.4114  0.0518 -0.0901
13063SOL    HW142143   1.551   5.678   4.131  0.6584  0.7612  0.4741
13063SOL    HW242144   1.539   5.777   4.244 -0.8345 -0.5248  1.4855
13064SOL     OW42145   6.165   2.704   5.093 -0.1422 -0.1367 -0.1291
13064SOL    HW142146   6.169   2.666   5.005  0.4922  2.2778 -1.2138
13064SOL    HW242147   6.243   2.671   5.137  0.5334  0.0889 -1.1257
13065SOL     OW42148   0.506   5.027   1.170 -0.2134  0.5400 -0.0510
13065SOL    HW142149   0.519   4.964   1.241  2.5608 -1.0336 -1.7873
13065SOL    HW242150   0.588   5.075   1.165 -1.2786  2.3837 -0.6169
13066SOL     OW42151   7.513   2.166   2.921  0.2357 -0.2341 -0.1100
13066SOL    HW142152   7.594   2.139   2.964  0.0630 -1.4281 -0.5000
13066SOL    HW242153   7.450   2.097   2.942 -0.4713  0.3017 -0.4253
13067SOL     OW42154   7.901   2.312   6.461 -0.2464 -0.4273 -0.0708
13067SOL    HW142155   7.956   2.369   6.407 -0.2106 -0.1879  0.2188
13067SOL    HW242156   7.963   2.259   6.511 -0.2733 -1.2849 -0.9233
13068SOL     OW42157   2.918   7.136   1.336 -0.4778 -0.3736  0.3125
13068SOL    HW142158   2.927   7.044   1.310 -0.6936 -0.3330  0.0924
13068SOL    HW242159   3.003   7.158   1.375  0.6077  0.1338 -2.1677
13069SOL     OW42160   4.834   1.605   2.569 -0.0526  0.2415  0.1201
13069SOL    HW142161   4.914   1.564   2.537  1.2150  2.6611 -0.0557
13069SOL    HW242162   4.864   1.685   2.612 -2.2624  0.3516  1.6048
13070SOL     OW42163   1.477   7.629   0.622  0.3452  0.0611 -0.1855
13070SOL    HW142164   1.477   7.630   0.718 -0.2072  1.5294 -0.1780
13070SOL    HW242165   1.559   7.673   0.598  1.0289 -1.2997 -0.4081
13071SOL     OW42166   4.480   0.460   3.211  0.3455 -0.4160 -0.2552
13071SOL    HW142167   4.515   0.548   3.222 -2.0401  0.7285 -1.1625
13071SOL    HW242168   4.555   0.402   3.225  2.4731  1.8006 -1.7314
13072SOL     OW42169   5.077   3.360   5.917 -0.3789 -0.9032  0.5675
13072SOL    HW142170   5.097   3.296   5.848  0.5022 -0.6323  0.5583
13072SOL    HW242171   5.124   3.439   5.891 -0.9054 -0.4635  0.9324
13073SOL     OW42172   6.751   3.389   1.769  0.4197  0.1068 -0.6836
13073SOL    HW142173   6.693   3.330   1.720 -0.2173  1.9558 -2.2660
13073SOL    HW242174   6.814   3.420   1.704 -2.7682  5.7044 -1.6952
13074SOL     OW42175   1.496   2.475   0.658  0.2911 -0.3086  0.5265
13074SOL    HW142176   1.413   2.432   0.675 -0.2978  0.6361  0.1427
13074SOL    HW242177   1.563   2.409   0.678 -0.5868 -2.2645 -2.4324
13075SOL     OW42178   2.206   1.340   2.851  0.0037  0.2125 -0.5619
13075SOL    HW142179   2.217   1.294   2.934 -1.2040 -0.0581 -0.5313
13075SOL    HW242180   2.291   1.332   2.807  0.2052 -0.9532 -0.0014
13076SOL     OW42181   2.837   2.678   6.218 -0.0685 -0.1377 -0.6436
13076SOL    HW142182   2.849   2.728   6.138  0.5084 -0.4826 -0.7807
13076SOL    HW242183   2.743   2.661   6.223  0.0028 -0.9957 -1.7860
13077SOL     OW42184   0.217   0.095   7.687 -0.0697  0.2967 -0.6170
13077SOL    HW142185   0.251   0.076   7.600 -0.3842  1.8413 -1.1042
13077SOL    HW242186   0.136   0.143   7.671 -0.4428  0.0698  0.5312
13078SOL     OW42187   5.488   1.011   7.768  0.9459  0.3862  0.3684
13078SOL    HW142188   5.435   0.974   7.697  1.5802 -0.4986  0.3416
13078SOL    HW242189   5.452   0.974   7.848  0.4452  1.1241  0.4973
13079SOL     OW42190   2.803   3.524   5.800  0.0858 -0.6930  0.2329
13079SOL    HW142191   2.770   3.475   5.724  0.0824 -2.1530  1.1411
13079SOL    HW242192   2.897   3.529   5.786 -0.0629  0.1814 -0.5029
13080SOL     OW42193   2.780   1.808   1.314 -0.2876  0.0632  0.0784
13080SOL    HW142194   2.732   1.751   1.254 -0.5254  0.5978 -0.2572
13080SOL    HW242195   2.834   1.862   1.256  0.5710 -0.3970  0.4423
13081SOL     OW42196   6.364   0.366   2.357  0.4296  0.3534  0.4191
13081SOL    HW142197   6.428   0.302   2.388 -1.2386 -1.1489  0.8698
13081SOL    HW242198   6.348   0.342   2.266 -0.6002 -0.2261  0.7450
13082SOL     OW42199   1.588   4.564   3.220 -0.2957  0.1389  0.2202
13082SOL    HW142200   1.658   4.610   3.267  0.1817  0.2780 -0.5985
13082SOL    HW242201   1.536   4.633   3.179  0.1972 -0.0121 -0.6995
13083SOL     OW42202   7.487   7.109   4.511 -0.2905 -0.0449  0.4321
13083SOL    HW142203   7.461   7.149   4.428  0.3207 -0.4033  0.0580
13083SOL    HW242204   7.518   7.182   4.564 -0.2303  0.1241  0.1668
13084SOL     OW42205   5.721   5.220   1.988 -0.1491  0.0521 -0.0133
13084SOL    HW142206   5.648   5.161   1.967  0.8369 -0.7771 -1.2852
13084SOL    HW242207   5.784   5.164   2.033  0.1151  0.5324  0.2170
13085SOL     OW42208   2.228   7.798   1.104  0.2685 -0.0145 -0.0745
13085SOL    HW142209   2.144   7.799   1.151 -0.2438 -0.2084 -0.9772
13085SOL    HW242210   2.291   7.769   1.170 -0.3348  0.3163  0.6683
13086SOL     OW42211   8.030   1.331   6.560  0.3479 -0.4861  0.9813
13086SOL    HW142212   8.057   1.370   6.477  1.8773 -1.7507  0.8398
13086SOL    HW242213   7.984   1.402   6.606  1.0227  0.7598 -0.2012
13087SOL     OW42214   3.445   5.480   6.686  0.0530 -0.3339  0.0193
13087SOL    HW142215   3.510   5.547   6.664 -1.8418  1.1749 -1.3755
13087SOL    HW242216   3.416   5.503   6.774  0.7267 -0.4326  0.2690
13088SOL     OW42217   2.263   1.101   0.606 -0.0183  0.4838  0.2052
13088SOL    HW142218   2.315   1.155   0.665 -0.1825  2.4425 -1.3213
13088SOL    HW242219   2.206   1.164   0.561 -1.5358 -1.2220 -0.3644
13089SOL     OW42220   1.380   2.268   5.727  0.2265 -0.6144  0.7518
13089SOL    HW142221   1.359   2.178   5.702  1.1061 -1.2686  2.2225
13089SOL    HW242222   1.461   2.261   5.777 -0.5064  0.7856  2.2488
13090SOL     OW42223   2.110   0.882   7.837  0.0518  0.8349  0.2484
13090SOL    HW142224   2.041   0.867   7.772  0.2532  1.8673 -0.2262
13090SOL    HW242225   2.094   0.817   7.904 -1.0164  0.6518 -0.1632
13091SOL     OW42226   4.353   5.558   1.120 -0.5651  0.4011  0.1669
13091SOL    HW142227   4.444   5.563   1.091  0.3008 -1.2999  2.3502
13091SOL    HW242228   4.305   5.527   1.043  0.8613  0.3254 -0.7256
13092SOL     OW42229   1.149   7.032   4.134 -0.1069 -0.2615 -0.1867
13092SOL    HW142230   1.231   6.982   4.140 -0.8163 -1.3311  1.2534
13092SOL    HW242231   1.092   6.992   4.200 -2.6280 -1.0683 -2.6614
13093SOL     OW42232   6.377   7.127   0.054  0.1779  0.2421  0.3608
13093SOL    HW142233   6.290   7.086   0.062 -1.2238  2.8295 -0.4522
13093SOL    HW242234   6.420   7.105   0.137 -0.7484 -2.0689  0.3324
13094SOL     OW42235   7.718   6.103   2.548 -0.1797 -0.3944  0.0109
13094SOL    HW142236   7.626   6.077   2.545 -0.3104  0.1108 -0.8440
13094SOL    HW242237   7.724   6.177   2.487  0.5249  0.4360  1.0349
13095SOL     OW42238   0.049   5.786   3.207 -0.2003  0.1838 -0.4042
13095SOL    HW142239   0.138   5.816   3.227  0.7537 -3.1395  1.0241
13095SOL    HW242240   0.050   5.764   3.114  1.3147 -2.0491  0.0680
13096SOL     OW42241   2.445   1.212   5.497  0.1663  0.3408 -0.1560
13096SOL    HW142242   2.413   1.150   5.432 -0.5763 -1.7739  2.0761
13096SOL    HW242243   2.388   1.289   5.487  1.1840  0.8162 -3.0575
13097SOL     OW42244   8.057   0.890   4.839  0.0885 -0.1314 -0.3006
13097SOL    HW142245   8.100   0.975   4.841  1.9630 -1.0207  1.2930
13097SOL    HW242246   7.970   0.907   4.804  0.3684  2.4306  0.0970
13098SOL     OW42247   3.149   2.533   1.928 -0.1477  0.0568  0.3157
13098SOL    HW142248   3.240   2.510   1.947  0.0722  1.1123  0.6354
13098SOL    HW242249   3.144   2.626   1.950 -0.9666  0.3264 -0.9558
13099SOL     OW42250   5.097   5.260   0.378 -0.0313 -0.3896  0.3774
13099SOL    HW142251   5.119   5.327   0.314 -1.7602  0.5074  0.6379
13099SOL    HW242252   5.131   5.293   0.461  0.1773 -0.4186  0.3025
13100SOL     OW42253   6.621   4.128   4.015 -0.0293  0.4008 -0.4250
13100SOL    HW142254   6.703   4.085   4.042 -0.0057  0.0395 -1.0639
13100SOL    HW242255   6.553   4.067   4.043 -0.1192  0.9389  0.5698
13101SOL     OW42256   2.556   2.177   0.400  0.3540 -0.4546  0.2517
13101SOL    HW142257   2.587   2.258   0.359  0.4145 -0.9545 -0.7340
13101SOL    HW242258   2.635   2.124   0.409  0.1520 -0.8197 -0.1009
13102SOL     OW42259   1.422   6.337   7.134 -0.2693 -0.2550  0.4279
13102SOL    HW142260   1.472   6.391   7.195  1.1211 -2.1940  1.1010
13102SOL    HW242261   1.421   6.387   7.052  1.7605  0.3891  0.7474
13103SOL     OW42262   1.740   0.988   4.986 -0.2236  0.2461 -1.2350
13103SOL    HW142263   1.769   0.987   4.895  0.3323 -1.8498 -1.1049
13103SOL    HW242264   1.750   0.897   5.014 -0.9624  0.7355  0.7430
13104SOL     OW42265   4.881   2.953   6.921 -0.0887 -0.0073 -0.0000
13104SOL    HW142266   4.856   2.966   6.829 -1.8652  1.7623  0.6480
13104SOL    HW242267   4.808   2.903   6.958  0.7970 -1.0395  0.3913
13105SOL     OW42268   2.883   3.731   4.876 -0.2999  0.0255  0.2139
13105SOL    HW142269   2.800   3.758   4.838 -1.1140 -0.5720  1.4708
13105SOL    HW242270   2.938   3.809   4.872 -0.4191  0.0626 -1.8618
13106SOL     OW42271   5.011   5.923   2.570  0.6424  0.0078  0.6712
13106SOL    HW142272   4.931   5.971   2.594 -0.2142 -0.3680 -1.2042
13106SOL    HW242273   4.979   5.840   2.536  1.7458  0.2443 -1.0572
13107SOL     OW42274   5.422   2.044   0.990  0.2599 -0.1388 -0.0515
13107SOL    HW142275   5.507   2.017   0.954  0.6435  0.5953  0.2991
13107SOL    HW242276   5.371   2.071   0.913  0.4210 -0.3494 -0.2345
13108SOL     OW42277   5.206   0.667   4.949  0.9592  0.1732 -0.0106
13108SOL    HW142278   5.152   0.730   4.904 -0.3784  1.7987  3.5062
13108SOL    HW242279   5.287   0.714   4.969  2.0899 -0.9458 -1.7157
13109SOL     OW42280   2.842   1.849   7.114  0.2602  0.0246 -0.6396
13109SOL    HW142281   2.937   1.836   7.122  0.2004  0.7912  2.4001
13109SOL    HW242282   2.807   1.761   7.098  1.4261 -0.2862 -1.6948
13110SOL     OW42283   7.186   2.772   4.293  0.1095 -0.4270  0.3777
13110SOL    HW142284   7.119   2.776   4.361  0.1750 -0.0328  0.4216
13110SOL    HW242285   7.138   2.785   4.211  0.0505 -0.7569  0.3582
13111SOL     OW42286   4.879   7.729   1.309 -0.1826 -0.2808  0.1051
13111SOL    HW142287   4.895   7.713   1.402  1.2675  0.0144 -0.0707
13111SOL    HW242288   4.818   7.660   1.283  0.1113 -0.9266  1.0737
13112SOL     OW42289   7.917   5.672   3.175 -0.3984  0.0842  0.5877
13112SOL    HW142290   7.881   5.756   3.147 -0.4393  0.0156  0.4380
13112SOL    HW242291   7.999   5.696   3.219  1.2715  0.0229 -2.2061
13113SOL     OW42292   5.872   3.510   0.293 -0.2295  0.4481  0.1147
13113SOL    HW142293   5.845   3.442   0.355 -1.1584 -0.5224 -1.2873
13113SOL    HW242294   5.959   3.484   0.264 -0.1678  0.4038  0.3407
13114SOL     OW42295   2.092   2.270   7.530 -0.0066  0.6260  0.1951
13114SOL    HW142296   2.178   2.313   7.525 -0.0248  0.7479  0.8386
13114SOL    HW242297   2.029   2.342   7.522 -0.0578  0.4959 -0.6427
13115SOL     OW42298   6.710   4.205   0.892  0.0732 -0.6546 -0.4543
13115SOL    HW142299   6.748   4.121   0.866  1.4873  0.3047 -1.6264
13115SOL    HW242300   6.739   4.218   0.983  3.9105  0.6572 -1.6752
13116SOL     OW42301   6.013   5.726   5.525 -0.0083  0.1540  0.7470
13116SOL    HW142302   5.999   5.819   5.542  0.6490  0.2601  0.7331
13116SOL    HW242303   5.927   5.686   5.537 -0.1930  0.6903  1.2383
13117SOL     OW42304   3.765   1.329   7.004  0.1756 -0.1679  0.1593
13117SOL    HW142305   3.810   1.266   6.949  2.7786  0.4792  1.3984
13117SOL    HW242306   3.829   1.353   7.071 -2.0769  0.7786  2.1210
13118SOL     OW42307   1.353   6.607   4.812  0.3931  0.7134 -0.1207
13118SOL    HW142308   1.297   6.670   4.767 -0.2340 -0.9395 -1.8139
13118SOL    HW242309   1.318   6.602   4.901 -1.6523  0.3804 -0.8836
13119SOL     OW42310   0.471   6.951   3.215 -0.1903 -0.3698 -0.2381
13119SOL    HW142311   0.518   7.026   3.251  0.7610  0.3935 -2.8781
13119SOL    HW242312   0.538   6.886   3.199 -1.0529 -2.0489  2.3471
13120SOL     OW42313   5.898   6.433   6.316 -0.0362 -0.2735  0.6766
13120SOL    HW142314   5.837   6.508   6.314  1.4164  0.9608  0.8933
13120SOL    HW242315   5.900   6.406   6.408 -0.5121 -0.5527  0.6091
13121SOL     OW42316   4.028   4.367   2.367 -0.1214  0.3729 -0.2653
13121SOL    HW142317   3.946   4.379   2.414 -0.2815 -0.6010 -0.2669
13121SOL    HW242318   4.094   4.360   2.436 -0.6668 -3.5978  0.0828
13122SOL     OW42319   7.477   2.941   7.231 -0.0547 -0.4000 -0.4513
13122SOL    HW142320   7.448   2.875   7.168 -1.3589  0.3389 -0.6471
13122SOL    HW242321   7.397   2.971   7.274  0.3258  1.9883 -1.2776
13123SOL     OW42322   7.979   6.347   4.741  0.1765  0.3718  0.1934
13123SOL    HW142323   8.019   6.423   4.699 -0.6133  0.6100 -0.1470
13123SOL    HW242324   8.008   6.352   4.832 -2.4679  2.9979  1.0502
13124SOL     OW42325   1.530   5.386   2.987 -0.3259 -0.8208 -0.6470
13124SOL    HW142326   1.582   5.461   3.017 -0.4655 -0.6482 -0.8331
13124SOL    HW242327   1.552   5.316   3.048 -0.0188 -0.6935 -0.6108
13125SOL     OW42328   3.781   2.358   1.945  0.1419 -0.6824  0.2327
13125SOL    HW142329   3.761   2.267   1.923  1.2298 -1.3070  1.6589
13125SOL    HW242330   3.835   2.353   2.024  1.7258  1.1108 -0.6352
13126SOL     OW42331   6.807   1.477   0.628  0.3405  0.2255 -0.5171
13126SOL    HW142332   6.741   1.507   0.566 -0.1248 -0.6589 -0.4623
13126SOL    HW242333   6.885   1.461   0.574  0.3401  0.7178 -0.6669
13127SOL     OW42334   6.972   2.306   6.287 -0.1702 -0.1323 -0.3797
13127SOL    HW142335   7.013   2.383   6.248  1.4155  0.5701  2.3902
13127SOL    HW242336   7.027   2.233   6.261  1.3545  0.4406  1.0538
13128SOL     OW42337   7.340   7.377   4.336  0.3366  0.0175 -0.0415
13128SOL    HW142338   7.403   7.417   4.396 -0.4859 -0.9098  1.5044
13128SOL    HW242339   7.254   7.398   4.372 -0.1810 -0.8273 -0.7236
13129SOL     OW42340   6.213   0.796   1.769  0.4336 -0.7672  1.0050
13129SOL    HW142341   6.252   0.710   1.786  1.1577 -0.3960  1.2623
13129SOL    HW242342   6.197   0.833   1.855  0.7517 -0.3691  0.8951
13130SOL     OW42343   2.519   7.927   6.741 -0.3062  0.0611  0.0667
13130SOL    HW142344   2.487   7.853   6.793 -1.5548  1.0177  0.7272
13130SOL    HW242345   2.594   7.960   6.790  0.2079 -0.7127 -0.1901
13131SOL     OW42346   1.317   4.287   3.281  0.0080  0.2642  0.1380
13131SOL    HW142347   1.299   4.229   3.355 -1.1803 -0.6957 -0.8846
13131SOL    HW242348   1.410   4.275   3.263  0.0298 -0.4313  0.6875
13132SOL     OW42349   2.714   2.308   1.101 -0.1833 -0.5836  0.6038
13132SOL    HW142350   2.779   2.297   1.170 -0.5267 -2.3196  0.6953
13132SOL    HW242351   2.630   2.290   1.144 -0.3956 -1.7156 -0.2262
13133SOL     OW42352   1.854   6.580   2.610 -0.2342  0.3682  0.2484
13133SOL    HW142353   1.855   6.495   2.566 -1.4246 -0.5449  1.8557
13133SOL    HW242354   1.884   6.560   2.699 -1.3192  1.4485  0.8878
13134SOL     OW42355   5.517   1.279   3.147 -0.4672 -0.6146  0.3022
13134SOL    HW142356   5.476   1.233   3.073 -0.6590  0.3608 -0.2104
13134SOL    HW242357   5.486   1.369   3.140  0.2344 -0.2975  1.0521
13135SOL     OW42358   1.878   6.412   3.310  0.3291  1.0074 -0.2261
13135SOL    HW142359   1.810   6.475   3.334  0.5026  1.2588 -0.3890
13135SOL    HW242360   1.885   6.354   3.386  0.9233  1.8350  0.3645
13136SOL     OW42361   6.749   1.838   6.672 -0.2744  0.3589  0.2226
13136SOL    HW142362   6.722   1.845   6.764  0.9131 -0.4191  0.6429
13136SOL    HW242363   6.745   1.745   6.653  1.3487  0.2978  0.0797
13137SOL     OW42364   1.090   2.762   5.572  0.2168 -0.2294  0.5368
13137SOL    HW142365   1.117   2.679   5.531 -0.5557 -0.7799  1.1144
13137SOL    HW242366   1.085   2.741   5.666 -0.9402  0.2015  0.5818
13138SOL     OW42367   0.461   1.244   5.468  0.2168 -0.1700  0.4356
13138SOL    HW142368   0.496   1.159   5.495  1.0222 -1.2491 -3.3988
13138SOL    HW242369   0.537   1.302   5.466 -0.0677  0.2741  1.5524
13139SOL     OW42370   5.647   2.130   1.374  0.2275 -0.3550 -0.0948
13139SOL    HW142371   5.691   2.180   1.442  2.2766 -0.4823 -1.2418
13139SOL    HW242372   5.554   2.139   1.393  0.6619  1.4836  1.3866
13140SOL     OW42373   3.529   2.519   3.193 -0.4761 -0.1228  0.9606
13140SOL    HW142374   3.507   2.536   3.101 -1.4605  0.0575  1.2184
13140SOL    HW242375   3.625   2.523   3.196 -0.4339 -0.1143 -0.0514
13141SOL     OW42376   6.846   7.032   1.618  0.2550  0.3558  0.7547
13141SOL    HW142377   6.849   7.098   1.688 -0.1217  0.5073  0.6282
13141SOL    HW242378   6.760   6.991   1.628 -0.2892  1.1924 -0.3680
13142SOL     OW42379   6.501   7.361   4.374  0.3176 -0.5050 -0.0908
13142SOL    HW142380   6.461   7.447   4.360  0.0491 -0.7315 -0.7322
13142SOL    HW242381   6.427   7.301   4.377  0.3208 -0.5085  2.2875
13143SOL     OW42382   0.353   0.798   4.415  0.1706  0.0482 -0.8856
13143SOL    HW142383   0.340   0.816   4.509 -0.6627 -1.9198 -0.5715
13143SOL    HW242384   0.417   0.863   4.387  1.5863 -0.2444  1.3988
13144SOL     OW42385   6.133   3.685   4.649  0.3453  0.3871 -0.4453
13144SOL    HW142386   6.154   3.636   4.729  0.6639  0.5807 -0.4062
13144SOL    HW242387   6.217   3.720   4.620  0.0036  1.6135 -0.0041
13145SOL     OW42388   6.436   3.916   4.281  0.2140  0.0764  0.0324
13145SOL    HW142389   6.495   3.926   4.356  1.2425 -4.4833  0.1691
13145SOL    HW242390   6.375   3.847   4.307  0.8199 -1.9547 -3.2898
13146SOL     OW42391   2.028   0.559   2.513  1.0694  0.2179 -0.2971
13146SOL    HW142392   2.000   0.637   2.466  0.0753  0.1327  0.1299
13146SOL    HW242393   2.054   0.591   2.599 -1.9548 -0.1782  0.8806
13147SOL     OW42394   6.427   7.677   3.301 -0.0264  0.3270  0.1418
13147SOL    HW142395   6.371   7.672   3.378 -0.2669  0.2866 -0.0325
13147SOL    HW242396   6.367   7.698   3.229  0.0839 -0.3261 -0.1500
13148SOL     OW42397   5.562   1.567   0.031 -0.2705  0.2911  0.1336
13148SOL    HW142398   5.561   1.473   0.012  0.7081  0.0125  1.3241
13148SOL    HW242399   5.611   1.606  -0.041 -0.0122 -0.2202  0.0273
13149SOL     OW42400   4.293   0.010   2.242  0.4751 -0.3498  0.2200
13149SOL    HW142401   4.240  -0.064   2.271 -1.0382  1.5386  2.7676
13149SOL    HW242402   4.374   0.004   2.292 -0.1000  0.2107  1.2776
13150SOL     OW42403   0.732   1.405   2.041  0.2930 -0.3327  0.5097
13150SOL    HW142404   0.786   1.453   2.104  0.3778 -0.3998  0.4899
13150SOL    HW242405   0.775   1.420   1.957  0.5944 -0.8221  0.5659
13151SOL     OW42406   4.904   0.371   2.293  0.0616  0.3243 -0.3841
13151SOL    HW142407   4.833   0.417   2.337  0.7082  1.5644 -0.5832
13151SOL    HW242408   4.891   0.392   2.200  0.5475  0.3663 -0.4423
13152SOL     OW42409   0.431   7.664   0.352 -0.0131 -0.1018  0.5959
13152SOL    HW142410   0.359   7.616   0.394 -1.5508  1.0147 -0.6545
13152SOL    HW242411   0.449   7.737   0.412 -0.6190  0.1849  0.4332
13153SOL     OW42412   3.171   7.958   6.230  0.1547  0.4594 -0.2334
13153SOL    HW142413   3.260   7.993   6.228  0.3280  0.0285 -2.6788
13153SOL    HW242414   3.181   7.870   6.265  1.1114 -0.4658 -2.6089
13154SOL     OW42415   2.207   6.380   3.567 -0.2647  0.3568  0.0118
13154SOL    HW142416   2.115   6.361   3.548 -0.4098  0.5286  0.5285
13154SOL    HW242417   2.242   6.414   3.484 -0.2633 -1.1286 -0.6362
13155SOL     OW42418   1.753   6.732   3.396 -0.1454 -0.2491  0.3416
13155SOL    HW142419   1.836   6.718   3.350  1.2711  0.2520  2.5282
13155SOL    HW242420   1.689   6.680   3.349  1.0517  0.5715 -2.3831
13156SOL     OW42421   7.961   2.562   6.724  0.1453  0.1103  0.0743
13156SOL    HW142422   7.879   2.554   6.674  0.6474 -2.3126 -0.4814
13156SOL    HW242423   7.981   2.656   6.722 -1.6143  0.5150 -1.3946
13157SOL     OW42424   2.797   6.677   4.759  0.5054 -0.3642  0.2650
13157SOL    HW142425   2.805   6.690   4.665 -1.4456 -1.0573 -0.0376
13157SOL    HW242426   2.881   6.706   4.795  0.8338  1.0566 -1.5496
13158SOL     OW42427   5.310   1.992   1.236  0.0420  0.5353 -0.0593
13158SOL    HW142428   5.343   2.008   1.148 -0.9884  1.2826 -0.3371
13158SOL    HW242429   5.363   2.047   1.293  1.6638 -1.0052  0.0122
13159SOL     OW42430   0.377   1.922   1.627  0.6307 -0.3714 -0.2153
13159SOL    HW142431   0.442   1.876   1.574  0.0028 -0.4793 -0.9197
13159SOL    HW242432   0.394   1.894   1.717  0.7866 -1.3405 -0.5352
13160SOL     OW42433   3.185   7.234   1.289 -0.4636  0.0037 -0.3860
13160SOL    HW142434   3.278   7.237   1.311 -0.1591 -2.8205 -0.8270
13160SOL    HW242435   3.182   7.196   1.201 -2.0376 -0.7362 -0.0570
13161SOL     OW42436   0.546   2.001   4.699  0.1019  0.7998 -0.4293
13161SOL    HW142437   0.574   2.033   4.785 -0.2884  1.3010 -0.4804
13161SOL    HW242438   0.617   1.944   4.670 -0.8086 -1.3906  1.3160
13162SOL     OW42439   1.045   3.968   4.969 -0.0567  0.2470 -0.1284
13162SOL    HW142440   1.021   4.025   5.042 -1.3211  2.8571 -2.4084
13162SOL    HW242441   0.967   3.916   4.952 -0.9701  2.0075 -1.6094
13163SOL     OW42442   0.879   0.448   3.798 -0.1413  0.3662  0.0275
13163SOL    HW142443   0.900   0.380   3.862 -0.8644  0.9986  0.9762
13163SOL    HW242444   0.809   0.410   3.745 -0.2291  0.2001  0.2603
13164SOL     OW42445   5.121   5.827   2.223  0.0137  0.0045  0.5012
13164SOL    HW142446   5.029   5.852   2.229  0.4814  1.7393  1.0695
13164SOL    HW242447   5.169   5.909   2.236  1.6323 -0.5461 -1.3826
13165SOL     OW42448   5.774   1.092   2.251 -1.0162  0.3523  0.3118
13165SOL    HW142449   5.718   1.041   2.309 -0.7861  0.0964  0.3129
13165SOL    HW242450   5.777   1.040   2.170 -0.5247  0.2052  0.4239
13166SOL     OW42451   2.625   3.508   6.370 -0.0993 -0.2575  0.0603
13166SOL    HW142452   2.647   3.489   6.461 -0.6557  0.2152  0.3042
13166SOL    HW242453   2.691   3.462   6.319  1.2111  0.7954  0.7438
13167SOL     OW42454   6.653   3.653   5.805  0.4965 -0.2374  0.2355
13167SOL    HW142455   6.732   3.615   5.767  1.3095  1.9801 -0.4560
13167SOL    HW242456   6.670   3.657   5.899  1.1442  0.0693  0.1084
13168SOL     OW42457   3.373   1.878   7.053 -0.5802  0.3695  0.3909
13168SOL    HW142458   3.427   1.807   7.018 -0.0182  1.1795 -0.4492
13168SOL    HW242459   3.402   1.888   7.143  0.1754  0.3133  0.1609
13169SOL     OW42460   4.680   1.232   1.977 -0.4479  0.2769 -0.7320
13169SOL    HW142461   4.601   1.233   2.032  0.3401  2.8278  0.5210
13169SOL    HW242462   4.731   1.159   2.011 -1.2174  0.0756  0.0447
13170SOL     OW42463   0.966   7.066   5.453  0.8704 -0.4184  0.1090
13170SOL    HW142464   0.910   6.996   5.486  1.9498 -1.0946  0.5895
13170SOL    HW242465   0.976   7.048   5.360 -1.3961  0.9336 -0.4578
13171SOL     OW42466   8.030   0.932   0.800 -0.0835 -0.0484 -0.0677
13171SOL    HW142467   7.936   0.950   0.803  0.0591  1.3340 -2.1187
13171SOL    HW242468   8.043   0.862   0.865 -2.2837  0.6299  1.2104
13172SOL     OW42469   5.628   6.637   2.286 -0.2220  0.7486 -0.0907
13172SOL    HW142470   5.691   6.629   2.214  1.8559 -1.3545  1.8013
13172SOL    HW242471   5.654   6.716   2.332  1.5939 -0.4678  1.0770
13173SOL     OW42472   6.011   1.129   2.437  0.2935  0.3149  0.0717
13173SOL    HW142473   5.959   1.089   2.368  0.6673  1.5258 -0.9556
13173SOL    HW242474   6.102   1.109   2.414  0.3948  0.2085  0.5520
13174SOL     OW42475   1.339   7.293   1.616  0.5237 -0.4706 -1.0013
13174SOL    HW142476   1.398   7.288   1.690 -1.4216  2.0992  0.9222
13174SOL    HW242477   1.388   7.339   1.548  1.3390 -0.0827 -0.1578
13175SOL     OW42478   1.046   3.751   3.919 -0.4993  0.0202 -0.3094
13175SOL    HW142479   1.036   3.846   3.928 -2.2910 -0.2524  0.9381
13175SOL    HW242480   0.995   3.729   3.841  0.3165  0.1285 -0.8822
13176SOL     OW42481   5.337   1.484   1.599  0.2605 -0.3138 -0.0971
13176SOL    HW142482   5.401   1.497   1.668  0.8981 -0.1346 -0.7044
13176SOL    HW242483   5.306   1.394   1.610  0.3302 -0.2734  0.4333
13177SOL     OW42484   5.472   7.998   7.533  0.3529  0.3821  0.1264
13177SOL    HW142485   5.514   7.913   7.543 -0.3247 -0.0041 -0.2345
13177SOL    HW242486   5.438   8.019   7.620 -0.7812 -0.4267 -0.1006
13178SOL     OW42487   6.078   3.970   4.334  0.3313 -0.3024 -0.5157
13178SOL    HW142488   6.120   4.036   4.388  0.2456 -0.7993  0.1790
13178SOL    HW242489   6.138   3.895   4.335  0.0406 -0.5415 -0.5922
13179SOL     OW42490   0.826   5.811   7.758 -0.5348  0.3020 -0.4442
13179SOL    HW142491   0.842   5.842   7.669  1.3075  0.4417 -0.1174
13179SOL    HW242492   0.831   5.890   7.812  0.1521  0.0026 -0.0459
13180SOL     OW42493   3.259   6.852   1.485  0.5889  0.2147 -0.4264
13180SOL    HW142494   3.331   6.899   1.443  0.9701  0.3116  0.3360
13180SOL    HW242495   3.198   6.921   1.512  0.3078  0.1470 -0.8783
13181SOL     OW42496   7.882   7.567   1.076  0.7352 -0.0853  0.0972
13181SOL    HW142497   7.969   7.561   1.118  1.0471  0.3099 -0.4848
13181SOL    HW242498   7.855   7.657   1.091 -0.0166 -0.4652  1.1198
13182SOL     OW42499   4.489   5.651   6.351  0.0158  0.1523  0.1537
13182SOL    HW142500   4.482   5.620   6.441 -0.0637 -0.4078 -0.0418
13182SOL    HW242501   4.425   5.599   6.302  0.6676 -0.1656 -0.3856
13183SOL     OW42502   4.481   5.172   5.582 -0.0338  0.1729  0.4750
13183SOL    HW142503   4.527   5.140   5.505  3.3440  1.1959  1.8632
13183SOL    HW242504   4.466   5.265   5.565 -1.2491 -0.0544  0.2249
13184SOL     OW42505   0.855   6.805   1.768  0.6884 -0.8612 -0.1502
13184SOL    HW142506   0.895   6.815   1.682 -2.0195  0.1534 -1.4235
13184SOL    HW242507   0.861   6.892   1.808  0.3335 -0.8646 -0.0862
13185SOL     OW42508   5.881   3.369   1.582 -0.3835 -0.0422 -0.1587
13185SOL    HW142509   5.852   3.458   1.562  0.7302  0.7786  1.6444
13185SOL    HW242510   5.900   3.330   1.497 -0.6410  1.5306 -0.9654
13186SOL     OW42511   0.744   5.089   4.604  0.4787 -0.2587  0.0497
13186SOL    HW142512   0.725   5.183   4.599  0.6873 -0.2226 -0.0417
13186SOL    HW242513   0.820   5.082   4.661  1.4677 -0.2386 -1.2230
13187SOL     OW42514   0.129   2.016   2.310  0.3145  0.1086  0.0687
13187SOL    HW142515   0.160   2.044   2.224 -1.2605 -2.6231 -1.5566
13187SOL    HW242516   0.125   1.920   2.304 -1.4572 -0.1017  2.5987
13188SOL     OW42517   6.618   4.391   6.363  0.2032  1.0116  0.0095
13188SOL    HW142518   6.697   4.352   6.326 -0.5955  0.4303 -1.1339
13188SOL    HW242519   6.606   4.473   6.315 -0.6365  0.4300 -0.8155
13189SOL     OW42520   7.047   4.811   3.538 -0.3465 -0.4644 -0.0796
13189SOL    HW142521   7.118   4.852   3.588 -0.8046 -1.9267  1.9106
13189SOL    HW242522   7.001   4.884   3.497  1.1793  0.6637  0.1252
13190SOL     OW42523   3.604   4.105   6.170 -0.0634 -0.3159  0.2596
13190SOL    HW142524   3.564   4.079   6.253  0.6044 -0.0071  0.6750
13190SOL    HW242525   3.690   4.064   6.170 -1.1898 -3.0621 -1.7155
13191SOL     OW42526   3.256   4.664   7.127 -0.0661 -0.2314  0.2102
13191SOL    HW142527   3.186   4.727   7.107 -0.6269 -0.8568  0.1504
13191SOL    HW242528   3.239   4.591   7.068  1.4896  0.1823 -0.8318
13192SOL     OW42529   3.898   4.438   0.577 -0.1628  0.7398 -0.0349
13192SOL    HW142530   3.846   4.436   0.658 -0.4742 -1.5257 -0.2234
13192SOL    HW242531   3.834   4.457   0.508 -0.4183 -0.0455 -0.0312
13193SOL     OW42532   3.446   5.203   5.166 -0.9831  0.3081 -0.1875
13193SOL    HW142533   3.415   5.148   5.238  1.5656  0.5430  1.1819
13193SOL    HW242534   3.388   5.280   5.168 -0.7525  0.4968  1.9167
13194SOL     OW42535   3.954   4.561   3.058  0.5140 -0.2856  0.0429
13194SOL    HW142536   4.000   4.638   3.024  0.4765 -0.6576 -0.8643
13194SOL    HW242537   3.984   4.554   3.149 -0.4187  1.5027  0.5186
13195SOL     OW42538   1.551   5.471   0.464 -0.4910  0.0893 -0.8285
13195SOL    HW142539   1.522   5.501   0.378  0.6223 -0.1799 -1.3080
13195SOL    HW242540   1.586   5.549   0.507 -1.3520  0.2959 -0.4652
13196SOL     OW42541   0.750   0.628   6.267 -0.1377  0.0367  0.0502
13196SOL    HW142542   0.743   0.709   6.217 -0.7955  1.1435  1.8090
13196SOL    HW242543   0.844   0.612   6.275 -0.0080  0.5182 -0.5031
13197SOL     OW42544   0.674   2.176   5.408  0.1041 -0.3635 -0.3621
13197SOL    HW142545   0.742   2.236   5.440 -2.0931  2.0601  0.1366
13197SOL    HW242546   0.687   2.173   5.313  0.1263  1.1949 -0.4376
13198SOL     OW42547   1.854   3.406   6.190  0.0643 -0.0308  0.0926
13198SOL    HW142548   1.791   3.338   6.164 -0.2776  0.3980 -0.2263
13198SOL    HW242549   1.933   3.386   6.142  0.1939 -0.6034  0.5307
13199SOL     OW42550   6.623   7.186   2.880 -0.5604 -0.7232  0.1019
13199SOL    HW142551   6.539   7.158   2.916 -0.2395 -1.0408  0.6142
13199SOL    HW242552   6.670   7.223   2.954 -0.4558 -0.0472 -0.2945
13200SOL     OW42553   1.471   2.914   7.563 -0.0734  1.1576  0.3204
13200SOL    HW142554   1.455   2.999   7.604  0.4984  1.2796  0.3046
13200SOL    HW242555   1.565   2.914   7.545  0.0585  0.2457  0.9567
13201SOL     OW42556   3.891   3.941   6.379 -0.2318  0.2315 -0.3055
13201SOL    HW142557   3.915   3.981   6.295  0.6361  2.3639  0.8853
13201SOL    HW242558   3.955   3.976   6.441 -1.4596 -0.4956  1.4460
13202SOL     OW42559   4.381   4.259   6.998 -0.3168  0.0950  0.0982
13202SOL    HW142560   4.348   4.348   6.986 -0.3062  0.0406 -0.3643
13202SOL    HW242561   4.473   4.264   6.971  0.1525  0.3075  1.6396
13203SOL     OW42562   3.920   0.863   5.363 -0.1766  1.1628  0.4090
13203SOL    HW142563   3.994   0.876   5.421 -0.6085  0.8717  1.0300
13203SOL    HW242564   3.884   0.778   5.388 -0.7221  1.3002  0.1103
13204SOL     OW42565   2.023   2.609   6.435  0.7040 -0.3401  0.2532
13204SOL    HW142566   2.075   2.565   6.503 -1.3760 -1.8890  0.9494
13204SOL    HW242567   2.001   2.693   6.474 -1.6977 -1.7550  2.3001
13205SOL     OW42568   5.719   2.422   2.632 -1.0220 -0.0780  0.0730
13205SOL    HW142569   5.709   2.466   2.717  0.3905  0.9203 -0.2423
13205SOL    HW242570   5.744   2.492   2.572 -1.2789 -0.9034 -1.0218
13206SOL     OW42571   7.748   7.258   1.550 -0.5932  0.3981 -0.0594
13206SOL    HW142572   7.773   7.197   1.481 -1.2504 -0.4994  0.4761
13206SOL    HW242573   7.675   7.307   1.513 -3.2673 -2.3978  1.0729
13207SOL     OW42574   5.232   3.966   6.994  0.0831 -0.6804 -0.5661
13207SOL    HW142575   5.148   3.975   7.040 -0.4080 -1.3714 -1.3104
13207SOL    HW242576   5.296   3.950   7.063  0.0127  2.0519  0.2707
13208SOL     OW42577   7.559   0.694   0.904 -0.0172  0.2989  0.1306
13208SOL    HW142578   7.517   0.768   0.948 -0.0732  0.4125 -0.1124
13208SOL    HW242579   7.521   0.617   0.946 -0.0979  0.4072  0.2568
13209SOL     OW42580   8.113   1.993   7.847 -0.1312  0.5603  0.3479
13209SOL    HW142581   8.138   1.977   7.938  0.1275  0.2595  0.2234
13209SOL    HW242582   8.062   2.074   7.850 -0.2372  0.4777  0.7799
13210SOL     OW42583   7.418   1.966   5.244  0.2888  0.2873 -0.2828
13210SOL    HW142584   7.423   2.044   5.189 -2.4040  0.8862  0.1729
13210SOL    HW242585   7.371   1.902   5.190  0.4435 -0.2222  0.1804
13211SOL     OW42586   2.696   0.569   1.219  0.4379 -0.4966  0.1741
13211SOL    HW142587   2.735   0.635   1.163  1.6561 -0.7287  0.7163
13211SOL    HW242588   2.608   0.602   1.238  1.2679  1.3381  1.0307
13212SOL     OW42589   6.043   1.706   7.327  0.0279 -0.5546 -0.0565
13212SOL    HW142590   5.962   1.747   7.357  0.4266 -1.5120  2.6062
13212SOL    HW242591   6.014   1.640   7.264 -0.9584  1.0099 -1.3052
13213SOL     OW42592   3.824   1.219   7.990  0.0897  0.0544  0.2891
13213SOL    HW142593   3.812   1.219   8.085 -0.4425 -0.0099  0.2299
13213SOL    HW242594   3.913   1.251   7.976  1.2247 -2.5224  0.9235
13214SOL     OW42595   4.435   0.654   1.528  0.3078 -0.2018 -0.4060
13214SOL    HW142596   4.505   0.601   1.566 -1.5320 -1.9880  0.6775
13214SOL    HW242597   4.372   0.590   1.494 -1.7895  1.2337  0.5401
13215SOL     OW42598   7.419   8.105   4.212 -0.1521 -0.4996 -0.3541
13215SOL    HW142599   7.485   8.171   4.234  0.3028 -1.1057  0.1323
13215SOL    HW242600   7.374   8.087   4.294 -1.2601  0.2431 -0.7671
13216SOL     OW42601   1.685   5.671   0.571  0.1596 -0.0160  0.0688
13216SOL    HW142602   1.687   5.741   0.637 -0.3154  0.1255 -0.0629
13216SOL    HW242603   1.749   5.698   0.506  0.6997 -0.2004  0.5131
13217SOL     OW42604   7.422   4.798   7.778  0.3796 -0.2023 -0.7182
13217SOL    HW142605   7.351   4.743   7.745  0.6610 -0.7966 -0.3466
13217SOL    HW242606   7.421   4.785   7.873  0.9152 -0.1403 -0.6978
13218SOL     OW42607   3.811   6.960   1.992  0.0631  0.7193  0.3249
13218SOL    HW142608   3.851   7.047   1.990  2.1292 -0.1348  1.2877
13218SOL    HW242609   3.885   6.900   2.005 -1.3719 -1.1411  0.3428
13219SOL     OW42610   3.061   2.306   4.888  0.1851 -0.1745 -0.2147
13219SOL    HW142611   2.987   2.263   4.845  0.1843 -0.2367 -0.1493
13219SOL    HW242612   3.058   2.396   4.855 -0.5353  0.0994  0.5689
13220SOL     OW42613   7.189   8.117   4.615  0.2609 -0.3713  0.4139
13220SOL    HW142614   7.218   8.208   4.608  0.6783 -0.5039  0.4301
13220SOL    HW242615   7.105   8.115   4.570 -0.1088  0.1893  1.0565
13221SOL     OW42616   6.150   4.118   5.153  0.5472 -0.8291 -0.5141
13221SOL    HW142617   6.162   4.039   5.100 -0.8446 -0.9319 -0.7130
13221SOL    HW242618   6.180   4.189   5.097  1.6804 -1.1801 -0.3857
13222SOL     OW42619   0.565   7.052   4.709 -0.0464 -0.4555 -0.3749
13222SOL    HW142620   0.532   6.963   4.693 -0.7123 -0.3300  0.2515
13222SOL    HW242621   0.652   7.038   4.747  0.0008 -0.8279 -0.6067
13223SOL     OW42622   0.939   6.798   1.193 -0.4203  0.1091 -0.1475
13223SOL    HW142623   0.950   6.783   1.099 -2.7983 -2.7887 -0.1150
13223SOL    HW242624   1.018   6.761   1.232  0.3242  0.8233 -0.9104
13224SOL     OW42625   2.528   2.889   0.044 -0.3074  0.1299  0.5731
13224SOL    HW142626   2.529   2.854  -0.045 -0.2293  0.9842  0.2297
13224SOL    HW242627   2.523   2.984   0.033 -0.8310  0.2252  1.4867
13225SOL     OW42628   6.621   2.375   3.981 -0.7185 -0.3359  0.0223
13225SOL    HW142629   6.685   2.354   3.912  0.1653  1.8236  0.0988
13225SOL    HW242630   6.668   2.356   4.063  0.7122  3.0649  0.1539
13226SOL     OW42631   6.679   1.546   0.382 -0.0595 -0.0298  0.3295
13226SOL    HW142632   6.647   1.624   0.336 -0.6379 -0.8441 -0.6937
13226SOL    HW242633   6.750   1.514   0.327 -1.1467 -1.3546 -0.3605
13227SOL     OW42634   4.169   3.125   2.468  0.2165 -0.3929  0.6060
13227SOL    HW142635   4.158   3.086   2.381 -2.2000  2.3205 -0.4909
13227SOL    HW242636   4.263   3.138   2.476  0.4621  0.2458 -2.1515
13228SOL     OW42637   7.624   0.455   5.735 -0.1605  0.0771 -0.6245
13228SOL    HW142638   7.543   0.422   5.698 -0.7356  0.3939  0.3220
13228SOL    HW242639   7.598   0.498   5.817  0.8164  1.0732 -0.7994
13229SOL     OW42640   7.735   5.198   6.901 -0.3960 -0.2714 -0.3435
13229SOL    HW142641   7.827   5.172   6.893 -0.4648 -0.4150 -0.7122
13229SOL    HW242642   7.689   5.115   6.917 -0.3431 -0.0715  0.8765
13230SOL     OW42643   3.213   1.296   6.650  0.3273 -0.5233 -0.7489
13230SOL    HW142644   3.136   1.238   6.646 -0.0889  0.0494 -1.1926
13230SOL    HW242645   3.237   1.296   6.743 -0.6994 -0.0907 -0.4663
13231SOL     OW42646   2.454   1.539   6.237  0.0177 -0.8426  0.2419
13231SOL    HW142647   2.497   1.589   6.307 -0.5838  0.6736 -0.4385
13231SOL    HW242648   2.371   1.512   6.275 -0.2363 -0.1662  0.1731
13232SOL     OW42649   6.454   1.736   5.738  0.2250 -0.1684  0.1998
13232SOL    HW142650   6.413   1.810   5.782  1.3558 -0.0330  1.0573
13232SOL    HW242651   6.467   1.765   5.648  0.9927  0.8066  0.6182
13233SOL     OW42652   6.029   5.596   0.293 -0.1124  0.3615 -0.3662
13233SOL    HW142653   6.104   5.560   0.247 -0.2282  2.3365 -2.2122
13233SOL    HW242654   6.067   5.649   0.363  0.1137 -0.6991  0.3410
13234SOL     OW42655   0.098   1.369   0.984 -0.3256 -0.5541  0.1584
13234SOL    HW142656   0.151   1.307   0.934  1.4370  0.1105  1.1180
13234SOL    HW242657   0.008   1.342   0.967  0.3196 -2.2127 -0.9148
13235SOL     OW42658   5.083   0.411   3.887  0.2599  0.4053 -0.1615
13235SOL    HW142659   5.164   0.422   3.937 -0.1036 -0.2205  0.5785
13235SOL    HW242660   5.078   0.490   3.833  1.0035  0.7834  0.2985
13236SOL     OW42661   3.768   1.297   3.777 -0.3928 -0.0265 -0.8244
13236SOL    HW142662   3.846   1.286   3.723 -1.1506 -0.9020 -1.8047
13236SOL    HW242663   3.801   1.325   3.862  0.8270  1.7114 -1.8000
13237SOL     OW42664   2.734   1.556   5.835 -0.1051 -0.2610 -0.3661
13237SOL    HW142665   2.816   1.564   5.786 -1.4272  3.1822 -2.3878
13237SOL    HW242666   2.674   1.512   5.774 -0.8043  0.8629 -0.5110
13238SOL     OW42667   2.741   7.940   4.237  0.5608 -0.1884  0.1104
13238SOL    HW142668   2.699   7.896   4.310  2.4906 -0.2674  1.2472
13238SOL    HW242669   2.757   8.030   4.268  1.8312 -0.3549  0.0270
13239SOL     OW42670   0.621   0.155   1.482 -0.2731 -0.2202 -0.0493
13239SOL    HW142671   0.604   0.066   1.513 -1.1259 -1.2107 -3.0364
13239SOL    HW242672   0.535   0.195   1.475  0.1053  0.9471  1.3233
13240SOL     OW42673   1.691   4.696   2.799 -0.2882  0.1232  0.0726
13240SOL    HW142674   1.654   4.636   2.864 -3.2468  0.4054 -1.1844
13240SOL    HW242675   1.693   4.645   2.718 -0.3814  0.9402 -0.4535
13241SOL     OW42676   4.020   4.838   8.125 -0.3186 -0.1336 -0.3192
13241SOL    HW142677   3.974   4.895   8.064  0.5825  0.7916 -0.1728
13241SOL    HW242678   3.954   4.778   8.157 -0.9316 -0.2812 -1.7799
13242SOL     OW42679   1.574   2.543   4.071  0.0751 -0.0693  0.3668
13242SOL    HW142680   1.667   2.524   4.056  0.4954 -1.1504  3.5812
13242SOL    HW242681   1.567   2.638   4.057  1.1863 -0.2432 -1.7505
13243SOL     OW42682   4.170   5.978   3.278  0.1500  0.2711  0.5283
13243SOL    HW142683   4.086   6.015   3.306  0.4740  1.7564 -0.3078
13243SOL    HW242684   4.235   6.038   3.315  1.0225 -1.9513  2.8420
13244SOL     OW42685   1.139   5.392   2.139 -0.2749 -0.3237 -0.2541
13244SOL    HW142686   1.045   5.409   2.143 -0.3143  0.0535 -1.9167
13244SOL    HW242687   1.160   5.352   2.223 -1.7707  0.3016  0.4541
13245SOL     OW42688   0.802   5.232   0.686  0.4880  0.2253 -0.2837
13245SOL    HW142689   0.883   5.282   0.697  0.7569 -0.7304  3.0795
13245SOL    HW242690   0.797   5.177   0.764 -2.3787 -1.2792 -1.4000
13246SOL     OW42691   3.980   1.248   3.606  0.1306  0.5446  0.3009
13246SOL    HW142692   4.065   1.276   3.641  0.9631 -0.4919 -0.8020
13246SOL    HW242693   3.968   1.301   3.528 -1.2243  2.1042  1.5012
13247SOL     OW42694   8.035   2.283   1.080  0.6457  0.4323  0.2884
13247SOL    HW142695   8.066   2.192   1.077  0.2231  0.2580  0.9832
13247SOL    HW242696   7.957   2.283   1.026 -0.1162  0.0579  1.3411
13248SOL     OW42697   5.546   3.673   5.570  0.4509  0.6323  0.2712
13248SOL    HW142698   5.600   3.701   5.496 -1.0384 -0.3260 -1.2474
13248SOL    HW242699   5.519   3.584   5.547 -0.9348  0.7120  1.4614
13249SOL     OW42700   1.377   7.488   3.640 -0.6026 -0.1361  0.5672
13249SOL    HW142701   1.438   7.506   3.711 -0.8844  0.0146  0.7745
13249SOL    HW242702   1.427   7.505   3.560  0.1131 -1.5707  0.6884
13250SOL     OW42703   4.538   1.948   1.583 -0.6169 -0.4994  0.1544
13250SOL    HW142704   4.523   1.879   1.519  0.6157 -2.4047  1.8266
13250SOL    HW242705   4.591   2.013   1.536 -1.8409 -0.6175 -1.4620
13251SOL     OW42706   6.936   0.906   3.221  0.2985  0.6436  0.4526
13251SOL    HW142707   6.969   0.878   3.306 -0.9262  0.6138  0.9402
13251SOL    HW242708   6.883   0.983   3.241 -0.5566  0.2334 -0.1877
13252SOL     OW42709   4.779   3.008   2.122 -0.9274  0.0865  0.3081
13252SOL    HW142710   4.830   3.062   2.184  1.7410 -1.4541 -0.3718
13252SOL    HW242711   4.752   3.069   2.054  1.0207  0.8278  0.1397
13253SOL     OW42712   5.043   0.067   5.490 -0.2630  0.1353 -0.8226
13253SOL    HW142713   4.977   0.008   5.526  0.4653  0.8144  1.8733
13253SOL    HW242714   5.087   0.016   5.422 -0.2881 -2.1345  0.7397
13254SOL     OW42715   4.685   7.706   3.607 -0.2438 -0.5701  0.1705
13254SOL    HW142716   4.734   7.785   3.629  0.6376 -0.7319 -1.0969
13254SOL    HW242717   4.596   7.724   3.637 -0.1311  1.0286 -0.3577
13255SOL     OW42718   5.700   7.193   3.671 -0.2648 -0.4904  0.1310
13255SOL    HW142719   5.736   7.122   3.618 -0.6789 -0.0946 -0.7159
13255SOL    HW242720   5.663   7.150   3.748 -0.6118 -1.2149 -0.4267
13256SOL     OW42721   2.394   2.265   7.565  0.0672  0.0498 -0.5080
13256SOL    HW142722   2.355   2.350   7.589 -0.3458 -0.8390  2.3406
13256SOL    HW242723   2.457   2.287   7.496 -0.7971  2.4905 -0.6416
13257SOL     OW42724   0.854   5.215   0.394  0.0687  0.4595 -0.4414
13257SOL    HW142725   0.891   5.202   0.481  0.5035  0.8333 -0.5693
13257SOL    HW242726   0.764   5.244   0.410  0.1925  0.6684 -0.1154
13258SOL     OW42727   0.278   2.366   5.120 -0.0213  0.2558 -0.3681
13258SOL    HW142728   0.308   2.275   5.124  0.6439  0.4989  0.6325
13258SOL    HW242729   0.351   2.416   5.156 -0.9319  1.0488  0.4099
13259SOL     OW42730   6.682   1.569   6.413  0.2227  0.2876 -0.0711
13259SOL    HW142731   6.631   1.516   6.351  0.8171 -0.6120  0.1941
13259SOL    HW242732   6.750   1.609   6.359  1.1113 -0.9715  0.0570
13260SOL     OW42733   1.602   3.869   5.038  0.1650 -0.0928 -0.0653
13260SOL    HW142734   1.577   3.795   4.983  0.8067 -2.8055  3.0060
13260SOL    HW242735   1.558   3.944   4.998  0.8768 -1.6787 -4.4041
13261SOL     OW42736   3.043   2.751   4.559  0.4776 -0.2194 -0.1297
13261SOL    HW142737   3.110   2.774   4.495  0.3713  2.6635  0.6434
13261SOL    HW242738   3.043   2.825   4.621 -1.0500 -1.7564  1.8415
13262SOL     OW42739   1.818   7.617   6.178  0.6379  0.2065 -0.1778
13262SOL    HW142740   1.884   7.685   6.170  0.2546  0.7156  0.8403
13262SOL    HW242741   1.738   7.663   6.204  0.0058 -0.4596 -0.8801
13263SOL     OW42742   1.072   5.244   0.587 -0.2653  0.0913 -0.1369
13263SOL    HW142743   1.154   5.236   0.637  0.1303 -0.7822 -0.8857
13263SOL    HW242744   1.090   5.314   0.524 -0.3136  0.3284  0.1134
13264SOL     OW42745   2.605   8.094   2.052 -0.2170  0.4592  0.8741
13264SOL    HW142746   2.694   8.061   2.070 -0.0888  0.7606  0.8032
13264SOL    HW242747   2.561   8.021   2.009  0.0022  0.3120  0.8916
13265SOL     OW42748   5.093   5.845   4.437 -0.1479 -0.3226 -0.2050
13265SOL    HW142749   5.051   5.904   4.499  1.2368  0.4075  0.0887
13265SOL    HW242750   5.050   5.862   4.354 -2.1155 -1.3994  0.5198
13266SOL     OW42751   2.345   6.131   2.147  0.0576 -0.1855  0.3131
13266SOL    HW142752   2.309   6.175   2.070 -1.6518  2.7782  2.5744
13266SOL    HW242753   2.417   6.187   2.175  0.5491 -1.1172  0.9823
13267SOL     OW42754   7.900   6.608   7.484 -0.4295  0.9002 -0.5893
13267SOL    HW142755   7.959   6.589   7.411 -0.7277  0.2765 -0.6747
13267SOL    HW242756   7.957   6.644   7.552 -0.1862  1.7178 -1.2145
13268SOL     OW42757   7.946   0.893   5.450 -0.8622 -0.3224  0.1705
13268SOL    HW142758   7.955   0.863   5.540 -2.2733 -0.9883  0.1229
13268SOL    HW242759   7.880   0.835   5.412  1.5916 -1.8746 -2.1389
13269SOL     OW42760   1.452   0.027   5.570 -0.2901 -0.6819 -0.0095
13269SOL    HW142761   1.399   0.105   5.558 -1.3769 -0.9283  2.6202
13269SOL    HW242762   1.542   0.060   5.576 -0.6645  0.2967  0.4043
13270SOL     OW42763   6.678   5.876   1.425  0.1598 -0.2267 -0.0033
13270SOL    HW142764   6.700   5.827   1.346  2.6003 -2.1663  1.7318
13270SOL    HW242765   6.720   5.962   1.412  1.2007 -0.7905 -0.5396
13271SOL     OW42766   4.545   0.177   6.453  0.1189 -0.4275  0.4020
13271SOL    HW142767   4.505   0.196   6.538 -0.4565  0.1946  0.0059
13271SOL    HW242768   4.589   0.093   6.465  0.5967 -0.0414  1.4993
13272SOL     OW42769   4.689   6.223   4.507 -0.0791 -0.1660  0.5292
13272SOL    HW142770   4.783   6.205   4.518  0.2733  0.8223 -0.6592
13272SOL    HW242771   4.660   6.157   4.444  0.1888  0.5011 -0.3130
13273SOL     OW42772   1.685   4.950   0.282 -0.0083  0.1616 -0.1437
13273SOL    HW142773   1.634   4.931   0.203  0.3626  0.2933 -0.4195
13273SOL    HW242774   1.675   5.044   0.296  0.9747  0.3899 -0.7974
13274SOL     OW42775   0.174   5.541   0.681  0.6151 -0.3298 -0.1007
13274SOL    HW142776   0.199   5.456   0.645  0.4847 -0.5986  0.4462
13274SOL    HW242777   0.240   5.602   0.646 -0.4081 -0.2730 -2.1329
13275SOL     OW42778   6.572   2.525   5.841  0.3009 -0.1181 -0.4126
13275SOL    HW142779   6.578   2.523   5.746  0.6104 -1.6516 -0.3950
13275SOL    HW242780   6.482   2.549   5.860  0.4846  1.1799 -1.0557
13276SOL     OW42781   3.687   7.567   3.778  0.4273  0.4006  0.4438
13276SOL    HW142782   3.684   7.472   3.777  0.9215  0.3518  1.6013
13276SOL    HW242783   3.741   7.591   3.703  1.3299 -0.2917  0.8591
13277SOL     OW42784   0.864   4.790   1.866 -0.3366  0.1288  0.8380
13277SOL    HW142785   0.801   4.746   1.923 -0.3535  1.8095  2.2218
13277SOL    HW242786   0.903   4.857   1.922  0.6883  0.9368 -0.7730
13278SOL     OW42787   7.853   4.710   3.340  0.1295 -0.1958 -0.1948
13278SOL    HW142788   7.815   4.764   3.409 -1.0530  0.9214 -1.6467
13278SOL    HW242789   7.944   4.696   3.367 -0.1692  0.6206  1.3225
13279SOL     OW42790   4.498   1.403   8.091  0.2374 -0.0231  0.1245
13279SOL    HW142791   4.553   1.328   8.069  0.9041  0.4064  0.3144
13279SOL    HW242792   4.454   1.425   8.009  0.5310 -0.2134 -0.0875
13280SOL     OW42793   6.230   6.318   2.800  0.2650  0.1536 -0.1311
13280SOL    HW142794   6.265   6.407   2.800  1.4348 -0.2674  1.0269
13280SOL    HW242795   6.262   6.279   2.719  2.5399 -0.1842  0.8411
13281SOL     OW42796   4.624   3.460   7.316 -0.2471 -0.3675 -0.1446
13281SOL    HW142797   4.714   3.484   7.340 -0.1558 -0.0544 -0.7728
13281SOL    HW242798   4.579   3.450   7.400 -0.1191  1.4149  0.1917
13282SOL     OW42799   2.130   1.100   7.164  0.5284  0.0179 -0.1402
13282SOL    HW142800   2.052   1.102   7.219  0.4711  2.4338 -0.2226
13282SOL    HW242801   2.098   1.121   7.076  1.2356  0.8758 -0.2051
13283SOL     OW42802   3.660   1.779   5.915 -0.3950  0.0099  0.2213
13283SOL    HW142803   3.632   1.689   5.893  1.5674 -0.2920 -1.3497
13283SOL    HW242804   3.608   1.834   5.856 -0.2521 -0.2581 -0.1647
13284SOL     OW42805   7.319   7.893   1.684 -0.0268 -0.2068 -0.0958
13284SOL    HW142806   7.290   7.951   1.613 -1.1303 -0.7595 -0.1185
13284SOL    HW242807   7.314   7.805   1.646 -1.8270 -0.6278  1.0085
13285SOL     OW42808   4.715   6.666   1.372  0.2216 -0.3573 -0.2943
13285SOL    HW142809   4.741   6.742   1.320 -1.8321  1.2346  0.8128
13285SOL    HW242810   4.778   6.663   1.444  1.6269 -1.1015 -1.5094
13286SOL     OW42811   7.721   2.954   7.389 -0.5079  0.1653  0.6726
13286SOL    HW142812   7.708   2.938   7.483 -1.3578 -1.1580  0.3483
13286SOL    HW242813   7.634   2.946   7.351  0.2568 -2.7937 -0.7034
13287SOL     OW42814   2.535   6.195   7.197 -0.1241 -0.5438  0.2409
13287SOL    HW142815   2.486   6.205   7.116 -0.5454  1.5335  0.7073
13287SOL    HW242816   2.471   6.164   7.261 -0.5902  0.9068  0.5237
13288SOL     OW42817   3.419   4.375   3.978  0.2204 -0.1211  0.5414
13288SOL    HW142818   3.360   4.449   3.994  1.3003  0.4471  2.1918
13288SOL    HW242819   3.410   4.320   4.056  0.2710 -1.1673 -0.1667
13289SOL     OW42820   1.092   5.146   6.954  0.2276 -0.4169  0.0978
13289SOL    HW142821   1.098   5.053   6.972  3.3584 -0.6739 -1.5311
13289SOL    HW242822   1.178   5.169   6.918 -0.2601  3.1995  0.8485
13290SOL     OW42823   5.434   7.534   4.768 -0.3738  0.6313  0.1811
13290SOL    HW142824   5.481   7.562   4.847 -1.2742 -1.0086  1.3642
13290SOL    HW242825   5.361   7.483   4.801 -1.8077  1.3520 -1.6888
13291SOL     OW42826   5.500   0.065   4.868 -0.1817  0.5506 -0.1644
13291SOL    HW142827   5.481  -0.014   4.817  2.2031 -1.0299  1.1948
13291SOL    HW242828   5.568   0.110   4.818  0.6687  0.0778  0.5314
13292SOL     OW42829   3.754   0.559   3.373 -0.1046 -0.2637  0.1998
13292SOL    HW142830   3.681   0.498   3.365  0.0055 -0.2952 -0.7332
13292SOL    HW242831   3.750   0.590   3.464 -1.1876 -0.3701  0.2074
13293SOL     OW42832   4.187   0.873   5.469 -0.0033  0.6267  0.3775
13293SOL    HW142833   4.228   0.915   5.394  0.6273 -1.6210 -0.6344
13293SOL    HW242834   4.240   0.898   5.544  1.7151 -0.1228 -0.5290
13294SOL     OW42835   1.007   7.339   4.245  0.3912 -0.0196  0.2290
13294SOL    HW142836   0.977   7.393   4.318  0.2276  0.6193 -0.3013
13294SOL    HW242837   1.090   7.302   4.275  0.2986  0.1905  0.7557
13295SOL     OW42838   0.298   6.787   4.420 -0.3967 -0.1182 -0.3455
13295SOL    HW142839   0.387   6.821   4.434 -0.5601  0.3128 -0.3540
13295SOL    HW242840   0.312   6.701   4.379  0.0122  0.0160 -0.4915
13296SOL     OW42841   4.401   1.885   0.402 -0.3882 -0.2765  0.0476
13296SOL    HW142842   4.413   1.954   0.467 -0.9701  1.0885 -1.2188
13296SOL    HW242843   4.315   1.904   0.364 -0.7545 -1.9830 -0.0347
13297SOL     OW42844   4.914   7.616   7.961 -0.3727 -0.6700 -0.0992
13297SOL    HW142845   4.891   7.527   7.937 -1.7076 -0.1845 -0.7597
13297SOL    HW242846   4.994   7.635   7.912  0.2602 -1.6741  0.5022
13298SOL     OW42847   2.403   4.231   7.915  0.5956  0.4841  0.3029
13298SOL    HW142848   2.485   4.201   7.954  0.4364 -1.4340 -0.6971
13298SOL    HW242849   2.406   4.326   7.922  2.0830  0.3718  1.8872
13299SOL     OW42850   7.322   1.161   1.650 -0.3179 -0.1700  0.4819
13299SOL    HW142851   7.243   1.145   1.703 -1.6335  0.4086 -1.1961
13299SOL    HW242852   7.289   1.167   1.560  1.5817  0.7418 -0.2024
13300SOL     OW42853   0.546   1.319   5.864  0.1252 -0.2929  0.3224
13300SOL    HW142854   0.516   1.403   5.829  2.3055  0.3113 -0.2653
13300SOL    HW242855   0.628   1.340   5.910  1.4681 -2.2702 -1.0088
13301SOL     OW42856   7.919   0.988   3.983  0.0362  0.2190 -0.5063
13301SOL    HW142857   8.004   1.013   3.946 -0.7960 -0.1543 -2.7713
13301SOL    HW242858   7.855   1.015   3.918 -1.4680 -1.0022  0.3951
13302SOL     OW42859   7.819   3.414   6.656 -0.7051 -0.6570 -0.0382
13302SOL    HW142860   7.739   3.438   6.704  0.4094 -1.0241  2.1125
13302SOL    HW242861   7.822   3.475   6.583 -1.7919  0.8308  1.1003
13303SOL     OW42862   1.082   0.103   6.068  0.6539 -0.2671  0.6990
13303SOL    HW142863   1.174   0.077   6.058  0.7835  0.4398 -0.1116
13303SOL    HW242864   1.080   0.154   6.149  0.9611 -0.3418  0.7541
13304SOL     OW42865   7.454   0.559   1.333  0.0181 -0.0270 -0.4667
13304SOL    HW142866   7.516   0.528   1.399 -0.2600 -1.2336 -0.7495
13304SOL    HW242867   7.376   0.583   1.382  0.4662  0.9110 -0.1749
13305SOL     OW42868   4.714   7.968   1.471  0.1765 -0.0653 -0.3020
13305SOL    HW142869   4.773   7.956   1.545 -0.9172 -1.2318  0.4296
13305SOL    HW242870   4.708   7.881   1.430  0.0420  0.3501 -1.1909
13306SOL     OW42871   1.104   5.708   1.122  0.6017 -0.2387  0.1653
13306SOL    HW142872   1.020   5.708   1.167  0.7072  1.8377  0.4673
13306SOL    HW242873   1.124   5.800   1.109  1.4497 -0.7341 -2.5493
13307SOL     OW42874   5.725   0.040   5.053 -0.1972 -0.2531  0.1484
13307SOL    HW142875   5.753  -0.043   5.016 -1.8014 -1.4216  1.4307
13307SOL    HW242876   5.663   0.076   4.989 -0.3161 -0.5687  0.0863
13308SOL     OW42877   5.814   7.466   3.468 -0.1872  0.1366 -0.1199
13308SOL    HW142878   5.884   7.417   3.510  0.7043 -0.2234 -1.9199
13308SOL    HW242879   5.748   7.401   3.446 -1.3903  0.5460  2.0266
13309SOL     OW42880   4.562   7.353   4.655  0.6856  0.2662  0.4238
13309SOL    HW142881   4.507   7.398   4.719  1.5504  1.5974  0.2755
13309SOL    HW242882   4.651   7.385   4.673  0.8891  1.0553 -1.7020
13310SOL     OW42883   0.412   2.171   2.944  0.8007  0.7883  0.5529
13310SOL    HW142884   0.429   2.084   2.907 -1.3849  0.6812 -0.3460
13310SOL    HW242885   0.322   2.165   2.976  1.1402  2.2810  1.8823
13311SOL     OW42886   7.208   6.881   3.639  0.1268  0.0967  0.6598
13311SOL    HW142887   7.233   6.942   3.708 -0.2293  0.9518  0.0607
13311SOL    HW242888   7.113   6.869   3.651  0.1378 -0.0737  0.5727
13312SOL     OW42889   5.244   5.174   6.077  0.1633 -0.0604  0.3988
13312SOL    HW142890   5.202   5.125   6.148  1.7921 -0.5137  1.0958
13312SOL    HW242891   5.323   5.124   6.056  0.9368  1.3119 -0.1158
13313SOL     OW42892   5.848   1.949   4.137 -0.3761  0.1886 -0.3642
13313SOL    HW142893   5.787   2.022   4.150 -0.4376  0.2973 -1.1854
13313SOL    HW242894   5.903   1.977   4.064  1.8795  0.8509  1.4688
13314SOL     OW42895   2.543   2.262   5.132 -0.6624  0.3668 -0.1197
13314SOL    HW142896   2.566   2.284   5.042 -0.2011  0.1028 -0.0640
13314SOL    HW242897   2.494   2.338   5.163 -0.9498  0.3976 -0.6392
13315SOL     OW42898   4.541   1.176   4.650  0.2238 -0.4134  0.3011
13315SOL    HW142899   4.494   1.134   4.578  0.5850 -0.5472  0.1440
13315SOL    HW242900   4.612   1.224   4.608 -0.0182  0.1295  0.5062
13316SOL     OW42901   4.749   2.123   1.547 -0.0595  0.1649 -0.5342
13316SOL    HW142902   4.844   2.119   1.540 -0.0720 -0.6474 -0.3169
13316SOL    HW242903   4.731   2.122   1.642 -0.3850 -3.2495 -0.5299
13317SOL     OW42904   5.300   2.519   6.061 -0.0184 -0.0158  0.3115
13317SOL    HW142905   5.392   2.493   6.064 -0.6389 -2.3185  1.3404
13317SOL    HW242906   5.279   2.523   5.968  0.5404 -1.8390  0.0655
13318SOL     OW42907   6.942   5.451   5.219 -0.2465  0.2009 -0.1122
13318SOL    HW142908   7.005   5.381   5.201  1.8837  1.7413  0.8588
13318SOL    HW242909   6.874   5.410   5.272  1.0502 -1.0930  0.6007
13319SOL     OW42910   6.251   7.379   8.089 -0.4810  0.9118 -0.3449
13319SOL    HW142911   6.274   7.304   8.142 -0.9080  1.8092  1.1789
13319SOL    HW242912   6.242   7.345   8.000  1.2888 -0.4313 -0.0442
13320SOL     OW42913   4.794   2.619   7.701 -0.0780  0.1239  0.4373
13320SOL    HW142914   4.703   2.589   7.705 -0.1673  0.1025 -1.1403
13320SOL    HW242915   4.829   2.580   7.621  1.1807  0.5202  0.7697
13321SOL     OW42916   2.605   0.141   3.920 -0.7353 -0.4638  0.0300
13321SOL    HW142917   2.525   0.095   3.894 -1.8775  1.6156 -0.3643
13321SOL    HW242918   2.574   0.223   3.959  1.2224  0.4821 -0.2758
13322SOL     OW42919   5.378   1.000   5.478  0.2311 -0.4441 -0.5790
13322SOL    HW142920   5.357   0.989   5.571  1.4671  0.5473 -0.1557
13322SOL    HW242921   5.443   0.932   5.460  0.8492  0.0900 -0.4046
13323SOL     OW42922   2.243   4.621   3.733 -0.6039 -0.4285 -0.2431
13323SOL    HW142923   2.273   4.578   3.813  1.9593  0.7014 -0.4946
13323SOL    HW242924   2.187   4.693   3.763  1.5991  0.9874  0.7611
13324SOL     OW42925   0.231   5.845   3.680 -0.4538  0.2277  0.5652
13324SOL    HW142926   0.207   5.870   3.770 -0.9136 -0.1415  0.5520
13324SOL    HW242927   0.318   5.807   3.689  0.3518  1.9852  0.5510
13325SOL     OW42928   4.480   2.615   1.174  0.3621 -0.0800  0.5114
13325SOL    HW142929   4.390   2.632   1.146 -0.0821 -1.6518  0.8842
13325SOL    HW242930   4.493   2.671   1.250 -0.1456  0.4878  0.1884
13326SOL     OW42931   1.140   7.623   1.683 -0.0938 -0.0064  0.4395
13326SOL    HW142932   1.114   7.544   1.634 -0.5874  0.2752  0.2422
13326SOL    HW242933   1.078   7.627   1.755 -1.3824  1.3269 -0.6960
13327SOL     OW42934   7.908   7.577   7.109  0.3604 -0.5166  0.0935
13327SOL    HW142935   7.839   7.561   7.045 -0.2208 -0.2358  0.6340
13327SOL    HW242936   7.896   7.508   7.174 -0.2201  0.2570  0.8381
13328SOL     OW42937   3.012   6.551   6.482 -0.4110 -0.6988 -0.3885
13328SOL    HW142938   2.955   6.475   6.491 -0.8425 -0.7115 -2.6507
13328SOL    HW242939   2.953   6.625   6.474 -0.0841 -0.5115 -1.1531
13329SOL     OW42940   1.624   4.897   1.463 -0.6450  0.2906  0.0019
13329SOL    HW142941   1.693   4.830   1.466 -0.4126  0.5343  0.1869
13329SOL    HW242942   1.554   4.862   1.518  0.1993  0.9848  1.5866
13330SOL     OW42943   5.983   5.188   0.208 -0.4989 -0.4216  0.7039
13330SOL    HW142944   5.928   5.143   0.143 -1.0354  0.0271  0.8410
13330SOL    HW242945   5.922   5.245   0.255  0.3613  1.4110 -0.2887
13331SOL     OW42946   5.521   0.308   6.744  0.1540  0.6666 -0.3046
13331SOL    HW142947   5.574   0.260   6.807  0.9160  1.0275 -0.6528
13331SOL    HW242948   5.535   0.400   6.766  0.0576  0.7804 -0.7039
13332SOL     OW42949   4.946   6.638   6.777 -0.3464  0.0920  0.2544
13332SOL    HW142950   4.988   6.605   6.856 -0.8469 -1.4959 -0.1118
13332SOL    HW242951   4.924   6.729   6.798 -0.7419 -0.3719  2.0500
13333SOL     OW42952   0.358   1.424   7.370  0.1277  0.3977  0.3227
13333SOL    HW142953   0.273   1.427   7.326  0.5179 -1.8663 -0.7243
13333SOL    HW242954   0.413   1.371   7.312  2.2160  1.6153  1.0876
13334SOL     OW42955   1.342   6.404   5.989  0.5547 -0.0138  0.6830
13334SOL    HW142956   1.307   6.492   5.973  2.8005  1.4497  3.0242
13334SOL    HW242957   1.279   6.363   6.049 -1.5148 -0.8691 -1.9107
13335SOL     OW42958   6.211   5.477   5.810  0.3609 -0.2705  0.2686
13335SOL    HW142959   6.297   5.436   5.823  1.1514  0.6654 -1.5742
13335SOL    HW242960   6.176   5.489   5.898  1.2804 -2.3735  0.9765
13336SOL     OW42961   0.156   7.112   7.527  0.6938 -0.2053 -0.3002
13336SOL    HW142962   0.159   7.207   7.521 -1.1829 -0.1495 -1.0314
13336SOL    HW242963   0.111   7.094   7.609  2.8530 -0.5382  0.8691
13337SOL     OW42964   6.517   2.119   0.466 -0.2054 -0.2713  0.1470
13337SOL    HW142965   6.511   2.214   0.471  0.0237 -0.2433 -0.1250
13337SOL    HW242966   6.427   2.089   0.453 -0.4639 -0.1703  1.5231
13338SOL     OW42967   2.361   5.098   1.678  0.5675 -0.1316 -0.1299
13338SOL    HW142968   2.336   5.147   1.599 -0.0691 -0.8300 -0.3766
13338SOL    HW242969   2.370   5.165   1.746 -0.2476  0.3399 -0.4744
13339SOL     OW42970   7.417   3.786   3.885 -0.3147 -0.2465  0.1299
13339SOL    HW142971   7.372   3.751   3.809  0.6660 -0.0261 -0.5771
13339SOL    HW242972   7.354   3.845   3.926 -0.1782  1.2649 -1.7248
13340SOL     OW42973   0.278   6.927   1.102  0.6120  0.2542 -0.0716
13340SOL    HW142974   0.255   6.967   1.186  0.9152  0.9677 -0.3123
13340SOL    HW242975   0.370   6.953   1.088  0.7234 -0.2849 -0.3827
13341SOL     OW42976   5.996   4.856   0.653 -0.1415 -0.3096 -0.2899
13341SOL    HW142977   5.925   4.911   0.621  0.9445  0.3778 -1.6308
13341SOL    HW242978   5.957   4.805   0.724 -1.8447  0.3396 -0.7139
13342SOL     OW42979   2.250   7.398   4.570 -0.3563  0.2171 -0.0325
13342SOL    HW142980   2.211   7.468   4.517  1.8185  0.5635 -1.3035
13342SOL    HW242981   2.284   7.443   4.648 -0.2726  0.3405 -0.1390
13343SOL     OW42982   8.088   7.911   7.639  0.1842 -0.3562  0.5031
13343SOL    HW142983   8.139   7.831   7.651  0.5775  0.0476  1.5860
13343SOL    HW242984   8.002   7.890   7.676  0.4179 -0.1546  1.1819
13344SOL     OW42985   4.735   5.880   8.060  0.1696  0.2374 -0.3798
13344SOL    HW142986   4.722   5.797   8.107  0.9618  0.8651  1.0141
13344SOL    HW242987   4.763   5.854   7.972 -1.2156 -0.9778 -0.4882
13345SOL     OW42988   3.497   4.270   0.894 -0.4381  0.2748  0.0280
13345SOL    HW142989   3.463   4.313   0.972 -1.7319  1.7196 -1.2648
13345SOL    HW242990   3.467   4.179   0.902 -1.7648  0.7262  0.5813
13346SOL     OW42991   5.176   2.453   5.798 -0.1693 -0.6093  0.6991
13346SOL    HW142992   5.200   2.366   5.831  1.2414 -0.0646  1.2028
13346SOL    HW242993   5.250   2.477   5.741 -0.6595  0.1623  0.3804
13347SOL     OW42994   6.041   6.559   7.933  0.0646 -0.1603 -0.0818
13347SOL    HW142995   6.044   6.465   7.951 -2.7933  0.0724  2.3117
13347SOL    HW242996   5.990   6.566   7.852 -1.9188 -0.6798  1.0496
13348SOL     OW42997   5.992   7.856   7.000  0.5005 -0.0908  0.1047
13348SOL    HW142998   5.920   7.909   7.033  2.7033  2.9107  0.4306
13348SOL    HW242999   6.018   7.802   7.075 -0.3626 -0.0343  0.4573
13349SOL     OW43000   3.779   3.846   3.838 -0.0589  0.0598 -0.2733
13349SOL    HW143001   3.696   3.862   3.794  0.3353  0.4454 -0.9006
13349SOL    HW243002   3.759   3.780   3.904 -0.8907  0.2588 -0.3112
13350SOL     OW43003   4.257   8.041   0.657  0.3727  0.0504  0.1997
13350SOL    HW143004   4.254   7.947   0.637  2.1643  0.0418 -0.2354
13350SOL    HW243005   4.240   8.083   0.573  1.6057  0.0642 -0.0699
13351SOL     OW43006   2.032   5.466   5.755  0.2556 -0.1089  0.1006
13351SOL    HW143007   2.093   5.404   5.715 -0.8612 -1.2428  0.0888
13351SOL    HW243008   2.088   5.530   5.799  1.4593 -0.4264 -0.9066
13352SOL     OW43009   1.358   6.578   1.411 -0.0190 -0.2141  0.2745
13352SOL    HW143010   1.281   6.575   1.355  0.4391  0.3553 -0.3969
13352SOL    HW243011   1.350   6.661   1.459  1.1007  0.7591 -1.1629
13353SOL     OW43012   7.138   3.876   2.330  0.2823  0.2397  0.4266
13353SOL    HW143013   7.063   3.859   2.386 -0.1040  1.5569  0.3261
13353SOL    HW243014   7.124   3.819   2.254  0.2406 -0.7229  1.1323
13354SOL     OW43015   2.182   3.398   5.155  0.0903  0.6160 -0.7673
13354SOL    HW143016   2.185   3.347   5.074 -0.0207  1.5039 -1.3343
13354SOL    HW243017   2.133   3.477   5.133 -1.2090  0.2240  0.5412
13355SOL     OW43018   8.112   0.022   5.476  0.6044 -0.4182  0.2171
13355SOL    HW143019   8.033  -0.009   5.432  0.7565 -0.3107 -0.1384
13355SOL    HW243020   8.157   0.075   5.410  1.4741 -1.2910  0.0809
13356SOL     OW43021   1.400   2.643   6.141  0.3610  0.0424  0.5953
13356SOL    HW143022   1.398   2.578   6.211  2.5271 -0.6090  0.1167
13356SOL    HW243023   1.417   2.726   6.185  0.1933 -0.1183  0.9667
13357SOL     OW43024   4.727   3.515   1.206 -0.2643  0.1929  0.0491
13357SOL    HW143025   4.730   3.577   1.133 -2.0737  0.4027  0.1014
13357SOL    HW243026   4.693   3.565   1.279 -0.3504 -0.5114  0.5041
13358SOL     OW43027   1.463   5.878   5.262 -0.1181 -0.7833  0.6517
13358SOL    HW143028   1.485   5.930   5.340  0.0500 -1.1037  0.8209
13358SOL    HW243029   1.430   5.942   5.199  0.9144 -0.3396  0.5449
13359SOL     OW43030   5.883   5.279   5.308 -0.2210  0.0321  0.4301
13359SOL    HW143031   5.793   5.262   5.283 -0.3139  1.3185 -0.2047
13359SOL    HW243032   5.907   5.358   5.260  2.9371 -2.9368 -3.6994
13360SOL     OW43033   3.404   0.700   2.782  0.0630 -0.1182  0.1266
13360SOL    HW143034   3.318   0.707   2.823 -0.0856 -0.6913 -0.0692
13360SOL    HW243035   3.419   0.785   2.741 -1.4262 -0.6922 -1.7753
13361SOL     OW43036   2.830   5.230   5.370  0.1754  0.5054  0.1399
13361SOL    HW143037   2.872   5.161   5.318  0.7194  1.8016 -1.2231
13361SOL    HW243038   2.842   5.309   5.318 -2.2730  1.2829  0.6474
13362SOL     OW43039   0.596   7.372   2.237  0.4097 -0.1067 -0.4684
13362SOL    HW143040   0.664   7.340   2.297  1.7589  1.2429 -1.2155
13362SOL    HW243041   0.616   7.329   2.154  1.0468  1.1245 -0.9701
13363SOL     OW43042   2.648   3.885   1.252  0.2903 -0.5966 -0.0789
13363SOL    HW143043   2.683   3.801   1.282  1.1377 -0.8727 -1.7455
13363SOL    HW243044   2.700   3.950   1.298  0.1596 -0.9792  0.6307
13364SOL     OW43045   7.646   4.518   3.325 -0.7180 -0.2979  0.2593
13364SOL    HW143046   7.699   4.591   3.293 -0.1736 -0.2467  1.2155
13364SOL    HW243047   7.600   4.555   3.401  1.0127 -1.4060  1.9437
13365SOL     OW43048   0.445   1.577   6.043 -0.8336  0.3968  0.3930
13365SOL    HW143049   0.357   1.580   6.080 -1.3850  1.2903 -0.9118
13365SOL    HW243050   0.485   1.500   6.082 -2.0532  0.2016  1.3109
13366SOL     OW43051   1.006   7.686   0.616  0.3450  0.6445  0.3675
13366SOL    HW143052   1.013   7.766   0.565 -0.4477 -0.4955 -1.6543
13366SOL    HW243053   1.096   7.667   0.644  0.4671  2.4519  1.2999
13367SOL     OW43054   3.150   1.293   6.348  0.4517  0.5352 -0.2400
13367SOL    HW143055   3.118   1.231   6.282  0.2579  1.0705 -0.6642
13367SOL    HW243056   3.129   1.253   6.432  0.1576  0.1174 -0.5121
13368SOL     OW43057   7.835   2.174   0.869 -0.0485 -0.4505 -0.1861
13368SOL    HW143058   7.896   2.190   0.797 -0.0172 -1.9350 -0.5273
13368SOL    HW243059   7.805   2.084   0.855  1.2370 -1.4317  2.5699
13369SOL     OW43060   1.925   3.393   3.603 -0.6952 -0.3365  0.4536
13369SOL    HW143061   1.903   3.359   3.690  0.3404 -1.7134  0.2074
13369SOL    HW243062   1.885   3.480   3.601 -1.0238 -0.4047  2.1779
13370SOL     OW43063   7.393   7.401   6.987  0.3258  0.4259 -0.9232
13370SOL    HW143064   7.428   7.458   7.056  0.3099 -1.1582  0.4465
13370SOL    HW243065   7.305   7.434   6.972 -0.0720  0.1484  0.6160
13371SOL     OW43066   3.247   1.511   5.785 -0.0229 -0.3119  0.0565
13371SOL    HW143067   3.180   1.515   5.717 -0.5763  0.9071  0.6427
13371SOL    HW243068   3.318   1.459   5.746 -0.9207 -0.8576 -0.8994
13372SOL     OW43069   0.163   1.587   0.088  0.3166 -0.0008 -0.2291
13372SOL    HW143070   0.196   1.641   0.016  0.6632  0.4664  0.2688
13372SOL    HW243071   0.162   1.646   0.164  0.9007 -0.7436  0.3756
13373SOL     OW43072   2.939   2.533   1.742  0.2403  0.2576 -0.0121
13373SOL    HW143073   3.009   2.558   1.804  0.2762  2.8811 -1.0064
13373SOL    HW243074   2.986   2.502   1.665  0.3427  1.6843 -0.5459
13374SOL     OW43075   2.947   1.506   2.778 -0.2462 -0.2028  0.4194
13374SOL    HW143076   2.988   1.529   2.861 -0.8264 -0.2863  0.7372
13374SOL    HW243077   2.948   1.410   2.777 -0.3056 -0.2024  0.3626
13375SOL     OW43078   7.061   8.037   0.313  0.4678 -0.0962 -0.5501
13375SOL    HW143079   7.014   7.974   0.259  2.2564 -1.3597 -0.7193
13375SOL    HW243080   7.087   7.988   0.391  0.8655  0.7528 -0.1330
13376SOL     OW43081   5.405   2.372   7.355 -0.1410  0.2500 -0.1518
13376SOL    HW143082   5.310   2.363   7.349 -0.2581  0.7677  0.7904
13376SOL    HW243083   5.422   2.382   7.448  0.5324  3.2544 -0.5035
13377SOL     OW43084   7.239   2.444   2.645 -0.3646  0.1506  0.1916
13377SOL    HW143085   7.258   2.357   2.680  2.7025 -0.2492 -2.0349
13377SOL    HW243086   7.160   2.432   2.592 -2.3841 -0.2113  3.0394
13378SOL     OW43087   2.115   3.820   4.502  0.3710 -0.0509 -0.0638
13378SOL    HW143088   2.134   3.802   4.594 -2.7744 -1.1974  0.4920
13378SOL    HW243089   2.058   3.897   4.503 -0.8491 -0.9033 -0.8646
13379SOL     OW43090   6.545   7.477   6.842 -0.7997  0.1428 -0.3931
13379SOL    HW143091   6.607   7.547   6.865  1.3066 -1.7326 -0.0577
13379SOL    HW243092   6.485   7.474   6.917  0.1312  0.4600  0.3866
13380SOL     OW43093   0.137   4.511   1.577 -0.4296  0.2334 -0.2483
13380SOL    HW143094   0.209   4.468   1.531 -0.8665  0.6045 -1.3163
13380SOL    HW243095   0.151   4.604   1.561  0.3781  0.5350  1.8447
13381SOL     OW43096   4.526   6.572   0.329 -0.7723  0.0868  0.3703
13381SOL    HW143097   4.444   6.615   0.305 -0.9247 -0.3427  0.0993
13381SOL    HW243098   4.539   6.506   0.260 -0.9512 -0.8320  1.1804
13382SOL     OW43099   5.062   0.430   0.524  0.4793 -0.0142 -0.6596
13382SOL    HW143100   5.098   0.358   0.575  1.2980 -0.0991 -1.3282
13382SOL    HW243101   5.082   0.408   0.433  0.5900  0.9614 -0.8904
13383SOL     OW43102   1.424   2.793   7.833  0.1254 -0.3079 -0.2875
13383SOL    HW143103   1.335   2.810   7.863  0.1266  1.0298 -0.9463
13383SOL    HW243104   1.433   2.847   7.754  0.8856 -1.9109 -1.3398
13384SOL     OW43105   0.352   7.466   5.754  0.1974 -0.3756  0.2084
13384SOL    HW143106   0.350   7.405   5.680  0.0389  1.9424 -1.8138
13384SOL    HW243107   0.436   7.510   5.746 -0.8528  1.6595 -0.1686
13385SOL     OW43108   2.735   4.427   6.245 -0.5034  0.1609 -0.0190
13385SOL    HW143109   2.650   4.414   6.202 -1.6631 -0.3551  2.2721
13385SOL    HW243110   2.778   4.342   6.237  0.1245  0.6192 -1.7838
13386SOL     OW43111   5.899   4.850   6.165 -0.7822 -0.2451  0.0498
13386SOL    HW143112   5.811   4.834   6.131 -1.1654  2.5262 -0.4836
13386SOL    HW243113   5.891   4.835   6.259 -1.8316 -0.0352  0.0082
13387SOL     OW43114   0.852   7.916   8.040 -0.1551  0.2138 -0.1239
13387SOL    HW143115   0.884   7.862   8.112  0.7782  0.1882 -0.5347
13387SOL    HW243116   0.912   7.991   8.038 -1.6997  1.5345  0.7362
13388SOL     OW43117   6.305   5.943   3.354 -0.1887 -0.2307  0.1846
13388SOL    HW143118   6.361   5.964   3.429  0.3127 -0.7733 -0.0281
13388SOL    HW243119   6.357   5.882   3.302 -1.3506 -1.5263  0.4809
13389SOL     OW43120   0.087   1.136   0.732  0.2479  0.2043 -0.1444
13389SOL    HW143121   0.025   1.072   0.767 -0.4748  0.3830 -1.0598
13389SOL    HW243122   0.143   1.085   0.673 -0.6028  0.4818 -1.2055
13390SOL     OW43123   2.108   7.561   5.937 -0.6491  0.0539 -0.7442
13390SOL    HW143124   2.019   7.595   5.933 -0.4673  0.4328 -2.0027
13390SOL    HW243125   2.147   7.586   5.853  0.9329  0.7072  0.1426
13391SOL     OW43126   2.055   2.057   0.650 -0.0784  0.0103  0.6592
13391SOL    HW143127   2.146   2.069   0.675 -0.1086  2.3723 -0.1288
13391SOL    HW243128   2.005   2.099   0.720 -0.4367  0.5425  0.1034
13392SOL     OW43129   1.218   7.127   2.734  0.5401 -0.2800  0.0898
13392SOL    HW143130   1.156   7.200   2.744 -0.4722 -0.9665 -0.8707
13392SOL    HW243131   1.176   7.070   2.670  2.1704 -0.8056 -0.5524
13393SOL     OW43132   0.278   2.601   5.515 -0.5921  0.0351  0.2874
13393SOL    HW143133   0.286   2.521   5.567 -0.1570 -0.3293 -0.3257
13393SOL    HW243134   0.194   2.593   5.470  0.2585 -0.9597 -1.1972
13394SOL     OW43135   7.780   6.926   2.223 -0.6540  0.2887 -0.0245
13394SOL    HW143136   7.745   6.931   2.312 -1.2672  1.3027 -0.3013
13394SOL    HW243137   7.840   7.001   2.217 -0.1719 -0.1166 -0.2811
13395SOL     OW43138   7.496   0.266   2.855  0.3707  0.0801 -0.0360
13395SOL    HW143139   7.539   0.206   2.915  0.8391  0.0506 -0.3956
13395SOL    HW243140   7.531   0.244   2.769 -1.0533 -0.5540 -0.4751
13396SOL     OW43141   4.624   0.694   5.092 -0.7271  0.5518 -0.2146
13396SOL    HW143142   4.538   0.669   5.125  0.3843 -1.8944  1.1520
13396SOL    HW243143   4.633   0.648   5.009 -0.5978  0.4594 -0.1512
13397SOL     OW43144   6.571   2.167   5.494 -0.1994  0.0616  0.1888
13397SOL    HW143145   6.517   2.137   5.420  0.3213  0.4586 -0.3642
13397SOL    HW243146   6.551   2.106   5.564 -1.3377  0.1624 -0.0169
13398SOL     OW43147   0.713   0.981   7.749 -0.6067 -0.0595  0.0769
13398SOL    HW143148   0.764   0.972   7.668 -0.6460 -1.5327  0.1873
13398SOL    HW243149   0.641   0.919   7.739 -2.4958  2.0355 -0.0999
13399SOL     OW43150   7.855   1.755   4.005  0.3066 -0.2995 -0.6667
13399SOL    HW143151   7.938   1.800   3.993 -1.3296  3.5013  0.7607
13399SOL    HW243152   7.808   1.768   3.923  0.2645 -0.5181 -0.6791
13400SOL     OW43153   0.851   2.547   5.968 -0.3094  0.0939 -0.8653
13400SOL    HW143154   0.838   2.454   5.953  0.0193  0.1277 -1.4141
13400SOL    HW243155   0.936   2.552   6.013 -0.3892  0.1221 -0.7165
13401SOL     OW43156   1.054   0.110   3.332  0.7063  0.7186 -0.1905
13401SOL    HW143157   1.128   0.131   3.390  0.2416  0.3948  0.5365
13401SOL    HW243158   0.997   0.186   3.337 -0.9890 -0.5564  2.4619
13402SOL     OW43159   0.733   6.349   0.170  0.3700 -0.4584 -0.2125
13402SOL    HW143160   0.786   6.280   0.130  0.1974 -0.6085 -0.1878
13402SOL    HW243161   0.795   6.403   0.218  0.4651 -0.7848  0.0319
13403SOL     OW43162   6.198   3.669   7.414  0.4090 -0.3066  0.1627
13403SOL    HW143163   6.138   3.627   7.475  0.4678  1.4399  1.4874
13403SOL    HW243164   6.156   3.659   7.328 -0.5268 -1.2839  0.7103
13404SOL     OW43165   4.749   3.574   7.788  0.6581  0.0614 -0.6586
13404SOL    HW143166   4.743   3.655   7.839 -0.0195 -0.4578  0.1090
13404SOL    HW243167   4.830   3.584   7.738  0.5795  1.2183 -0.5993
13405SOL     OW43168   5.813   5.746   4.815  0.2675  0.3643 -0.5304
13405SOL    HW143169   5.771   5.664   4.839 -1.2389  0.8222 -1.4741
13405SOL    HW243170   5.906   5.733   4.835  0.1031 -1.6818 -0.9611
13406SOL     OW43171   5.104   2.195   3.710 -0.0869 -0.0473 -1.0237
13406SOL    HW143172   5.071   2.123   3.764  0.0278  0.5039 -0.2011
13406SOL    HW243173   5.049   2.270   3.734  0.3545  0.3467 -1.2306
13407SOL     OW43174   6.075   3.933   3.656  0.7783  0.0645  0.6071
13407SOL    HW143175   6.036   3.852   3.624 -0.2365  1.3264 -1.6593
13407SOL    HW243176   6.032   3.950   3.740 -0.6771 -0.6075  0.0282
13408SOL     OW43177   7.512   0.029   3.143 -0.2203  0.0282  0.1137
13408SOL    HW143178   7.552  -0.048   3.184 -1.3177 -0.8202 -0.3863
13408SOL    HW243179   7.504   0.007   3.051  0.7158  1.3003 -0.3130
13409SOL     OW43180   3.640   6.058   7.542  0.4107 -0.2296 -0.1043
13409SOL    HW143181   3.725   6.095   7.519 -0.9297  2.5482 -1.1396
13409SOL    HW243182   3.637   5.974   7.497  1.7896  0.5949 -1.8764
13410SOL     OW43183   6.940   4.369   5.636  0.0904 -0.0875  0.1294
13410SOL    HW143184   6.863   4.423   5.616  0.4717  0.5594  0.3799
13410SOL    HW243185   6.906   4.279   5.641 -0.3081 -0.0886 -1.8043
13411SOL     OW43186   7.604   7.030   4.816  0.2278 -0.3343  0.1624
13411SOL    HW143187   7.578   6.981   4.894 -3.1970 -0.4959 -0.8813
13411SOL    HW243188   7.634   7.115   4.849 -0.8368 -0.5150  1.7132
13412SOL     OW43189   3.886   5.981   7.808 -0.6509  0.2892  0.5274
13412SOL    HW143190   3.813   5.999   7.868 -1.2097 -0.9242  0.2348
13412SOL    HW243191   3.964   5.991   7.862 -1.0337  1.2763  0.9303
13413SOL     OW43192   5.300   4.142   6.703 -0.1046 -0.2136 -0.2225
13413SOL    HW143193   5.220   4.120   6.751  0.3657  0.9579  1.1654
13413SOL    HW243194   5.361   4.172   6.770  1.9254 -2.0796 -1.0993
13414SOL     OW43195   6.759   2.475   2.502  0.4997 -0.0844  0.2143
13414SOL    HW143196   6.683   2.417   2.499  0.6230 -0.2595  0.4153
13414SOL    HW243197   6.756   2.522   2.419 -0.2218  0.4228  0.5209
13415SOL     OW43198   4.957   4.955   2.560  0.2863 -0.1620 -0.5590
13415SOL    HW143199   4.962   5.048   2.538  1.1438  0.0147  0.3165
13415SOL    HW243200   5.003   4.947   2.643  1.9061 -1.6478 -1.5207
13416SOL     OW43201   1.072   7.912   2.346 -0.4321 -0.3075  0.1192
13416SOL    HW143202   1.089   7.944   2.434  0.8037  0.2349 -0.2930
13416SOL    HW243203   1.041   7.822   2.358 -0.3743 -0.2045  1.0970
13417SOL     OW43204   7.476   2.208   5.106 -0.0933 -0.4113  0.2852
13417SOL    HW143205   7.557   2.231   5.060 -1.3099  0.9490 -1.3161
13417SOL    HW243206   7.436   2.293   5.128 -1.5035 -1.0349  0.2513
13418SOL     OW43207   4.120   1.105   1.701  0.1656  0.3601 -0.2220
13418SOL    HW143208   4.148   1.068   1.785 -2.3635  0.8082  0.9111
13418SOL    HW243209   4.027   1.123   1.713 -0.1226  1.0509 -2.9404
13419SOL     OW43210   6.986   6.325   1.343 -0.2345  0.0573 -0.2188
13419SOL    HW143211   6.941   6.241   1.338  0.3885 -0.2212 -3.1983
13419SOL    HW243212   6.921   6.389   1.315 -0.5165  0.5429  1.4309
13420SOL     OW43213   0.517   5.729   0.812  0.1019  0.6761  0.5129
13420SOL    HW143214   0.545   5.641   0.837  1.8524  0.9386 -0.3917
13420SOL    HW243215   0.466   5.717   0.733 -0.7132  0.3817  1.0666
13421SOL     OW43216   2.353   5.243   5.216  0.2379 -0.0075  0.3318
13421SOL    HW143217   2.404   5.228   5.136 -0.3411 -1.7759  0.2466
13421SOL    HW243218   2.418   5.268   5.281  1.5302 -3.3320  0.5413
13422SOL     OW43219   3.155   2.671   5.334 -0.2382  0.2877  0.2664
13422SOL    HW143220   3.062   2.651   5.327 -0.0783 -0.4626  0.1642
13422SOL    HW243221   3.199   2.590   5.307  0.4423  0.6719  0.1948
13423SOL     OW43222   4.975   4.825   1.691 -0.3447  0.2286  0.2830
13423SOL    HW143223   4.942   4.899   1.742 -0.9283  0.0477  0.1768
13423SOL    HW243224   4.896   4.775   1.667 -0.0348  0.0256 -0.3478
13424SOL     OW43225   1.801   0.690   7.165 -0.4393  0.1201 -0.0350
13424SOL    HW143226   1.716   0.734   7.169  0.1189  1.5002 -2.0099
13424SOL    HW243227   1.859   0.754   7.125  1.0519 -1.5360 -0.6136
13425SOL     OW43228   3.913   2.711   3.199 -0.0350 -0.5935  0.5189
13425SOL    HW143229   3.908   2.617   3.183 -0.3222 -0.8149  1.7771
13425SOL    HW243230   3.872   2.722   3.285 -0.3338  0.7270  0.2249
13426SOL     OW43231   6.698   4.502   2.197  0.0634 -0.1933  0.1612
13426SOL    HW143232   6.702   4.419   2.150 -0.8921 -0.0277 -0.2398
13426SOL    HW243233   6.624   4.491   2.257 -0.1590  0.4114  0.0018
13427SOL     OW43234   4.130   2.268   7.762 -0.3228  0.2971 -0.5037
13427SOL    HW143235   4.064   2.202   7.786 -0.0460  0.1919 -0.0292
13427SOL    HW243236   4.199   2.258   7.827 -0.2431  1.0144 -0.4743
13428SOL     OW43237   1.194   0.891   3.274  0.2823  0.3252 -0.1531
13428SOL    HW143238   1.214   0.970   3.324  0.8480  0.5252 -0.6750
13428SOL    HW243239   1.256   0.826   3.308 -0.4380 -0.0026  0.5387
13429SOL     OW43240   0.853   6.988   0.566 -0.0443  0.1556 -0.2858
13429SOL    HW143241   0.847   7.079   0.594  1.7276  0.1806  0.1130
13429SOL    HW243242   0.762   6.960   0.556 -0.6517  1.4576  1.2082
13430SOL     OW43243   1.516   7.218   6.486 -0.0949 -0.5884 -0.2338
13430SOL    HW143244   1.440   7.199   6.542 -0.3975 -1.1471 -0.8219
13430SOL    HW243245   1.499   7.305   6.452  0.6955  0.2893  1.5089
13431SOL     OW43246   7.758   7.042   3.251  0.4763  0.7170 -0.1162
13431SOL    HW143247   7.784   7.025   3.341 -0.8980  1.1811  0.4013
13431SOL    HW243248   7.819   7.110   3.221  1.0260  0.4688  0.4160
13432SOL     OW43249   7.935   3.431   4.235  0.1105  0.2568 -0.5001
13432SOL    HW143250   7.844   3.407   4.254  0.1840 -0.1332 -0.6150
13432SOL    HW243251   7.985   3.395   4.308  0.5545 -2.3870 -1.9521
13433SOL     OW43252   4.148   3.089   3.779  0.0908 -0.2202  0.4489
13433SOL    HW143253   4.060   3.074   3.747  0.5221  0.2634 -1.0293
13433SOL    HW243254   4.199   3.114   3.702  1.7764 -1.4874  1.0647
13434SOL     OW43255   6.963   0.057   1.374  0.5778 -0.3618  0.0587
13434SOL    HW143256   6.945   0.108   1.295 -3.3310 -0.8578  0.4467
13434SOL    HW243257   6.984   0.123   1.441  1.5062  0.2247 -0.7828
13435SOL     OW43258   4.652   3.065   0.136  0.2032 -0.0216  0.3676
13435SOL    HW143259   4.692   3.030   0.215 -0.9674  0.6611  1.2854
13435SOL    HW243260   4.677   3.004   0.067  0.2027 -1.3126  1.4840
13436SOL     OW43261   4.026   2.410   0.295  0.2539 -0.5308 -0.0718
13436SOL    HW143262   3.996   2.464   0.222  1.0190  0.5980  0.4230
13436SOL    HW243263   3.973   2.438   0.370  0.3820 -0.7536  0.1059
13437SOL     OW43264   4.973   1.033   5.462 -0.0628  0.1474  0.3685
13437SOL    HW143265   5.043   1.060   5.522 -0.6408  1.2285  0.5678
13437SOL    HW243266   4.915   1.109   5.457 -2.2615 -1.3298  1.6720
13438SOL     OW43267   6.079   1.245   7.747 -0.3962  0.2901 -0.2388
13438SOL    HW143268   6.001   1.300   7.749  0.7464  1.9739  0.1660
13438SOL    HW243269   6.122   1.267   7.664 -0.9005 -1.4760 -1.0145
13439SOL     OW43270   5.724   3.983   5.596 -0.3553  0.2319  0.1056
13439SOL    HW143271   5.729   4.057   5.536 -2.1015 -0.0637 -0.4881
13439SOL    HW243272   5.720   3.906   5.539 -1.7226 -0.0726  0.5590
13440SOL     OW43273   6.986   2.509   0.440  0.6840  0.1848 -0.0341
13440SOL    HW143274   6.984   2.509   0.536  1.4952  0.7906 -0.0057
13440SOL    HW243275   6.950   2.424   0.416  0.7038 -0.0789  0.8234
13441SOL     OW43276   3.920   7.769   5.204 -0.4792  0.0205  0.2746
13441SOL    HW143277   3.861   7.696   5.184  0.6591 -0.9527  0.3805
13441SOL    HW243278   3.983   7.770   5.133  0.0308  0.3436  0.7232
13442SOL     OW43279   1.686   1.213   7.158 -0.4195  0.2914  0.1050
13442SOL    HW143280   1.776   1.181   7.162 -0.5412  0.0413  1.1555
13442SOL    HW243281   1.683   1.265   7.078  0.7982  0.7178  0.3125
13443SOL     OW43282   1.671   0.182   2.492 -0.1049  0.2994  0.4979
13443SOL    HW143283   1.690   0.274   2.509 -1.7307  0.9050 -0.6952
13443SOL    HW243284   1.630   0.151   2.572 -0.6884  0.9866  0.4812
13444SOL     OW43285   5.509   1.440   7.245  0.0945 -0.3223  0.3602
13444SOL    HW143286   5.557   1.523   7.248 -0.8134  0.2202  0.5794
13444SOL    HW243287   5.450   1.445   7.320 -0.9741 -0.5188 -0.4464
13445SOL     OW43288   2.636   0.147   6.858  0.2735 -0.4008  0.1340
13445SOL    HW143289   2.617   0.175   6.947  0.3853 -2.6136  0.9227
13445SOL    HW243290   2.646   0.052   6.864  2.0357 -0.4292 -1.9289
13446SOL     OW43291   3.772   5.644   2.614  0.3993  0.0061 -0.3676
13446SOL    HW143292   3.735   5.726   2.649  0.1332 -0.4027  0.3173
13446SOL    HW243293   3.866   5.662   2.607  0.8152 -0.5881  2.5991
13447SOL     OW43294   0.654   5.896   1.208  0.6863  0.2909  0.5683
13447SOL    HW143295   0.600   5.818   1.219 -0.6791  1.3511  1.9409
13447SOL    HW243296   0.615   5.943   1.134  0.1890  0.6620  1.0539
13448SOL     OW43297   1.134   4.673   6.208  0.2014 -0.8160 -0.5094
13448SOL    HW143298   1.175   4.604   6.156  0.7664 -0.2678 -0.7990
13448SOL    HW243299   1.203   4.703   6.267  0.4465  0.5955 -1.4783
13449SOL     OW43300   1.970   5.617   3.644  0.1317 -0.4438 -0.6554
13449SOL    HW143301   1.944   5.526   3.659  2.0673 -0.8550  0.4855
13449SOL    HW243302   1.924   5.642   3.563 -0.6473 -2.3328 -0.8403
13450SOL     OW43303   6.175   7.028   7.090  0.2838 -0.6057 -0.0353
13450SOL    HW143304   6.252   7.062   7.137  0.4840 -1.7507  0.4831
13450SOL    HW243305   6.142   7.104   7.042  0.5243  0.4207  1.3532
13451SOL     OW43306   2.955   7.991   5.149 -0.1279 -0.0886  0.3168
13451SOL    HW143307   3.007   8.017   5.226  0.9758 -0.7553 -0.1734
13451SOL    HW243308   3.021   7.967   5.083 -1.0605  0.1816 -0.7390
13452SOL     OW43309   4.180   7.964   2.813 -0.5730 -0.4818  0.1358
13452SOL    HW143310   4.109   8.027   2.823  0.6323  0.8238  0.8130
13452SOL    HW243311   4.213   7.949   2.902 -1.8768 -3.4118  0.2436
13453SOL     OW43312   6.199   6.219   1.245 -0.1065 -0.4220  0.0477
13453SOL    HW143313   6.108   6.191   1.254 -0.2567  0.3438  1.2015
13453SOL    HW243314   6.213   6.275   1.321  1.6845 -1.4561  0.5196
13454SOL     OW43315   0.734   1.423   2.709 -0.0594 -0.1041  0.0297
13454SOL    HW143316   0.717   1.372   2.788  0.6636  1.0891  0.9874
13454SOL    HW243317   0.823   1.399   2.683 -0.2828 -0.4687 -0.4157
13455SOL     OW43318   7.786   1.193   0.401 -0.3707  0.1011  0.7451
13455SOL    HW143319   7.746   1.279   0.391  0.6045  1.0826  4.0397
13455SOL    HW243320   7.837   1.199   0.482  1.1492 -3.0689  0.1992
13456SOL     OW43321   4.955   5.171   6.211 -0.3363  0.0479  0.0763
13456SOL    HW143322   4.920   5.104   6.270 -1.9205  0.9255  0.1733
13456SOL    HW243323   4.972   5.246   6.268 -1.1280  0.6375 -0.4489
13457SOL     OW43324   0.329   3.651   1.205  0.0526  0.3876  0.0677
13457SOL    HW143325   0.316   3.583   1.139  2.1515  1.7020 -1.8209
13457SOL    HW243326   0.243   3.661   1.246 -1.8881  0.7214 -3.6608
13458SOL     OW43327   0.481   0.867   2.223  0.6850  0.2019  0.0020
13458SOL    HW143328   0.461   0.960   2.213  0.5395  0.0496 -1.2483
13458SOL    HW243329   0.395   0.825   2.225  0.7784 -0.0644 -1.2176
13459SOL     OW43330   2.141   2.342   6.775  0.5793 -0.5738 -0.7351
13459SOL    HW143331   2.164   2.411   6.838 -0.3712 -0.6128 -0.3354
13459SOL    HW243332   2.203   2.272   6.793  0.7008 -0.3492 -0.2383
13460SOL     OW43333   0.093   4.100   7.233  0.0093 -0.2495 -0.5295
13460SOL    HW143334   0.063   4.032   7.293 -1.0755  0.1095 -0.6448
13460SOL    HW243335   0.104   4.055   7.149  1.5892 -0.7656 -0.0784
13461SOL     OW43336   3.361   1.189   4.438 -0.0897 -0.0328  0.4323
13461SOL    HW143337   3.378   1.096   4.455  1.2005  0.2116  0.6230
13461SOL    HW243338   3.444   1.221   4.403 -0.8093  0.8497 -0.5078
13462SOL     OW43339   4.429   4.998   2.047 -0.0109  0.0794 -0.2888
13462SOL    HW143340   4.342   5.004   2.086  0.0774  0.6918 -0.1862
13462SOL    HW243341   4.419   4.932   1.978 -0.2636 -0.7280  0.4957
13463SOL     OW43342   7.837   1.997   1.135 -0.4300 -0.0301 -0.4747
13463SOL    HW143343   7.844   1.904   1.112 -0.0629 -1.0554  3.0481
13463SOL    HW243344   7.903   2.040   1.081  1.9591 -2.4662  0.2437
13464SOL     OW43345   2.193   1.050   5.780  0.8512 -0.2395  0.5937
13464SOL    HW143346   2.245   0.993   5.835  1.2856 -0.5795 -0.1537
13464SOL    HW243347   2.198   1.136   5.823  2.2165 -0.2063  0.4201
13465SOL     OW43348   4.678   1.226   0.309  0.0594  0.1722  0.0656
13465SOL    HW143349   4.702   1.253   0.220  1.0137 -0.4595  0.1142
13465SOL    HW243350   4.738   1.274   0.365 -0.8183  0.8871  0.4077
13466SOL     OW43351   4.029   2.464   5.645  0.0237  0.2596 -0.6952
13466SOL    HW143352   3.987   2.384   5.675  2.0834 -0.5205  0.2814
13466SOL    HW243353   4.107   2.434   5.598  0.9209  1.6738 -0.1759
13467SOL     OW43354   4.733   5.360   5.449 -0.3998 -0.1369 -0.3881
13467SOL    HW143355   4.693   5.314   5.523 -1.7801  0.2452 -0.8815
13467SOL    HW243356   4.815   5.313   5.434  0.0238 -0.0832  1.5199
13468SOL     OW43357   5.666   5.842   2.686  0.6521 -0.2405 -0.8892
13468SOL    HW143358   5.677   5.936   2.673 -0.2164 -0.2177 -1.6093
13468SOL    HW243359   5.644   5.833   2.779  1.9720  0.1296 -0.5262
13469SOL     OW43360   3.272   1.433   5.432 -0.7221 -0.1382  0.2531
13469SOL    HW143361   3.199   1.482   5.470 -0.0603  2.5227 -1.6262
13469SOL    HW243362   3.239   1.402   5.348  0.5059  1.9174 -1.0536
13470SOL     OW43363   7.582   2.526   4.158  0.2032 -0.2451 -0.4421
13470SOL    HW143364   7.561   2.581   4.233  0.9628  0.5002 -0.7569
13470SOL    HW243365   7.577   2.437   4.191  0.5177  0.0692  0.4841
13471SOL     OW43366   5.926   4.772   5.293  0.4736 -0.1687  0.0005
13471SOL    HW143367   6.003   4.715   5.289  2.3897  1.9994  2.5167
13471SOL    HW243368   5.931   4.824   5.212  0.3105 -1.5237 -0.9204
13472SOL     OW43369   5.954   0.112   6.077 -0.2690  0.5737  0.1832
13472SOL    HW143370   5.931   0.036   6.023  3.2138 -0.9022  0.4746
13472SOL    HW243371   5.961   0.184   6.014  0.6442 -0.4057 -0.8964
13473SOL     OW43372   6.937   2.785   6.779  0.8551 -0.0483 -0.5451
13473SOL    HW143373   6.910   2.709   6.728 -0.9847 -0.1200  0.4440
13473SOL    HW243374   6.911   2.764   6.869 -0.6571  2.1095 -0.3982
13474SOL     OW43375   0.066   3.045   6.327  0.1419 -0.4619  0.4239
13474SOL    HW143376   0.043   3.132   6.357  1.1472 -0.1149  0.2248
13474SOL    HW243377   0.160   3.049   6.310  0.4136 -1.8483  1.3567
13475SOL     OW43378   6.242   6.574   4.243  0.3562 -0.1817 -0.0147
13475SOL    HW143379   6.261   6.640   4.310  0.1302  1.0742 -1.1393
13475SOL    HW243380   6.148   6.561   4.249  0.0701  1.1268 -1.0971
13476SOL     OW43381   7.648   6.783   6.980  0.4715 -0.5587 -0.4026
13476SOL    HW143382   7.624   6.766   7.071 -0.6439  2.6324  0.0293
13476SOL    HW243383   7.572   6.754   6.929 -0.2555  0.5253  0.0288
13477SOL     OW43384   4.191   3.262   0.602  0.1053 -0.1687  0.4859
13477SOL    HW143385   4.150   3.336   0.559 -1.6729 -0.3891  1.6954
13477SOL    HW243386   4.119   3.201   0.620  1.3332 -1.6799  0.5532
13478SOL     OW43387   3.103   2.009   2.024  0.2094 -0.1715 -0.2459
13478SOL    HW143388   3.192   1.995   2.056  0.6797  0.8527 -1.0575
13478SOL    HW243389   3.069   2.080   2.078 -0.1848 -0.6778  0.1788
13479SOL     OW43390   6.869   6.369   7.021  0.0168 -0.2860  0.5105
13479SOL    HW143391   6.828   6.382   7.106 -1.6082  2.2798 -0.5775
13479SOL    HW243392   6.799   6.336   6.965  0.7101 -0.5611 -0.2218
13480SOL     OW43393   3.603   7.583   2.845  0.4048 -0.2069  0.1927
13480SOL    HW143394   3.616   7.654   2.907 -0.6046 -0.2269  0.4412
13480SOL    HW243395   3.508   7.575   2.837  0.4621 -2.0366  0.7854
13481SOL     OW43396   6.558   4.704   7.468 -0.0078  0.0357 -0.0893
13481SOL    HW143397   6.534   4.718   7.377 -0.1266 -1.0206 -0.2318
13481SOL    HW243398   6.490   4.749   7.518 -0.8840 -0.7900 -0.5083
13482SOL     OW43399   1.682   5.198   1.057  0.2101 -0.4161  0.1344
13482SOL    HW143400   1.690   5.166   0.967 -0.5385 -1.3054  0.3642
13482SOL    HW243401   1.628   5.133   1.101 -0.6525  0.7423  0.8600
13483SOL     OW43402   1.481   5.117   1.762 -0.2525  0.2652  0.7078
13483SOL    HW143403   1.425   5.066   1.821 -0.7031 -1.1761 -0.8846
13483SOL    HW243404   1.424   5.140   1.689  0.4775  1.3956  0.4693
13484SOL     OW43405   6.426   1.236   1.265 -0.3972 -0.0430  0.1147
13484SOL    HW143406   6.508   1.272   1.298 -0.8805 -0.0733  1.4459
13484SOL    HW243407   6.381   1.205   1.344 -1.4171 -0.5779 -0.6557
13485SOL     OW43408   8.001   7.717   6.298 -0.3686 -0.2551  0.0547
13485SOL    HW143409   8.057   7.781   6.341  0.5050 -0.5943 -0.5443
13485SOL    HW243410   7.929   7.702   6.359  1.1680 -1.2350  1.7292
13486SOL     OW43411   2.125   0.226   7.127 -0.7000  0.2863 -1.1688
13486SOL    HW143412   2.071   0.283   7.181 -0.2160 -1.2016  1.0121
13486SOL    HW243413   2.212   0.267   7.130 -0.8353  0.6031 -1.4650
13487SOL     OW43414   4.711   5.906   7.059 -0.1870 -0.1265 -0.2209
13487SOL    HW143415   4.776   5.946   7.001  0.5742  0.8630  1.2557
13487SOL    HW243416   4.735   5.813   7.063  1.4733  0.3109  0.6854
13488SOL     OW43417   1.727   4.453   2.959  0.1616  0.1625  0.2869
13488SOL    HW143418   1.685   4.367   2.954 -0.1815  0.3569 -0.2874
13488SOL    HW243419   1.694   4.491   3.040 -1.4572  0.6473 -0.5597
13489SOL     OW43420   7.109   6.665   3.356 -0.2171 -0.4304  0.4641
13489SOL    HW143421   7.098   6.758   3.338  1.5191 -0.3726 -0.5698
13489SOL    HW243422   7.143   6.661   3.445  0.9623  0.0555  0.0597
13490SOL     OW43423   5.659   1.637   0.297 -0.0261 -0.1199  0.2910
13490SOL    HW143424   5.639   1.599   0.212  3.0325 -1.4832  0.0240
13490SOL    HW243425   5.746   1.675   0.287  0.7832 -0.9949  2.9580
13491SOL     OW43426   2.511   5.262   4.977 -1.0024 -0.2333  0.2696
13491SOL    HW143427   2.458   5.318   4.920 -1.0178 -0.8762 -0.3547
13491SOL    HW243428   2.575   5.322   5.016  0.5656 -0.1321 -2.2514
13492SOL     OW43429   3.385   8.004   8.112  0.1884 -0.3726 -0.3646
13492SOL    HW143430   3.416   7.928   8.161  0.8122  0.0875 -0.0437
13492SOL    HW243431   3.458   8.065   8.113 -0.3713  0.3108 -0.4695
13493SOL     OW43432   6.816   3.790   2.870 -0.3531 -0.0415  0.3647
13493SOL    HW143433   6.857   3.711   2.834 -0.2016  0.4141 -0.4818
13493SOL    HW243434   6.785   3.763   2.956 -0.2304 -1.0055  0.1225
13494SOL     OW43435   4.861   2.651   4.677  0.5170  0.1311  0.8359
13494SOL    HW143436   4.862   2.556   4.662 -0.6878  0.2752 -0.3385
13494SOL    HW243437   4.862   2.690   4.590 -1.1452  1.1379  1.2110
13495SOL     OW43438   1.250   0.230   3.765 -0.1701  0.1262  0.1325
13495SOL    HW143439   1.270   0.170   3.837 -0.6398 -0.1014  0.0781
13495SOL    HW243440   1.320   0.296   3.769  0.2485 -0.3164  0.3102
13496SOL     OW43441   6.525   4.689   0.048 -0.0037  0.0963 -0.0100
13496SOL    HW143442   6.569   4.715  -0.033  0.3990 -0.7634 -0.0757
13496SOL    HW243443   6.477   4.610   0.025  1.0219 -0.8144  0.8472
13497SOL     OW43444   5.112   8.095   4.502  0.1980 -0.0483 -0.0707
13497SOL    HW143445   5.029   8.083   4.456 -1.2007  1.0148  1.9922
13497SOL    HW243446   5.164   8.150   4.444 -1.5763  1.4431 -0.3501
13498SOL     OW43447   5.290   5.483   0.205  0.1925 -0.4334  0.5295
13498SOL    HW143448   5.212   5.515   0.160 -0.5620 -2.2634  0.4510
13498SOL    HW243449   5.356   5.551   0.190 -0.8057  0.2461 -1.0772
13499SOL     OW43450   3.277   6.038   3.709 -0.3552 -0.0548 -0.1802
13499SOL    HW143451   3.209   5.986   3.668  0.7085 -0.5809 -1.3552
13499SOL    HW243452   3.356   6.021   3.657  0.4600  1.2790  0.5350
13500SOL     OW43453   7.600   7.132   0.702  0.6719 -0.0832 -0.2802
13500SOL    HW143454   7.571   7.150   0.792 -1.2755  1.9747 -1.1984
13500SOL    HW243455   7.681   7.182   0.693  0.5027  0.2855  0.1624
13501SOL     OW43456   6.177   6.945   4.779  0.4836  0.0703 -0.7517
13501SOL    HW143457   6.157   6.853   4.795  1.6963 -0.1756 -0.5468
13501SOL    HW243458   6.218   6.975   4.861 -0.4885  0.9818 -0.5734
13502SOL     OW43459   2.768   1.573   7.111  1.0806 -0.2552  0.4842
13502SOL    HW143460   2.808   1.510   7.051 -0.2678 -0.0009 -0.7465
13502SOL    HW243461   2.741   1.521   7.187  0.8162 -1.0065 -0.1135
13503SOL     OW43462   2.252   1.684   2.380  0.1651 -0.7854 -0.1119
13503SOL    HW143463   2.267   1.766   2.332  1.4380  0.2577  1.9573
13503SOL    HW243464   2.320   1.625   2.348 -0.3221 -0.8412 -1.0982
13504SOL     OW43465   0.192   0.278   0.667 -0.2445  0.1961 -0.1921
13504SOL    HW143466   0.144   0.302   0.747  0.0164  1.4920 -0.3960
13504SOL    HW243467   0.283   0.302   0.686 -0.2496  0.9002 -1.0085
13505SOL     OW43468   5.628   0.854   4.101 -0.2756 -0.1106  0.6868
13505SOL    HW143469   5.689   0.905   4.153 -1.0635 -0.0755  1.6114
13505SOL    HW243470   5.672   0.770   4.085 -0.2709 -0.3620  1.9624
13506SOL     OW43471   7.500   0.029   0.387 -0.0578  0.4947  0.2056
13506SOL    HW143472   7.486   0.107   0.441 -1.6407  0.1973  0.2556
13506SOL    HW243473   7.545   0.062   0.309 -0.3207  1.3923  0.4212
13507SOL     OW43474   0.181   1.628   4.474  0.0735  0.7265  0.0256
13507SOL    HW143475   0.146   1.565   4.411  2.7903 -2.5789  1.4609
13507SOL    HW243476   0.108   1.644   4.534 -0.8832 -0.7269 -0.6645
13508SOL     OW43477   7.597   1.326   5.972 -0.1966  0.1490 -0.6268
13508SOL    HW143478   7.521   1.292   5.925 -0.6031  1.0475 -0.6342
13508SOL    HW243479   7.609   1.415   5.939 -0.5576  0.8442  1.0196
13509SOL     OW43480   5.947   1.335   4.677 -0.3011  0.8850  0.1231
13509SOL    HW143481   5.998   1.402   4.722  0.5394  0.4903 -0.2226
13509SOL    HW243482   5.874   1.383   4.636 -0.6781  1.3404  1.2861
13510SOL     OW43483   5.507   3.966   0.332  0.0888 -0.0155  0.3161
13510SOL    HW143484   5.426   4.016   0.340  0.9007  1.6019 -1.0940
13510SOL    HW243485   5.483   3.877   0.361 -1.9576  0.6086  0.6818
13511SOL     OW43486   2.769   6.240   3.008 -0.7554 -0.0001 -0.2302
13511SOL    HW143487   2.808   6.325   2.988 -1.4439  0.2829 -0.4048
13511SOL    HW243488   2.794   6.184   2.934  2.6065 -0.9935  1.4299
13512SOL     OW43489   3.206   7.960   1.935  0.3743 -0.2779 -0.3418
13512SOL    HW143490   3.199   7.975   1.841 -0.1547  1.7219 -0.0267
13512SOL    HW243491   3.124   7.916   1.960  0.5421 -0.8617 -0.8009
13513SOL     OW43492   3.909   1.647   7.648  0.2820 -0.2658  0.0852
13513SOL    HW143493   3.963   1.569   7.635 -1.1113 -1.2020 -0.2549
13513SOL    HW243494   3.824   1.614   7.677 -0.4367  1.0982 -0.3590
13514SOL     OW43495   4.053   1.717   4.053 -0.6677  0.5464 -0.3607
13514SOL    HW143496   4.002   1.751   4.126  2.1564 -0.2420  2.1586
13514SOL    HW243497   4.096   1.638   4.087  3.3623  1.9077 -1.6663
13515SOL     OW43498   5.388   7.496   2.239  0.1609  0.1014 -0.3606
13515SOL    HW143499   5.326   7.472   2.308  0.0281  2.4428  0.4354
13515SOL    HW243500   5.333   7.524   2.167  0.2387  1.5166  0.0949
13516SOL     OW43501   0.037   2.422   4.103  0.2160  0.1271  0.2794
13516SOL    HW143502   0.013   2.494   4.044 -0.7079 -0.3883  0.0065
13516SOL    HW243503  -0.037   2.415   4.163 -0.3982 -1.5325 -0.6027
13517SOL     OW43504   0.702   1.299   0.790  0.1379  0.0345  0.0863
13517SOL    HW143505   0.789   1.299   0.828 -0.2851 -0.1035  1.0923
13517SOL    HW243506   0.690   1.389   0.758  1.1173 -0.2747 -1.2236
13518SOL     OW43507   3.892   5.629   1.181  0.0279  0.3199 -0.2823
13518SOL    HW143508   3.880   5.667   1.094 -1.6510 -0.6387 -0.5061
13518SOL    HW243509   3.815   5.657   1.230 -0.4330 -1.3968  0.0440
13519SOL     OW43510   1.512   1.216   0.240 -0.3949  0.1538  0.3473
13519SOL    HW143511   1.587   1.265   0.274 -1.4619  1.7580  0.4915
13519SOL    HW243512   1.449   1.214   0.312 -0.2891 -1.7522  0.4548
13520SOL     OW43513   0.467   4.152   1.374  0.3767 -0.2741  0.0170
13520SOL    HW143514   0.559   4.124   1.372 -0.2586 -2.5894 -0.0869
13520SOL    HW243515   0.439   4.148   1.282 -0.4001 -1.8363  0.2919
13521SOL     OW43516   2.081   6.599   1.688  0.1202 -0.8830  0.4841
13521SOL    HW143517   2.040   6.682   1.711  0.6108 -0.4777 -0.0801
13521SOL    HW243518   2.061   6.541   1.762  1.4987  0.3178  1.8584
13522SOL     OW43519   7.000   1.034   2.075 -0.1736 -0.2234 -0.1146
13522SOL    HW143520   7.067   1.036   2.006 -1.1369  0.3215 -1.0670
13522SOL    HW243521   7.006   0.946   2.112  1.0942 -0.1703 -0.1448
13523SOL     OW43522   7.426   1.476   8.098 -0.0757 -0.7435  0.2238
13523SOL    HW143523   7.419   1.555   8.044  0.4035 -0.4059  0.6476
13523SOL    HW243524   7.518   1.453   8.096 -0.2796 -1.5427 -0.2364
13524SOL     OW43525   3.757   3.810   6.588 -0.0414  0.2514  0.0703
13524SOL    HW143526   3.804   3.854   6.517 -0.8209 -2.0771 -2.0081
13524SOL    HW243527   3.797   3.724   6.594 -1.4471 -0.3769  0.9518
13525SOL     OW43528   4.748   1.457   0.665 -1.0175  0.1661  0.0484
13525SOL    HW143529   4.804   1.430   0.592  0.6252 -0.2977  1.4040
13525SOL    HW243530   4.681   1.389   0.671  0.5813 -1.4404  0.7621
13526SOL     OW43531   2.610   7.197   7.259  0.0865 -0.4128 -0.4345
13526SOL    HW143532   2.613   7.220   7.352  0.3517 -0.6888 -0.3732
13526SOL    HW243533   2.522   7.159   7.247 -0.1464  0.1096 -0.4172
13527SOL     OW43534   0.974   7.498   3.076  0.0472  0.2175 -0.0671
13527SOL    HW143535   0.933   7.424   3.032 -0.9538  0.5680  0.2513
13527SOL    HW243536   1.063   7.500   3.041  0.0900 -1.1217 -0.0842
13528SOL     OW43537   3.119   3.887   6.381 -0.5252  0.4423 -0.3374
13528SOL    HW143538   3.069   3.805   6.378  0.3615 -0.1472 -3.9083
13528SOL    HW243539   3.181   3.876   6.453 -0.6561 -1.8862 -0.5249
13529SOL     OW43540   0.039   1.607   1.529 -0.6162 -0.1202  0.3307
13529SOL    HW143541   0.112   1.639   1.477 -1.6559  0.8708 -0.5530
13529SOL    HW243542  -0.028   1.582   1.465 -0.6294 -2.2251  1.0588
13530SOL     OW43543   7.686   3.220   5.090 -0.0509  0.3073 -0.2484
13530SOL    HW143544   7.601   3.259   5.111 -0.7896 -0.7702 -1.1485
13530SOL    HW243545   7.672   3.170   5.010  0.8054 -1.8682  0.8530
13531SOL     OW43546   3.947   0.623   5.516 -0.3245 -0.4871  0.2861
13531SOL    HW143547   3.881   0.553   5.527  1.5687 -2.0267  3.2533
13531SOL    HW243548   3.979   0.639   5.605  2.9047  0.5788 -0.9551
13532SOL     OW43549   5.197   2.458   4.849  0.3366  0.0172 -0.8241
13532SOL    HW143550   5.188   2.420   4.762  0.8302 -1.9354 -0.0618
13532SOL    HW243551   5.278   2.420   4.884  0.1598  0.7816  0.4891
13533SOL     OW43552   7.698   5.559   6.714  0.1187 -0.9951 -0.2195
13533SOL    HW143553   7.764   5.491   6.730 -1.2092 -1.9348  1.5621
13533SOL    HW243554   7.735   5.638   6.754  0.9222 -1.0551 -0.8121
13534SOL     OW43555   6.192   1.116   3.485  0.3355 -0.5224 -0.5292
13534SOL    HW143556   6.256   1.112   3.415  1.7196 -0.0848  0.6595
13534SOL    HW243557   6.166   1.024   3.498 -0.3195 -0.5586 -1.9058
13535SOL     OW43558   1.214   5.671   5.664 -0.4380 -0.0918  0.2052
13535SOL    HW143559   1.165   5.726   5.725  0.1677 -0.8280  1.3947
13535SOL    HW243560   1.221   5.587   5.709 -0.2503 -0.7590 -1.0366
13536SOL     OW43561   2.376   1.565   0.181  0.0255  0.4398 -0.3376
13536SOL    HW143562   2.361   1.654   0.214 -0.4484  0.2331  0.0214
13536SOL    HW243563   2.326   1.561   0.099  0.7644  0.7822 -0.8084
13537SOL     OW43564   7.483   6.794   4.717 -0.1831  0.2769  0.0658
13537SOL    HW143565   7.441   6.785   4.802  1.5896 -1.7110  0.8195
13537SOL    HW243566   7.507   6.887   4.711 -0.6231  0.5100  1.5918
13538SOL     OW43567   5.645   4.508   0.701  0.7834  0.0587 -0.5749
13538SOL    HW143568   5.679   4.544   0.620  0.7244 -0.6201 -0.9032
13538SOL    HW243569   5.719   4.462   0.740  0.1669 -1.8630 -1.5409
13539SOL     OW43570   0.431   2.581   0.441 -0.7370  0.0597 -0.3247
13539SOL    HW143571   0.452   2.506   0.386 -0.4847  0.6383 -1.0286
13539SOL    HW243572   0.480   2.565   0.522 -0.8299 -0.6200 -0.3948
13540SOL     OW43573   7.623   2.816   0.814  0.9777  0.0639  0.3756
13540SOL    HW143574   7.638   2.875   0.888 -1.1428 -2.4408  3.0331
13540SOL    HW243575   7.558   2.861   0.760  0.4791  0.7747  1.5360
13541SOL     OW43576   3.014   1.093   6.675 -0.3683 -0.6995 -0.1779
13541SOL    HW143577   2.942   1.131   6.625 -1.8846 -2.8709  0.2532
13541SOL    HW243578   2.975   1.022   6.726  2.0289 -1.8058  0.2918
13542SOL     OW43579   6.723   1.915   5.626 -0.1414  0.5186  0.1074
13542SOL    HW143580   6.676   1.848   5.578  0.3576 -0.2000  0.5966
13542SOL    HW243581   6.796   1.868   5.668 -0.6918  1.0595  1.7543
13543SOL     OW43582   5.741   8.132   6.400 -0.0213 -0.0644  0.3338
13543SOL    HW143583   5.757   8.041   6.425  1.4787  0.5553  1.8893
13543SOL    HW243584   5.718   8.175   6.483 -0.7096  0.9730 -0.3814
13544SOL     OW43585   7.876   6.469   6.663 -0.3688 -0.4644  0.3100
13544SOL    HW143586   7.827   6.436   6.587  0.4081 -0.9474  0.0075
13544SOL    HW243587   7.876   6.395   6.725  0.6306 -0.7589 -0.0138
13545SOL     OW43588   2.165   7.902   5.687  0.7028  0.0548 -0.0742
13545SOL    HW143589   2.185   7.811   5.662  1.7397  0.4177 -0.6242
13545SOL    HW243590   2.244   7.951   5.665  0.5421  0.9266  1.1681
13546SOL     OW43591   3.546   4.330   4.457 -0.0995  0.6065 -0.3295
13546SOL    HW143592   3.544   4.329   4.361  2.1802 -2.7293 -0.5334
13546SOL    HW243593   3.628   4.375   4.478  1.2856 -1.7465 -0.2639
13547SOL     OW43594   4.590   6.348   4.005  0.1466 -0.2972 -0.1636
13547SOL    HW143595   4.532   6.424   3.998  0.1862 -0.1822  0.7251
13547SOL    HW243596   4.534   6.278   4.036  0.2303 -0.4953 -0.4566
13548SOL     OW43597   0.376   2.737   2.131  0.0503 -0.3184 -0.4897
13548SOL    HW143598   0.387   2.644   2.113  2.2092  0.1217 -1.7775
13548SOL    HW243599   0.366   2.777   2.044  1.4131  0.8694 -0.1325
13549SOL     OW43600   5.869   3.897   6.004  0.2717  0.0364  0.2651
13549SOL    HW143601   5.877   3.966   5.939 -0.6347 -1.5901 -1.6657
13549SOL    HW243602   5.958   3.862   6.013  0.3383  0.0436 -0.3601
13550SOL     OW43603   2.616   5.816   6.280 -0.6450 -0.4791 -0.2209
13550SOL    HW143604   2.667   5.877   6.227 -0.8103 -0.5750 -0.4952
13550SOL    HW243605   2.628   5.731   6.238 -0.6986 -0.5750 -0.0460
13551SOL     OW43606   1.384   5.888   3.170 -0.1316 -0.1698  0.4414
13551SOL    HW143607   1.466   5.919   3.210  0.2443  1.7364 -1.5945
13551SOL    HW243608   1.316   5.916   3.232  0.5371  1.1793  0.6136
13552SOL     OW43609   0.967   7.381   5.734  0.1227 -0.1711 -0.2537
13552SOL    HW143610   0.929   7.333   5.808  0.8531  0.3385  0.4738
13552SOL    HW243611   0.902   7.449   5.715  0.5269  0.5656  0.8470
13553SOL     OW43612   7.803   2.436   6.214  0.5682  0.1610 -0.2218
13553SOL    HW143613   7.832   2.387   6.137  1.4288  0.7220 -0.2661
13553SOL    HW243614   7.808   2.373   6.286  0.3859 -0.1875 -0.5135
13554SOL     OW43615   3.307   7.871   5.583 -0.6296 -0.1390  0.0053
13554SOL    HW143616   3.269   7.952   5.550  1.9519  0.8971 -0.6362
13554SOL    HW243617   3.355   7.835   5.509  0.7545 -0.6312  1.1002
13555SOL     OW43618   0.755   0.553   1.468 -0.2290 -0.0561  0.5899
13555SOL    HW143619   0.820   0.486   1.491  0.0977 -1.3101 -3.3262
13555SOL    HW243620   0.801   0.610   1.407 -2.4858 -0.5261 -1.7000
13556SOL     OW43621   7.831   4.335   4.645 -0.4912 -0.1281  0.7269
13556SOL    HW143622   7.843   4.410   4.703 -2.9054  1.5933 -0.8152
13556SOL    HW243623   7.736   4.317   4.647 -0.5593 -0.5407 -1.9466
13557SOL     OW43624   6.268   7.249   7.462 -0.5265  0.3010 -0.0196
13557SOL    HW143625   6.296   7.186   7.395  1.9315  0.7978  0.4433
13557SOL    HW243626   6.321   7.227   7.539 -1.6175  1.2153  1.0236
13558SOL     OW43627   0.442   6.716   1.039  0.4842 -0.3873  0.0775
13558SOL    HW143628   0.409   6.743   0.953 -0.8364 -2.8295 -0.2722
13558SOL    HW243629   0.417   6.786   1.098  2.5145  1.9762 -1.6569
13559SOL     OW43630   1.664   1.752   1.839 -0.1386 -0.3264 -0.4223
13559SOL    HW143631   1.685   1.725   1.750  0.3391  0.5484 -0.5868
13559SOL    HW243632   1.646   1.845   1.833  0.3755 -0.1483  0.4681
13560SOL     OW43633   6.215   4.660   8.079 -0.0367 -0.1808  0.1315
13560SOL    HW143634   6.269   4.587   8.049 -0.0390  0.9162 -2.8733
13560SOL    HW243635   6.272   4.736   8.072 -0.6811  0.4235  1.1682
13561SOL     OW43636   6.113   1.688   1.541 -0.3996  0.0688 -0.6997
13561SOL    HW143637   6.066   1.675   1.624 -1.9044 -0.2483 -1.5682
13561SOL    HW243638   6.182   1.623   1.542 -0.6564 -0.2025  0.1321
13562SOL     OW43639   4.811   1.984   6.252  0.0006  0.6419 -0.6018
13562SOL    HW143640   4.822   1.935   6.171  0.6873  0.1533 -0.2157
13562SOL    HW243641   4.719   1.971   6.275  0.0745 -0.1272 -0.7245
13563SOL     OW43642   1.501   7.972   8.017  0.5349 -1.1035 -0.2485
13563SOL    HW143643   1.538   7.886   7.998  0.6121 -1.0655 -0.2678
13563SOL    HW243644   1.469   7.965   8.107  1.6532 -0.7663  0.1924
13564SOL     OW43645   6.588   3.695   8.048  0.3855 -0.0092 -0.7815
13564SOL    HW143646   6.541   3.641   7.984  1.5878 -0.0850 -1.6377
13564SOL    HW243647   6.535   3.690   8.128  0.2866 -2.1971 -0.9362
13565SOL     OW43648   2.906   3.812   6.765 -0.5592 -0.3832 -0.5274
13565SOL    HW143649   2.877   3.772   6.683  0.1655 -0.8328 -0.5736
13565SOL    HW243650   2.997   3.782   6.775 -0.1438  0.8908 -0.3381
13566SOL     OW43651   5.661   4.966   1.261 -0.6785 -0.1449  0.0996
13566SOL    HW143652   5.751   4.975   1.293 -0.3545 -1.3429 -0.3914
13566SOL    HW243653   5.636   4.877   1.287 -1.2395 -0.2961 -0.8981
13567SOL     OW43654   0.406   4.609   3.779 -0.1129  0.0263  0.2181
13567SOL    HW143655   0.369   4.606   3.867  0.9842 -0.5902  0.6804
13567SOL    HW243656   0.487   4.659   3.789  1.1302 -1.8436  0.0175
13568SOL     OW43657   0.276   4.425   5.298 -0.0862 -0.3242 -0.7778
13568SOL    HW143658   0.293   4.498   5.238  1.9572 -0.3330 -0.2897
13568SOL    HW243659   0.354   4.421   5.353 -1.1596 -1.4209  0.7529
13569SOL     OW43660   4.042   7.883   3.502  0.0784  0.7257 -0.2085
13569SOL    HW143661   4.102   7.957   3.509  1.9121 -0.7891  1.1682
13569SOL    HW243662   4.034   7.849   3.591 -0.0735 -1.1936 -0.8928
13570SOL     OW43663   0.395   0.260   3.905 -0.0007 -0.1634 -0.2450
13570SOL    HW143664   0.303   0.281   3.922 -0.0086 -0.9630  0.7764
13570SOL    HW243665   0.398   0.165   3.903  1.0415 -0.1946  1.1750
13571SOL     OW43666   3.151   6.662   2.713  0.1269  0.0626  0.4042
13571SOL    HW143667   3.101   6.600   2.660 -0.5260 -0.2688  1.3831
13571SOL    HW243668   3.088   6.728   2.740  0.5464  0.4612  0.4272
13572SOL     OW43669   6.974   6.086   7.319  0.4237 -0.7115  0.0634
13572SOL    HW143670   6.956   6.150   7.250  1.1286 -1.6329 -0.9885
13572SOL    HW243671   6.887   6.062   7.352  0.0740 -0.2909 -0.5251
13573SOL     OW43672   7.837   0.749   1.759 -0.2279  0.0978 -0.3774
13573SOL    HW143673   7.817   0.783   1.672 -0.5148  0.0546 -0.3288
13573SOL    HW243674   7.755   0.710   1.789  0.1897 -0.9765 -0.5829
13574SOL     OW43675   5.862   2.682   8.084 -0.4355  0.2556 -0.4907
13574SOL    HW143676   5.912   2.761   8.068 -0.3628  0.3133  0.0181
13574SOL    HW243677   5.884   2.656   8.173 -1.1258  0.1510 -0.3411
13575SOL     OW43678   2.524   2.106   0.870  0.1280  0.5481  0.1828
13575SOL    HW143679   2.557   2.070   0.953  2.7352 -0.9227 -1.3723
13575SOL    HW243680   2.519   2.030   0.812  1.5341  2.0061 -1.9616
13576SOL     OW43681   2.820   7.427   5.493 -0.2767  0.3042 -0.0953
13576SOL    HW143682   2.800   7.462   5.579  0.9724  2.7602 -0.7222
13576SOL    HW243683   2.915   7.418   5.491 -0.4269 -1.7338 -0.5412
13577SOL     OW43684   5.285   5.291   3.137 -0.5157  0.0276  0.0129
13577SOL    HW143685   5.363   5.236   3.136 -0.2448  0.4136 -0.2229
13577SOL    HW243686   5.318   5.380   3.147 -0.9585  0.1413  0.5171
13578SOL     OW43687   4.349   1.230   5.434 -0.0535  0.7748  0.2741
13578SOL    HW143688   4.407   1.265   5.366  1.2890  0.8505  1.4273
13578SOL    HW243689   4.292   1.168   5.387  0.5950  1.0938 -0.9779
13579SOL     OW43690   1.211   6.696   1.750 -0.2806 -0.0228 -0.1711
13579SOL    HW143691   1.158   6.765   1.790 -0.5715 -0.5753  0.4012
13579SOL    HW243692   1.173   6.684   1.663  1.0914  2.0164 -1.1325
13580SOL     OW43693   6.746   0.185   3.926  0.7412  0.1273 -0.4351
13580SOL    HW143694   6.706   0.272   3.924  0.3741 -0.0328 -0.1099
13580SOL    HW243695   6.676   0.125   3.902  0.6984 -0.1864  0.4469
13581SOL     OW43696   3.382   6.201   0.365  0.0938 -0.3274 -0.1941
13581SOL    HW143697   3.336   6.148   0.430  1.1334 -1.5730 -0.4361
13581SOL    HW243698   3.321   6.207   0.291 -1.0739  1.0579  0.8276
13582SOL     OW43699   3.447   0.538   8.078  0.3990  0.4247 -0.3644
13582SOL    HW143700   3.497   0.526   8.159 -0.6128  0.0998  0.2286
13582SOL    HW243701   3.435   0.450   8.044 -2.3446  0.1039  1.1212
13583SOL     OW43702   5.781   6.801   1.437 -0.5574 -0.1498 -0.7917
13583SOL    HW143703   5.734   6.763   1.512 -0.3717 -1.2885 -1.2362
13583SOL    HW243704   5.712   6.834   1.380 -0.7537 -0.3976 -0.7004
13584SOL     OW43705   4.528   6.075   6.895 -0.0577  0.3235  0.5573
13584SOL    HW143706   4.574   6.158   6.911  1.7668 -0.2181 -1.3546
13584SOL    HW243707   4.562   6.016   6.962  0.1510  0.6000  0.6996
13585SOL     OW43708   0.289   0.832   1.112 -0.1599  0.0241  0.0588
13585SOL    HW143709   0.347   0.899   1.149 -0.5228 -0.0371  0.7647
13585SOL    HW243710   0.340   0.792   1.042  0.8756 -0.3866  1.0027
13586SOL     OW43711   0.293   0.631   3.572  0.0507 -0.0049  0.3566
13586SOL    HW143712   0.325   0.579   3.647  0.3468 -0.3486  0.0018
13586SOL    HW243713   0.222   0.578   3.535  1.7185 -1.2728 -1.2984
13587SOL     OW43714   2.081   0.076   7.517 -0.4056  0.0969 -0.0304
13587SOL    HW143715   2.175   0.084   7.531 -0.2839  0.1873 -0.8766
13587SOL    HW243716   2.057   0.155   7.469 -1.3025  1.1433  2.0152
13588SOL     OW43717   1.074   5.233   3.189 -0.3488  0.3365  0.2280
13588SOL    HW143718   1.150   5.176   3.174 -0.3800  0.6323 -1.2149
13588SOL    HW243719   1.003   5.191   3.140 -1.0699  0.2061  1.3481
13589SOL     OW43720   5.293   7.287   7.684  0.2068  0.3731 -0.2013
13589SOL    HW143721   5.198   7.277   7.696 -0.0257  0.3676 -1.8102
13589SOL    HW243722   5.301   7.349   7.612  1.4654  1.2530  0.6429
13590SOL     OW43723   7.229   5.842   1.014  0.6404 -0.2957 -0.1835
13590SOL    HW143724   7.237   5.930   0.978  0.6676  0.8627  2.4329
13590SOL    HW243725   7.300   5.835   1.077 -1.0514 -1.0743  1.7585
13591SOL     OW43726   4.484   5.159   3.514  0.0432 -0.1741  0.0990
13591SOL    HW143727   4.392   5.171   3.534  0.6382  0.4449  2.7549
13591SOL    HW243728   4.493   5.065   3.497 -0.6870 -0.7060  2.3338
13592SOL     OW43729   0.338   5.780   5.739 -0.3658  0.2448 -0.4266
13592SOL    HW143730   0.305   5.864   5.705 -0.1259 -0.1077 -1.5881
13592SOL    HW243731   0.364   5.799   5.829 -1.5461  1.0960 -0.2376
13593SOL     OW43732   4.183   4.273   6.132  0.0940  0.3213  0.9182
13593SOL    HW143733   4.247   4.309   6.071  0.4225  0.7788  1.5165
13593SOL    HW243734   4.201   4.318   6.215 -0.5508 -0.0499  1.2704
13594SOL     OW43735   2.620   5.320   2.092  0.4148 -0.5015  0.6032
13594SOL    HW143736   2.711   5.342   2.110  0.4040 -0.3126  0.4298
13594SOL    HW243737   2.570   5.390   2.132  0.4669  1.0760 -1.8980
13595SOL     OW43738   2.654   1.388   5.421 -0.2620  0.0919  0.1574
13595SOL    HW143739   2.739   1.344   5.434 -0.3057 -0.0989 -0.2022
13595SOL    HW243740   2.600   1.354   5.493 -0.2688 -0.3815 -0.0661
13596SOL     OW43741   8.010   0.422   5.014  0.4002 -0.0109 -0.2217
13596SOL    HW143742   7.958   0.469   4.949  0.7811  1.1715  0.2930
13596SOL    HW243743   7.990   0.329   5.000  0.1549  0.2564 -1.7242
13597SOL     OW43744   7.852   8.071   1.945  0.5831  0.1629 -0.4617
13597SOL    HW143745   7.806   8.058   2.028  1.1382  0.1441 -0.1509
13597SOL    HW243746   7.796   8.132   1.896 -1.0320 -1.7409 -1.1168
13598SOL     OW43747   2.567   0.052   2.565  0.4695  0.4001  0.7329
13598SOL    HW143748   2.576   0.117   2.495  0.6148 -0.0516  0.3205
13598SOL    HW243749   2.494  -0.004   2.535  2.6127 -1.8366 -0.7580
13599SOL     OW43750   2.856   0.214   2.170  0.1365 -0.1141 -0.0603
13599SOL    HW143751   2.881   0.207   2.262  1.4016  0.1666 -0.3584
13599SOL    HW243752   2.839   0.124   2.142 -0.5590 -0.1660  0.5245
13600SOL     OW43753   1.313   3.358   2.704  0.6775 -0.3742  0.5973
13600SOL    HW143754   1.279   3.330   2.789 -1.1873  0.1259  0.0594
13600SOL    HW243755   1.356   3.280   2.669 -0.6075 -1.2979  0.9961
13601SOL     OW43756   4.786   3.897   6.433 -0.3143  0.0839 -0.6954
13601SOL    HW143757   4.864   3.943   6.405  0.6544  0.0514  1.6913
13601SOL    HW243758   4.713   3.947   6.396  0.7897  1.3533 -1.2217
13602SOL     OW43759   3.322   4.329   5.050 -0.1970 -0.3295  0.1089
13602SOL    HW143760   3.364   4.249   5.081  1.4516  1.6295  3.5235
13602SOL    HW243761   3.229   4.319   5.074 -0.1694 -1.5255 -0.2588
13603SOL     OW43762   6.805   3.768   3.388 -0.3371 -0.1701 -0.6142
13603SOL    HW143763   6.780   3.794   3.477 -0.2844  0.9432 -0.9080
13603SOL    HW243764   6.818   3.673   3.393 -0.3568 -0.1206  0.5576
13604SOL     OW43765   1.665   2.479   6.651  0.1577  0.2188  0.3381
13604SOL    HW143766   1.595   2.543   6.641 -0.1603 -0.1405  0.2307
13604SOL    HW243767   1.696   2.491   6.741  0.8461  1.2615 -0.0203
13605SOL     OW43768   1.020   4.519   6.537 -0.2894 -0.1458 -0.4547
13605SOL    HW143769   1.104   4.557   6.563  0.8412 -2.2776 -0.7756
13605SOL    HW243770   0.984   4.482   6.618  1.4668 -3.4813 -1.0096
13606SOL     OW43771   7.146   4.155   7.185 -0.4756  0.1761 -0.2701
13606SOL    HW143772   7.229   4.134   7.142 -1.2600 -0.9491 -1.2802
13606SOL    HW243773   7.125   4.244   7.154 -0.0585  0.1379 -0.6690
13607SOL     OW43774   6.357   6.577   4.686 -0.0714  0.1706  0.0080
13607SOL    HW143775   6.440   6.546   4.723  0.0268  0.6774  0.2156
13607SOL    HW243776   6.362   6.555   4.593 -0.2819 -1.0302  0.2628
13608SOL     OW43777   6.794   2.912   6.450  0.1952  0.1912 -0.4010
13608SOL    HW143778   6.787   2.933   6.356  0.0678 -0.0364 -0.4438
13608SOL    HW243779   6.816   2.819   6.452  1.3822  0.4618 -0.2209
13609SOL     OW43780   2.361   6.036   3.139  0.3362  0.0503  0.4594
13609SOL    HW143781   2.442   6.083   3.121 -1.1481  2.4533 -0.4638
13609SOL    HW243782   2.334   6.000   3.055 -1.0977  1.9975  0.0196
13610SOL     OW43783   2.375   5.993   2.456  0.3947 -0.2929  0.0054
13610SOL    HW143784   2.432   6.056   2.500 -2.0763  1.9293  0.2728
13610SOL    HW243785   2.351   6.035   2.373  0.6269 -2.0103 -0.9762
13611SOL     OW43786   2.849   0.801   7.182 -0.3372 -0.3259 -0.5188
13611SOL    HW143787   2.939   0.805   7.215 -0.6070  0.8827  0.1479
13611SOL    HW243788   2.797   0.843   7.251 -2.0018 -4.2672  0.9801
13612SOL     OW43789   0.402   0.075   2.962 -0.0759  0.0248 -0.2990
13612SOL    HW143790   0.345   0.005   2.932  0.6194  0.3897 -2.6745
13612SOL    HW243791   0.405   0.064   3.057 -2.2024 -1.4078 -0.3267
13613SOL     OW43792   3.841   7.058   4.602 -0.3884 -0.8464 -0.4251
13613SOL    HW143793   3.934   7.073   4.583 -0.6114  0.5315 -0.5296
13613SOL    HW243794   3.799   7.142   4.582 -1.4290 -0.9668  1.1018
13614SOL     OW43795   4.455   6.922   0.301 -0.0212 -0.4949 -0.1201
13614SOL    HW143796   4.425   6.834   0.278 -0.0591 -0.6131  0.3580
13614SOL    HW243797   4.493   6.911   0.388  0.5451 -0.1600 -0.3247
13615SOL     OW43798   6.665   7.722   0.251 -0.4180 -0.2222 -0.1039
13615SOL    HW143799   6.725   7.795   0.239  0.9048 -0.9495  1.6637
13615SOL    HW243800   6.720   7.644   0.236 -0.7125 -0.9160  2.1166
13616SOL     OW43801   6.028   7.668   1.371  0.1925  0.1760  0.0006
13616SOL    HW143802   6.115   7.698   1.346  1.0709  0.2224  2.7578
13616SOL    HW243803   5.982   7.749   1.396 -0.0363 -0.0102  0.1866
13617SOL     OW43804   0.432   4.698   6.967  0.4395 -0.0471 -0.0188
13617SOL    HW143805   0.474   4.649   7.037  0.6233 -2.1042 -1.4640
13617SOL    HW243806   0.345   4.720   7.001  0.3184 -1.5109  0.6606
13618SOL     OW43807   7.024   1.079   7.225  0.2031 -0.4483 -0.3874
13618SOL    HW143808   7.063   1.029   7.296 -2.8108 -1.0495  0.9773
13618SOL    HW243809   6.941   1.035   7.207 -0.9205  1.9636 -1.6018
13619SOL     OW43810   6.126   7.253   6.898 -0.1757  0.5439  0.3900
13619SOL    HW143811   6.037   7.256   6.865  0.3141  0.1843 -1.0070
13619SOL    HW243812   6.181   7.279   6.824  0.8399  1.6416  1.4692
13620SOL     OW43813   2.673   0.202   7.358 -0.7697  0.3053 -0.4902
13620SOL    HW143814   2.705   0.265   7.422 -1.1094 -0.9091  0.9518
13620SOL    HW243815   2.585   0.180   7.388 -0.6695 -0.8142 -0.9674
13621SOL     OW43816   6.793   0.041   0.328 -0.9687  0.4854  0.3306
13621SOL    HW143817   6.886   0.027   0.310 -1.1800  0.5784 -0.8891
13621SOL    HW243818   6.792   0.084   0.414  0.0859  0.1046  0.5464
13622SOL     OW43819   2.686   7.028   0.502  0.0200  0.3811  0.6513
13622SOL    HW143820   2.646   7.064   0.423  0.7059  0.6415  0.4204
13622SOL    HW243821   2.634   6.950   0.521  0.3030 -0.0944 -0.4687
13623SOL     OW43822   6.447   5.847   4.584 -0.0881  0.2466 -0.5325
13623SOL    HW143823   6.356   5.870   4.568 -0.3472 -0.2190  0.2232
13623SOL    HW243824   6.474   5.906   4.655  0.1394  0.2370 -0.6095
13624SOL     OW43825   1.276   1.516   8.126  0.2359 -0.8795 -0.3267
13624SOL    HW143826   1.312   1.508   8.037 -1.2795 -0.8150 -0.9838
13624SOL    HW243827   1.324   1.589   8.165  1.3476 -1.3045 -0.8671
13625SOL     OW43828   5.250   7.290   4.780 -0.0483 -0.0143 -0.0891
13625SOL    HW143829   5.283   7.249   4.859 -0.3225 -1.4706 -0.6943
13625SOL    HW243830   5.239   7.218   4.718 -3.5523  0.4419 -0.1988
13626SOL     OW43831   0.603   0.172   2.132 -0.6273  0.0990  0.1212
13626SOL    HW143832   0.553   0.185   2.213 -0.2256  1.2342  0.1977
13626SOL    HW243833   0.681   0.225   2.143 -1.2983  1.5540 -1.6620
13627SOL     OW43834   5.759   6.787   0.231  0.0295 -0.3214  0.2149
13627SOL    HW143835   5.717   6.873   0.233  0.8519  0.0870  0.4950
13627SOL    HW243836   5.693   6.728   0.193 -0.9179  0.2141  0.9931
13628SOL     OW43837   7.313   0.954   6.681  0.1315  0.2906 -0.0108
13628SOL    HW143838   7.312   1.042   6.644 -1.8289 -0.2328 -1.3528
13628SOL    HW243839   7.226   0.944   6.720  0.6462 -0.7462  0.9369
13629SOL     OW43840   2.517   7.843   5.396  0.3243  0.6516  0.5103
13629SOL    HW143841   2.560   7.764   5.364  0.5786  1.0659 -0.1798
13629SOL    HW243842   2.556   7.858   5.482  2.1120  1.4124 -0.3778
13630SOL     OW43843   6.392   0.066   3.615  0.1847 -0.0651 -0.2278
13630SOL    HW143844   6.347  -0.008   3.575 -0.1765 -0.4786  0.9050
13630SOL    HW243845   6.478   0.068   3.572 -0.0077 -0.7948 -0.6605
13631SOL     OW43846   2.060   3.859   7.500  0.6829  0.6520  0.2498
13631SOL    HW143847   2.015   3.803   7.562  1.1245  2.1014  1.9714
13631SOL    HW243848   2.134   3.807   7.468 -1.1432 -1.1260 -1.3096
13632SOL     OW43849   7.409   6.482   2.446 -0.4568 -0.2703 -0.4270
13632SOL    HW143850   7.397   6.571   2.478  3.3836  0.6941 -1.2190
13632SOL    HW243851   7.463   6.439   2.512  0.3962 -0.9836 -1.5552
13633SOL     OW43852   6.710   3.666   6.054 -0.5545 -0.3483 -0.5901
13633SOL    HW143853   6.761   3.602   6.103  1.1546  1.1546 -0.3099
13633SOL    HW243854   6.706   3.742   6.111 -0.7843  0.5109 -1.7170
13634SOL     OW43855   6.258   5.168   2.604  0.2442 -0.1996  0.3203
13634SOL    HW143856   6.179   5.148   2.554 -0.7207 -0.0578  1.7180
13634SOL    HW243857   6.291   5.082   2.631  0.1112 -0.2292  0.3917
13635SOL     OW43858   0.540   2.389   7.776 -0.2111 -0.9641  0.5250
13635SOL    HW143859   0.477   2.351   7.715  1.9533 -1.4827 -1.5058
13635SOL    HW243860   0.622   2.342   7.759  1.4179  1.4575  1.1608
13636SOL     OW43861   5.132   2.547   0.031 -0.0827  0.0909  0.2324
13636SOL    HW143862   5.043   2.562   0.063  0.0233  2.0109 -0.2487
13636SOL    HW243863   5.167   2.635   0.013  1.6654 -0.6475 -0.2617
13637SOL     OW43864   6.271   6.275   5.926  0.4737 -0.0858  0.5117
13637SOL    HW143865   6.205   6.329   5.970  1.7239  1.2646  0.8169
13637SOL    HW243866   6.332   6.252   5.995  2.3652  1.9085 -0.3876
13638SOL     OW43867   2.778   2.084   7.669 -0.3069  0.1982 -0.6623
13638SOL    HW143868   2.769   1.997   7.708 -0.5762 -0.0997 -1.3680
13638SOL    HW243869   2.861   2.117   7.704  0.2301 -0.6895 -1.0501
13639SOL     OW43870   7.819   2.208   6.056  0.0704 -0.7812 -0.1721
13639SOL    HW143871   7.775   2.252   5.983  1.2794 -0.7583 -0.9176
13639SOL    HW243872   7.883   2.150   6.013 -0.9519 -2.7361  0.7893
13640SOL     OW43873   0.551   5.260   7.262  0.3361  0.1031  0.0356
13640SOL    HW143874   0.569   5.194   7.328  0.3414 -0.0402 -0.1086
13640SOL    HW243875   0.634   5.272   7.216 -0.2622 -1.7451 -1.7097
13641SOL     OW43876   6.969   7.945   3.178 -0.3109  0.0235  0.0494
13641SOL    HW143877   7.047   7.989   3.211  0.3418 -1.5134  0.6394
13641SOL    HW243878   6.975   7.856   3.213 -1.4964 -0.5949 -1.2332
13642SOL     OW43879   5.898   1.891   0.832  0.6100  0.1042 -0.0556
13642SOL    HW143880   5.966   1.929   0.776  0.8793 -0.3482 -0.0443
13642SOL    HW243881   5.882   1.805   0.794  0.8378 -0.2300  0.5946
13643SOL     OW43882   6.594   3.111   7.007  0.2443 -0.1137 -0.0398
13643SOL    HW143883   6.677   3.133   7.050  0.2111 -0.0988  0.0173
13643SOL    HW243884   6.573   3.189   6.955  0.2269 -0.0872  0.0066
13644SOL     OW43885   6.613   0.508   5.890  0.1282  0.5625  0.0940
13644SOL    HW143886   6.551   0.450   5.845 -0.6435  1.0084  0.5567
13644SOL    HW243887   6.614   0.587   5.837  1.6455 -0.0761 -0.8727
13645SOL     OW43888   3.051   0.544   0.282 -0.0824  0.5670 -0.0089
13645SOL    HW143889   3.108   0.565   0.209 -0.2714  0.5193 -0.1709
13645SOL    HW243890   3.036   0.450   0.276  0.1638  0.5068  0.2823
13646SOL     OW43891   5.980   5.131   1.306 -0.2209 -0.4934  0.1580
13646SOL    HW143892   6.018   5.205   1.352  1.0408 -0.7026 -0.5006
13646SOL    HW243893   5.920   5.092   1.369  0.4364  0.0273  1.1359
13647SOL     OW43894   1.848   6.411   2.265  0.4824  0.0070  0.2313
13647SOL    HW143895   1.843   6.376   2.354 -0.1878 -0.3127  0.0757
13647SOL    HW243896   1.912   6.356   2.221 -0.5213 -1.0179  0.0069
13648SOL     OW43897   5.100   6.233   1.677  0.7647 -0.1732  0.4650
13648SOL    HW143898   5.035   6.168   1.649 -0.1399  0.3089  1.3694
13648SOL    HW243899   5.051   6.295   1.731  1.8692  0.5384  0.6995
13649SOL     OW43900   3.613   5.115   6.331  0.5199  0.3474  0.7580
13649SOL    HW143901   3.573   5.163   6.403 -0.4430  0.7269 -0.0101
13649SOL    HW243902   3.550   5.122   6.260  1.1608 -0.5752  0.0814
13650SOL     OW43903   2.409   3.033   1.756  0.2698  0.5658 -0.4566
13650SOL    HW143904   2.430   2.974   1.683 -2.1851  0.4577 -1.1585
13650SOL    HW243905   2.363   3.106   1.715 -1.9679  0.0823  1.0368
13651SOL     OW43906   4.432   2.142   4.916 -0.5099  0.6515 -0.4021
13651SOL    HW143907   4.502   2.154   4.852 -0.1967  1.6526  0.1102
13651SOL    HW243908   4.354   2.126   4.864  0.0594 -0.2872 -0.9855
13652SOL     OW43909   2.272   2.870   3.263 -0.4149  0.2355 -0.0251
13652SOL    HW143910   2.289   2.825   3.346  0.8909 -0.7564 -0.7948
13652SOL    HW243911   2.342   2.840   3.204 -0.9490  1.3908 -1.3085
13653SOL     OW43912   3.376   3.401   3.483 -0.2629  0.1398  0.4299
13653SOL    HW143913   3.424   3.357   3.412  0.7886  0.2256  1.0627
13653SOL    HW243914   3.434   3.472   3.510 -0.8374  0.3595  1.1008
13654SOL     OW43915   4.936   3.417   3.063 -0.0475  0.4601 -0.2146
13654SOL    HW143916   4.930   3.509   3.036  3.3519  0.3668 -1.7826
13654SOL    HW243917   4.943   3.421   3.159 -0.3197  1.7813 -0.2262
13655SOL     OW43918   1.864   0.935   1.578  0.6135  0.1355 -0.0365
13655SOL    HW143919   1.826   0.854   1.545  0.5883  0.1248  0.0193
13655SOL    HW243920   1.956   0.932   1.549  0.3353  0.6105 -1.0047
13656SOL     OW43921   0.083   2.762   6.372  0.0896 -0.8719  0.1446
13656SOL    HW143922   0.173   2.730   6.369  0.7324  0.8958 -0.3118
13656SOL    HW243923   0.089   2.854   6.346 -1.8680 -0.7552 -0.0428
13657SOL     OW43924   5.990   7.474   0.315  0.0670 -0.8074  0.3981
13657SOL    HW143925   5.977   7.450   0.224 -0.3071 -1.3140  0.5855
13657SOL    HW243926   6.084   7.491   0.322 -0.0855  0.5229 -0.3823
13658SOL     OW43927   1.776   6.913   7.131  0.0871 -0.2020 -0.0094
13658SOL    HW143928   1.820   6.942   7.051 -2.2367 -0.9321 -1.6588
13658SOL    HW243929   1.682   6.924   7.112 -0.5594 -1.0180  2.3839
13659SOL     OW43930   0.779   1.635   7.467  0.0784  0.2790  0.2549
13659SOL    HW143931   0.790   1.559   7.410  2.1467 -0.1295  1.1016
13659SOL    HW243932   0.815   1.708   7.418 -0.3658  0.4033  0.1067
13660SOL     OW43933   3.735   5.863   2.342 -0.1296 -0.0243  0.9675
13660SOL    HW143934   3.759   5.907   2.423  0.6404  2.0091 -0.3089
13660SOL    HW243935   3.640   5.875   2.335  0.1174  2.0117  0.3912
13661SOL     OW43936   5.195   3.462   6.188  0.3910  0.4253 -0.3281
13661SOL    HW143937   5.288   3.444   6.171  0.1356  0.2404 -1.6271
13661SOL    HW243938   5.149   3.419   6.116 -0.5602  2.3393 -0.9330
13662SOL     OW43939   6.036   0.786   6.907 -0.7668  0.0169 -0.4143
13662SOL    HW143940   5.954   0.823   6.874 -1.1378 -0.1459  0.2958
13662SOL    HW243941   6.093   0.862   6.917 -1.6141  0.4872  1.2836
13663SOL     OW43942   2.048   3.303   6.026 -0.1513  0.0539  0.0389
13663SOL    HW143943   2.046   3.269   5.937  0.0048  1.7066 -0.6302
13663SOL    HW243944   2.141   3.309   6.047 -0.1789  0.0701  0.1575
13664SOL     OW43945   0.256   1.843   0.847  0.2880 -0.0322 -0.5436
13664SOL    HW143946   0.236   1.757   0.884  1.3936  0.3456  1.0234
13664SOL    HW243947   0.190   1.856   0.779 -0.2647 -1.8509 -0.3905
13665SOL     OW43948   2.497   8.014   0.818  0.0973  0.0012 -0.0733
13665SOL    HW143949   2.501   8.099   0.861  0.5855  0.1656 -0.4431
13665SOL    HW243950   2.582   8.004   0.776 -0.4376 -0.0689 -1.1838
13666SOL     OW43951   5.030   7.876   2.780 -0.1933  0.0639  0.0189
13666SOL    HW143952   4.972   7.817   2.829 -0.6282 -1.5789 -2.2839
13666SOL    HW243953   5.022   7.847   2.689  3.7234  0.2262 -0.5421
13667SOL     OW43954   5.769   7.691   0.773 -0.0314  0.1467  0.3700
13667SOL    HW143955   5.769   7.649   0.687 -1.8121 -0.2161  0.5246
13667SOL    HW243956   5.828   7.767   0.762 -0.5350  0.3318 -1.2834
13668SOL     OW43957   8.109   1.514   5.236 -0.3846  0.4113 -0.8125
13668SOL    HW143958   8.157   1.538   5.157  0.3908  0.0294 -0.4659
13668SOL    HW243959   8.032   1.570   5.235  0.9791  2.3837 -0.4159
13669SOL     OW43960   2.303   8.020   3.606 -0.0037 -0.1371  0.4462
13669SOL    HW143961   2.228   7.961   3.611  0.7553 -1.1967 -0.2379
13669SOL    HW243962   2.274   8.093   3.551 -0.5538 -0.4942  0.2648
13670SOL     OW43963   3.331   4.554   2.276  0.4766 -0.0394  0.0564
13670SOL    HW143964   3.332   4.643   2.241  1.2512 -0.5092 -1.1651
13670SOL    HW243965   3.263   4.556   2.344  0.7114  1.5631  0.2882
13671SOL     OW43966   3.923   1.150   0.204 -0.2691  0.3269 -0.2891
13671SOL    HW143967   3.970   1.075   0.167  1.1146  0.0133  1.9163
13671SOL    HW243968   3.897   1.121   0.292 -0.6626  2.0584  0.2052
13672SOL     OW43969   3.106   3.149   0.609 -0.1898 -0.3445  0.3489
13672SOL    HW143970   3.126   3.072   0.556  0.2997 -1.1697  1.6868
13672SOL    HW243971   3.112   3.119   0.699 -1.0968  1.0020  0.8979
13673SOL     OW43972   1.419   4.199   2.516  0.0278 -0.2044 -0.3929
13673SOL    HW143973   1.438   4.261   2.585  1.0521  0.6837 -1.4278
13673SOL    HW243974   1.326   4.176   2.528  0.2041 -0.1217  1.2701
13674SOL     OW43975   7.565   0.255   7.995 -0.6716 -0.5167 -0.1031
13674SOL    HW143976   7.650   0.244   7.953 -1.2633 -0.4570 -1.3461
13674SOL    HW243977   7.524   0.169   7.990 -1.4875 -0.0737 -1.3337
13675SOL     OW43978   5.680   3.359   7.459  0.6653  0.4606 -0.1822
13675SOL    HW143979   5.716   3.328   7.542 -1.8611 -0.9887  0.4672
13675SOL    HW243980   5.687   3.285   7.399 -2.6273 -0.5441  0.4855
13676SOL     OW43981   2.384   3.904   6.181  0.1457 -0.5117  0.4288
13676SOL    HW143982   2.316   3.849   6.141 -0.3115 -0.3274  0.9436
13676SOL    HW243983   2.345   3.934   6.263 -0.2823  1.9480 -0.5815
13677SOL     OW43984   2.507   4.061   6.940  0.1196  0.0231  0.7033
13677SOL    HW143985   2.573   4.130   6.943 -0.4705  0.7490 -1.3461
13677SOL    HW243986   2.536   3.997   7.005  4.0548 -0.7696 -1.5832
13678SOL     OW43987   0.686   7.507   7.553  0.3304 -0.5391 -0.2482
13678SOL    HW143988   0.714   7.486   7.464  1.3856 -1.5589  0.2868
13678SOL    HW243989   0.625   7.437   7.576 -2.0577  1.1580 -1.0643
13679SOL     OW43990   5.307   5.658   4.277 -0.0730  0.5000  0.2203
13679SOL    HW143991   5.220   5.618   4.269  0.5403 -1.0495  0.9916
13679SOL    HW243992   5.294   5.732   4.337 -0.9035  0.4827  0.0759
13680SOL     OW43993   7.442   8.026   2.103 -0.5900  0.8365  0.3668
13680SOL    HW143994   7.395   8.091   2.154  1.4843  1.6844  1.3069
13680SOL    HW243995   7.534   8.042   2.122  0.1006 -0.9728 -1.0987
13681SOL     OW43996   6.123   4.811   0.409 -0.0878 -0.2082  0.6962
13681SOL    HW143997   6.160   4.895   0.385  0.2416 -0.2633  0.9914
13681SOL    HW243998   6.072   4.828   0.489 -0.2207 -0.2420  0.6193
13682SOL     OW43999   4.994   4.265   2.387 -0.0309  0.1634  0.2572
13682SOL    HW144000   4.989   4.222   2.301  0.5916  0.0334  0.2810
13682SOL    HW244001   5.078   4.309   2.386 -0.4619  0.9998  0.4220
13683SOL     OW44002   6.098   3.166   3.743  0.0216  0.7440  0.4609
13683SOL    HW144003   6.157   3.126   3.679  0.0036  0.6655  0.4931
13683SOL    HW244004   6.011   3.137   3.716  0.1682 -1.1084  1.7927
13684SOL     OW44005   1.869   6.943   6.141 -0.5713  0.2597 -0.3120
13684SOL    HW144006   1.923   6.955   6.218 -2.1566  0.5255  0.8086
13684SOL    HW244007   1.849   7.031   6.110 -0.2126  0.1614 -0.8415
13685SOL     OW44008   7.334   6.959   0.120 -0.9670 -0.0714  0.3579
13685SOL    HW144009   7.404   7.024   0.119 -0.3470 -0.6296  2.4500
13685SOL    HW244010   7.263   7.000   0.071 -0.0905  1.5868  0.4031
13686SOL     OW44011   2.171   3.608   6.785 -0.0393  0.1708  0.7061
13686SOL    HW144012   2.132   3.632   6.869  0.9795  0.9779  0.9746
13686SOL    HW244013   2.260   3.641   6.790  0.0344  0.2516 -0.7050
13687SOL     OW44014   5.785   5.091   7.748  0.1722  0.2188  0.0596
13687SOL    HW144015   5.760   5.027   7.814  0.8230  0.8960  0.9915
13687SOL    HW244016   5.842   5.153   7.794 -0.6807  1.6468 -0.7213
13688SOL     OW44017   7.722   0.829   0.259 -0.4576  0.3723  0.9793
13688SOL    HW144018   7.753   0.856   0.173  0.8129 -0.6800  1.0813
13688SOL    HW244019   7.640   0.782   0.241 -0.5601  0.7568  0.4220
13689SOL     OW44020   4.268   6.381   5.254  0.7856 -0.1729  0.5144
13689SOL    HW144021   4.223   6.381   5.339 -2.4157 -2.3376 -0.9695
13689SOL    HW244022   4.229   6.454   5.206 -0.0499 -1.0829 -0.2372
13690SOL     OW44023   1.152   7.510   6.281 -0.0916  0.4435  0.3947
13690SOL    HW144024   1.154   7.503   6.376 -0.0020 -0.3676  0.3449
13690SOL    HW244025   1.212   7.582   6.261  2.8474 -1.6811  0.7942
13691SOL     OW44026   3.342   0.519   7.259 -0.2282  0.6477  1.2746
13691SOL    HW144027   3.365   0.609   7.237 -0.3453  0.1327 -1.2563
13691SOL    HW244028   3.255   0.506   7.221 -0.3657 -0.4341  1.9067
13692SOL     OW44029   7.939   6.462   2.434 -0.2400 -0.1637 -0.1034
13692SOL    HW144030   7.943   6.535   2.372 -0.8581 -1.6145 -1.9641
13692SOL    HW244031   8.027   6.457   2.471  0.4468  0.1546 -1.6162
13693SOL     OW44032   5.069   7.888   7.925  0.0361  0.2203 -0.3687
13693SOL    HW144033   5.025   7.848   7.850  1.5501 -1.1185 -0.5999
13693SOL    HW244034   5.160   7.894   7.899  0.3755  0.9304  0.9017
13694SOL     OW44035   2.215   3.233   5.409 -0.0915  0.3151 -0.3197
13694SOL    HW144036   2.268   3.155   5.394 -2.0958 -1.0640 -0.5424
13694SOL    HW244037   2.210   3.276   5.324  0.4999  0.3634 -0.3352
13695SOL     OW44038   2.325   0.680   0.487 -0.5386 -0.3760  0.3510
13695SOL    HW144039   2.274   0.650   0.412 -0.1697 -0.7877  0.2582
13695SOL    HW244040   2.415   0.650   0.469 -0.3171  0.0961  0.6409
13696SOL     OW44041   0.862   1.566   0.914  0.0919  0.5810 -0.0637
13696SOL    HW144042   0.872   1.493   0.975  0.4492  0.5754 -0.1268
13696SOL    HW244043   0.952   1.593   0.895  0.0215 -0.0230 -1.3153
13697SOL     OW44044   2.198   5.464   5.435 -0.2224  0.6998 -0.2421
13697SOL    HW144045   2.106   5.487   5.449 -0.5178  0.1905 -1.2927
13697SOL    HW244046   2.235   5.539   5.389  0.0584  1.1654  0.7037
13698SOL     OW44047   0.553   7.791   5.401 -0.0532 -0.1744  0.2503
13698SOL    HW144048   0.554   7.719   5.463 -0.3792  1.2061  1.9297
13698SOL    HW244049   0.472   7.838   5.420  1.3916  2.1573  1.0683
13699SOL     OW44050   0.682   7.223   0.024  0.5436  0.1674  0.1541
13699SOL    HW144051   0.747   7.155   0.042  0.6478  0.2045 -0.0818
13699SOL    HW244052   0.630   7.187  -0.047  0.3718  0.1835  0.2723
13700SOL     OW44053   3.979   6.815   3.093 -0.2678  0.3890  0.4990
13700SOL    HW144054   4.029   6.818   3.175  0.6991 -0.4982 -0.0358
13700SOL    HW244055   4.027   6.872   3.034 -1.0979  1.2154  0.6023
13701SOL     OW44056   3.561   4.145   5.042  1.1584  0.0927 -0.9629
13701SOL    HW144057   3.649   4.170   5.072  1.1082 -0.4009 -0.3855
13701SOL    HW244058   3.573   4.121   4.950  1.6964 -0.2999 -0.7986
13702SOL     OW44059   6.029   0.552   1.980  1.0797  0.2430  0.5121
13702SOL    HW144060   6.024   0.545   1.884 -1.6346 -0.4194  0.6208
13702SOL    HW244061   6.079   0.632   1.996 -1.0885  2.1492 -1.5580
13703SOL     OW44062   6.931   7.250   6.093  0.2974 -0.4911 -0.0682
13703SOL    HW144063   6.900   7.270   6.005  1.3593  2.7435  0.1559
13703SOL    HW244064   6.976   7.166   6.084 -0.1144 -0.5273 -2.4741
13704SOL     OW44065   2.010   4.755   6.810 -0.0145  0.2981  0.1303
13704SOL    HW144066   1.974   4.710   6.887 -0.3617 -3.5971 -2.0166
13704SOL    HW244067   2.097   4.716   6.799  0.8223  2.2285 -0.4168
13705SOL     OW44068   4.111   2.568   5.206  0.0550  0.0367  0.1064
13705SOL    HW144069   4.179   2.564   5.273 -0.2074 -0.1358  0.3666
13705SOL    HW244070   4.068   2.482   5.210 -0.4895  0.3134  0.2754
13706SOL     OW44071   2.868   0.841   4.415 -0.3428  0.2997 -0.1783
13706SOL    HW144072   2.938   0.789   4.454 -0.6707  0.1966  0.2869
13706SOL    HW244073   2.855   0.804   4.328  0.7422  0.8545 -0.5871
13707SOL     OW44074   7.311   4.816   1.399  0.2983 -0.2675  0.4800
13707SOL    HW144075   7.239   4.855   1.349 -0.1326  1.6316  2.4160
13707SOL    HW244076   7.274   4.738   1.439  0.1542 -0.8511 -0.7625
13708SOL     OW44077   7.650   1.771   1.923 -0.3697 -0.5344 -0.0165
13708SOL    HW144078   7.693   1.693   1.889 -0.9360 -1.3070  1.0065
13708SOL    HW244079   7.719   1.818   1.970 -0.5625 -1.6442  1.4104
13709SOL     OW44080   3.307   0.182   6.955  0.0885  0.9337 -0.0316
13709SOL    HW144081   3.234   0.176   7.017  0.6293  1.7949  0.7173
13709SOL    HW244082   3.376   0.226   7.004  0.5877  1.5071 -1.2116
13710SOL     OW44083   6.428   0.779   4.966  0.7045  0.4902  0.5880
13710SOL    HW144084   6.354   0.838   4.981  0.4650  0.2701  0.2881
13710SOL    HW244085   6.494   0.807   5.029 -0.0362 -0.0007  1.6176
13711SOL     OW44086   0.169   8.133   6.973 -0.5209  0.3109 -0.3902
13711SOL    HW144087   0.076   8.146   6.992 -0.5234 -1.8771  1.5792
13711SOL    HW244088   0.171   8.085   6.891 -1.0735  0.8888 -0.7493
13712SOL     OW44089   7.425   3.212   0.880 -0.0661  0.2157 -0.1354
13712SOL    HW144090   7.348   3.172   0.839  0.9524  1.7172 -3.9869
13712SOL    HW244091   7.390   3.286   0.929 -1.2154  0.0805 -0.7060
13713SOL     OW44092   6.355   4.833   6.425  0.0642  0.0041 -0.6867
13713SOL    HW144093   6.305   4.752   6.435  0.4135 -0.0650  0.7191
13713SOL    HW244094   6.379   4.835   6.332 -0.4785 -1.1753 -0.8746
13714SOL     OW44095   1.412   7.633   1.765  0.4129 -0.0855  0.4558
13714SOL    HW144096   1.413   7.720   1.806  1.0076  1.2793 -2.2561
13714SOL    HW244097   1.325   7.626   1.726  0.5808 -0.4400  0.1390
13715SOL     OW44098   5.981   0.777   0.859  0.3687 -0.0035  0.1910
13715SOL    HW144099   6.015   0.782   0.949 -0.4505  0.1025  0.4984
13715SOL    HW244100   5.896   0.819   0.863  0.8721  1.1768 -0.9186
13716SOL     OW44101   4.664   2.091   4.266  0.1995  0.0496 -0.1196
13716SOL    HW144102   4.646   2.057   4.353 -1.4784  0.6815 -0.1660
13716SOL    HW244103   4.580   2.127   4.237  0.9078  0.5425 -1.6867
13717SOL     OW44104   7.343   0.101   2.266 -0.3491  0.3244 -0.5929
13717SOL    HW144105   7.352   0.110   2.361  0.7742 -1.1324 -0.5277
13717SOL    HW244106   7.393   0.175   2.230  0.4891  0.0429 -0.0431
13718SOL     OW44107   1.995   4.035   0.147 -0.2341  0.1677 -0.2617
13718SOL    HW144108   2.058   3.989   0.092 -0.3539 -0.3545  0.0303
13718SOL    HW244109   2.020   4.128   0.141 -0.6902  0.2191 -1.7802
13719SOL     OW44110   4.910   4.508   5.264 -0.5621  0.2779 -0.2390
13719SOL    HW144111   4.847   4.567   5.305  0.0630  1.2522 -0.6345
13719SOL    HW244112   4.883   4.421   5.292 -1.8662  0.6974 -0.1242
13720SOL     OW44113   1.944   6.717   3.227 -0.2593 -0.7344  0.2487
13720SOL    HW144114   2.008   6.753   3.288 -0.0122 -1.0377  0.1656
13720SOL    HW244115   1.992   6.652   3.176  0.3880  1.6568 -2.4325
13721SOL     OW44116   6.061   2.343   7.145  0.4160  0.2053 -0.2436
13721SOL    HW144117   6.049   2.297   7.228  1.0973 -0.8568 -0.7035
13721SOL    HW244118   6.121   2.415   7.166  0.6177 -0.0809  0.1768
13722SOL     OW44119   7.374   5.143   6.091 -0.0996  0.2684  0.3516
13722SOL    HW144120   7.291   5.100   6.108 -0.2587  0.6295  0.4985
13722SOL    HW244121   7.435   5.071   6.075 -0.2848 -0.0315  0.9364
13723SOL     OW44122   0.290   0.657   1.341  0.4256 -0.2569 -0.5632
13723SOL    HW144123   0.253   0.719   1.278  2.8994  0.7512 -1.1545
13723SOL    HW244124   0.333   0.591   1.287 -2.1975 -2.6620  0.0593
13724SOL     OW44125   6.126   7.968   7.499  0.0925 -0.1152  0.3045
13724SOL    HW144126   6.145   7.934   7.412 -1.2256 -0.4660  0.1302
13724SOL    HW244127   6.198   8.028   7.518  0.9333 -0.8084 -0.5916
13725SOL     OW44128   0.555   3.920   1.735  0.3877  0.1182 -0.0638
13725SOL    HW144129   0.488   3.973   1.779  0.7397  0.5211 -0.0047
13725SOL    HW244130   0.530   3.923   1.643  0.4168  0.4115 -0.0648
13726SOL     OW44131   1.568   6.705   4.371  0.5697 -0.0854  0.1975
13726SOL    HW144132   1.594   6.632   4.314 -0.3939  0.0164 -0.3947
13726SOL    HW244133   1.516   6.664   4.440  2.2669 -0.2978  1.4233
13727SOL     OW44134   7.508   5.688   7.381 -0.2809  0.1138 -0.0122
13727SOL    HW144135   7.586   5.701   7.435 -0.0907 -0.4597 -0.1336
13727SOL    HW244136   7.509   5.594   7.360  0.2800  0.5118 -1.9608
13728SOL     OW44137   0.684   3.092   6.356  0.3173  0.4172  0.4006
13728SOL    HW144138   0.764   3.129   6.319  0.4841  0.4967  0.8382
13728SOL    HW244139   0.708   3.066   6.445  0.5169 -1.8143 -0.2483
13729SOL     OW44140   0.595   5.409   6.551  0.4682 -0.2283  0.4626
13729SOL    HW144141   0.605   5.372   6.463 -0.4385  1.5150 -0.4212
13729SOL    HW244142   0.585   5.333   6.608 -1.3666 -1.3704 -1.2766
13730SOL     OW44143   0.945   2.520   8.018 -0.1814 -0.6303 -0.9648
13730SOL    HW144144   0.948   2.425   8.013  0.9676 -0.5956 -1.3432
13730SOL    HW244145   0.918   2.539   8.108 -1.4369 -1.2987 -1.1850
13731SOL     OW44146   7.482   0.691   7.476 -0.1951 -0.0372 -0.0956
13731SOL    HW144147   7.575   0.681   7.491 -0.6971 -1.0866  3.0114
13731SOL    HW244148   7.461   0.626   7.409  1.2722  0.3169 -0.9432
13732SOL     OW44149   5.986   0.726   3.037  0.1683 -0.1029  0.3626
13732SOL    HW144150   5.955   0.802   3.087  2.2152  1.5652 -0.7612
13732SOL    HW244151   5.934   0.727   2.957  0.5503  0.4602  0.1151
13733SOL     OW44152   3.761   2.773   3.428  0.0133 -0.4684 -0.2285
13733SOL    HW144153   3.672   2.747   3.404 -0.3897  0.7892 -0.1807
13733SOL    HW244154   3.764   2.765   3.524 -0.0250 -0.6039 -0.2398
13734SOL     OW44155   5.416   0.629   5.216 -0.2539 -0.2591 -0.2006
13734SOL    HW144156   5.452   0.690   5.280 -2.8441  1.9210 -0.6541
13734SOL    HW244157   5.455   0.655   5.133 -0.3859 -0.0181 -0.1896
13735SOL     OW44158   5.229   4.808   6.570 -0.1374  0.2963 -0.0871
13735SOL    HW144159   5.316   4.800   6.529 -0.0954 -0.4261  0.1353
13735SOL    HW244160   5.247   4.843   6.657  0.0849 -1.1926  0.4996
13736SOL     OW44161   2.324   0.803   2.475 -0.0593 -0.1048  0.6766
13736SOL    HW144162   2.371   0.744   2.533  2.3488  0.4722 -0.5737
13736SOL    HW244163   2.350   0.776   2.387 -3.8077 -1.1280 -0.2942
13737SOL     OW44164   5.078   3.736   3.452 -0.5155  0.2663  0.4250
13737SOL    HW144165   4.994   3.707   3.418 -0.8773  2.3800 -0.5997
13737SOL    HW244166   5.073   3.720   3.546 -1.8775 -0.0018  0.3192
13738SOL     OW44167   3.715   1.088   1.172  0.0910  0.4510  0.3748
13738SOL    HW144168   3.736   0.995   1.182 -0.2580  0.3861  0.5313
13738SOL    HW244169   3.795   1.134   1.198  0.1665  0.2012  0.5874
13739SOL     OW44170   4.577   2.703   6.440 -0.2092 -0.2040 -0.1539
13739SOL    HW144171   4.529   2.781   6.469  2.2383  1.1505  0.5571
13739SOL    HW244172   4.626   2.733   6.363 -0.4848 -1.5514 -0.8871
13740SOL     OW44173   2.315   6.742   0.546  0.4778 -0.8644 -0.1905
13740SOL    HW144174   2.239   6.718   0.599 -0.1700 -1.2285 -1.2516
13740SOL    HW244175   2.287   6.725   0.456  1.5230 -0.1824 -0.6542
13741SOL     OW44176   7.515   4.656   1.900  0.3235 -0.6607  0.3804
13741SOL    HW144177   7.453   4.638   1.829  0.1454 -0.3473  0.4547
13741SOL    HW244178   7.599   4.669   1.855  0.1523 -0.1483  0.1907
13742SOL     OW44179   1.549   5.262   0.624 -0.6992  0.0886  0.4001
13742SOL    HW144180   1.527   5.312   0.703 -2.9077  0.3831 -0.3112
13742SOL    HW244181   1.553   5.328   0.555 -0.3544 -0.3420  0.0048
13743SOL     OW44182   5.897   7.845   7.574 -0.4333 -0.3894  0.0833
13743SOL    HW144183   5.977   7.891   7.548  0.6284 -1.6047  1.0733
13743SOL    HW244184   5.830   7.913   7.573  0.6256  0.7065 -0.6219
13744SOL     OW44185   6.750   7.503   6.169 -0.1951 -0.7310  0.1755
13744SOL    HW144186   6.841   7.517   6.143  0.5797 -1.5140  2.2433
13744SOL    HW244187   6.746   7.410   6.194 -0.5049  0.0719  3.6502
13745SOL     OW44188   4.934   5.261   2.097 -0.4701 -0.0070  1.0487
13745SOL    HW144189   4.962   5.339   2.144  1.5585  0.1615 -0.3318
13745SOL    HW244190   4.935   5.192   2.163 -2.6544  1.1132  2.3747
13746SOL     OW44191   0.964   0.438   0.459  0.2407  0.2530 -0.1144
13746SOL    HW144192   1.000   0.452   0.372 -0.3672  2.2720 -0.0840
13746SOL    HW244193   1.019   0.368   0.496  1.2642  0.1865 -1.6581
13747SOL     OW44194   4.420   1.101   1.720 -0.8791  0.1544  0.3956
13747SOL    HW144195   4.429   1.030   1.783 -2.3147  0.3895  0.9140
13747SOL    HW244196   4.376   1.061   1.645 -0.4149  0.1847  0.1038
13748SOL     OW44197   0.136   0.473   5.337  0.7203 -0.1386  0.0443
13748SOL    HW144198   0.131   0.504   5.246  1.4038  0.4154  0.1813
13748SOL    HW244199   0.215   0.515   5.372  2.1114 -2.5857  0.0563
13749SOL     OW44200   6.320   0.401   6.673 -0.1073 -0.5498  0.3429
13749SOL    HW144201   6.359   0.445   6.597 -1.1280  0.4641  0.3941
13749SOL    HW244202   6.369   0.434   6.748 -0.1762 -0.3070  0.2809
13750SOL     OW44203   0.376   7.437   6.655  0.2215  0.3809 -0.3289
13750SOL    HW144204   0.416   7.378   6.591  0.7651  0.0176  0.3349
13750SOL    HW244205   0.397   7.525   6.623  0.7744  0.2016 -0.4689
13751SOL     OW44206   0.205   5.540   5.860 -0.1223  0.1179  0.0440
13751SOL    HW144207   0.257   5.460   5.861 -1.9290 -1.2884 -2.7891
13751SOL    HW244208   0.259   5.603   5.813  0.7276  0.1306  1.0055
13752SOL     OW44209   5.700   1.231   3.704 -0.1378  0.3203 -0.6107
13752SOL    HW144210   5.772   1.178   3.737 -0.3251 -0.7309 -1.8203
13752SOL    HW244211   5.705   1.313   3.754  0.1223 -0.8269  1.3413
13753SOL     OW44212   2.946   7.273   6.078  0.1029 -0.4523  0.3779
13753SOL    HW144213   2.895   7.318   6.010  0.7722  1.2363  0.9566
13753SOL    HW244214   3.035   7.271   6.044  0.0733 -1.5360  0.3010
13754SOL     OW44215   3.580   3.107   3.559 -0.4250  0.3154 -1.3091
13754SOL    HW144216   3.580   3.062   3.644 -1.9949 -0.4386 -1.6782
13754SOL    HW244217   3.660   3.160   3.561  0.3745 -0.8485  0.0181
13755SOL     OW44218   6.242   4.374   6.631 -0.1751  0.1378 -0.1531
13755SOL    HW144219   6.204   4.307   6.688 -1.1585  0.4628 -0.3978
13755SOL    HW244220   6.308   4.328   6.579  0.1477 -0.3337  0.6638
13756SOL     OW44221   3.995   3.183   6.316  0.4159  0.1435 -0.4428
13756SOL    HW144222   3.938   3.242   6.366  0.4330 -0.0443 -0.2012
13756SOL    HW244223   3.943   3.159   6.240 -0.4380 -1.2405  0.5264
13757SOL     OW44224   1.926   0.693   5.464 -0.3253  0.4024 -0.3844
13757SOL    HW144225   1.917   0.751   5.539 -0.7060  0.5493 -0.5379
13757SOL    HW244226   2.020   0.682   5.453 -0.2531  0.8399 -0.2386
13758SOL     OW44227   6.278   5.866   4.231  0.0616 -0.1383 -0.4408
13758SOL    HW144228   6.192   5.898   4.206 -0.1694 -0.9411 -0.6910
13758SOL    HW244229   6.294   5.791   4.174  0.4311 -0.6981  0.3764
13759SOL     OW44230   1.596   5.709   2.512 -0.3007 -0.3444 -0.4719
13759SOL    HW144231   1.527   5.660   2.558  0.1423  0.3231  0.9636
13759SOL    HW244232   1.591   5.677   2.422 -2.5138 -0.2865 -0.4336
13760SOL     OW44233   5.458   4.909   0.531 -0.5171 -0.2650  0.1327
13760SOL    HW144234   5.444   4.994   0.572  2.1764  0.2989  0.0698
13760SOL    HW244235   5.473   4.849   0.605 -0.8715 -0.3627  0.1266
13761SOL     OW44236   3.425   6.613   3.972 -0.3268  0.5829  1.0441
13761SOL    HW144237   3.481   6.639   3.899  0.3588 -1.2783  0.8544
13761SOL    HW244238   3.340   6.654   3.952 -0.3950 -0.4657 -1.2379
13762SOL     OW44239   7.649   2.543   0.041  0.1447 -0.6496  0.6455
13762SOL    HW144240   7.627   2.506  -0.044  0.7907  0.3205  0.0264
13762SOL    HW244241   7.601   2.490   0.104 -1.1091 -0.7951 -0.3898
13763SOL     OW44242   1.207   2.499   5.508 -0.8750  0.3112 -0.2477
13763SOL    HW144243   1.245   2.493   5.596 -0.3261  1.1319 -0.4172
13763SOL    HW244244   1.152   2.421   5.500 -1.0486  0.3057  0.8765
13764SOL     OW44245   5.622   2.676   3.916  0.2888  0.1655 -0.1612
13764SOL    HW144246   5.715   2.654   3.920  1.1841  3.3188 -0.8055
13764SOL    HW244247   5.601   2.677   3.822 -0.3388 -0.3247 -0.0299
13765SOL     OW44248   5.098   7.332   2.064 -0.2266  0.1607  0.2660
13765SOL    HW144249   5.102   7.403   2.127  0.8912  0.0054  0.3872
13765SOL    HW244250   5.104   7.252   2.116 -0.5861 -0.0068  0.0590
13766SOL     OW44251   3.593   6.967   3.973  0.0565  0.0868 -0.0000
13766SOL    HW144252   3.576   6.919   3.892  0.4226 -0.3400  0.1682
13766SOL    HW244253   3.674   6.928   4.007 -0.5106 -0.2925  0.9733
13767SOL     OW44254   5.136   0.955   4.580  0.1915  0.1531  0.0426
13767SOL    HW144255   5.146   1.026   4.516  0.2460  0.0184 -0.0977
13767SOL    HW244256   5.159   0.876   4.532 -0.4793 -0.0361  0.0175
13768SOL     OW44257   3.736   4.447   0.363  0.8999 -0.2119 -0.1462
13768SOL    HW144258   3.734   4.355   0.386  0.2477 -0.3537 -0.7476
13768SOL    HW244259   3.647   4.467   0.333  1.4975  0.1599 -1.7292
13769SOL     OW44260   1.348   2.184   5.397  0.3565 -0.4770  0.4648
13769SOL    HW144261   1.334   2.101   5.444 -1.6269  0.2719  1.3049
13769SOL    HW244262   1.290   2.246   5.441  1.2000  1.1691 -0.6706
13770SOL     OW44263   0.238   5.605   4.079 -0.3260 -0.1055 -0.9315
13770SOL    HW144264   0.265   5.693   4.053 -1.1200  0.8523  1.2464
13770SOL    HW244265   0.320   5.557   4.092  0.3535  1.5927  1.8195
13771SOL     OW44266   2.926   2.337   5.292  0.1360  0.1179  0.1883
13771SOL    HW144267   2.886   2.394   5.227  0.7267 -1.1211 -1.3217
13771SOL    HW244268   2.867   2.261   5.298  2.1889 -1.8533 -2.2619
13772SOL     OW44269   1.961   6.038   7.958 -0.0242  0.0581  0.1470
13772SOL    HW144270   1.992   6.063   7.871 -1.3828 -0.6999 -0.5848
13772SOL    HW244271   1.951   5.943   7.953 -0.9006  0.1035  0.8545
13773SOL     OW44272   2.126   5.178   7.939 -0.0602  0.8099  0.0170
13773SOL    HW144273   2.080   5.146   7.860  1.7462  0.8993 -1.1176
13773SOL    HW244274   2.139   5.099   7.992 -0.2534  0.5441 -0.3258
13774SOL     OW44275   5.031   7.113   0.252  0.2735  0.2449  0.0021
13774SOL    HW144276   4.987   7.029   0.262 -1.2884  1.1227  0.7281
13774SOL    HW244277   5.058   7.136   0.341 -0.3166  1.0425 -0.0239
13775SOL     OW44278   5.481   3.924   5.289  0.3906  0.2967 -0.2385
13775SOL    HW144279   5.462   3.925   5.196  0.9383  1.3170 -0.3471
13775SOL    HW244280   5.427   3.994   5.326 -0.5169 -0.6754  0.3743
13776SOL     OW44281   3.421   6.688   0.383 -0.2574 -0.1048  0.2348
13776SOL    HW144282   3.505   6.650   0.358  0.4567  1.2565  0.4625
13776SOL    HW244283   3.423   6.776   0.347 -1.8394 -0.2338 -0.2332
13777SOL     OW44284   5.351   5.415   3.447  0.0467  0.5808  0.1251
13777SOL    HW144285   5.439   5.443   3.472  0.2721 -0.9055  1.0570
13777SOL    HW244286   5.319   5.486   3.390  0.5979  2.6956  2.3057
13778SOL     OW44287   3.483   2.333   7.920  0.4046 -0.3996 -0.4845
13778SOL    HW144288   3.493   2.401   7.853  1.8292  1.5281  1.5331
13778SOL    HW244289   3.404   2.358   7.968 -1.1018 -2.2525 -1.8576
13779SOL     OW44290   7.482   6.672   3.315  0.0883 -0.3897 -0.9362
13779SOL    HW144291   7.552   6.678   3.379 -0.3117 -0.9007 -0.4309
13779SOL    HW244292   7.402   6.670   3.368 -0.2245 -1.2901 -1.4127
13780SOL     OW44293   0.942   5.373   6.258  0.3007 -0.6570  0.3292
13780SOL    HW144294   0.974   5.451   6.214  0.0973 -0.9087 -0.2659
13780SOL    HW244295   0.991   5.301   6.219 -0.8785 -1.0351 -0.5194
13781SOL     OW44296   7.965   6.776   2.372  0.3701 -0.7547  0.0587
13781SOL    HW144297   7.871   6.791   2.358  0.5574  0.7812  0.2433
13781SOL    HW244298   8.006   6.803   2.290  0.8566  1.3785  0.9387
13782SOL     OW44299   4.049   1.832   3.069 -0.1929 -0.4176  0.3728
13782SOL    HW144300   4.107   1.861   2.998 -0.6314  0.0075  0.1813
13782SOL    HW244301   4.038   1.738   3.055 -1.5985 -0.0727 -1.1266
13783SOL     OW44302   0.910   6.661   5.100 -0.0113  0.3058  0.4126
13783SOL    HW144303   0.823   6.683   5.067  0.4721  0.6680 -0.6737
13783SOL    HW244304   0.926   6.725   5.169 -1.4205 -1.0389  2.0700
13784SOL     OW44305   4.381   5.318   3.837 -0.6626  0.4115  0.1592
13784SOL    HW144306   4.331   5.236   3.836 -1.4985  0.8769  1.7089
13784SOL    HW244307   4.338   5.373   3.771 -0.5580 -0.1051 -0.3573
13785SOL     OW44308   0.825   1.875   7.328  0.6146 -0.2508  0.0932
13785SOL    HW144309   0.831   1.955   7.381 -0.9471 -0.0921  0.0566
13785SOL    HW244310   0.912   1.868   7.287  1.1122  0.8605  0.8919
13786SOL     OW44311   2.622   7.736   4.391  0.1595  0.6661  0.2535
13786SOL    HW144312   2.660   7.648   4.386  0.3683  0.8156 -1.0212
13786SOL    HW244313   2.574   7.736   4.474 -4.1603 -2.4088 -1.8431
13787SOL     OW44314   1.198   3.061   8.106  0.2289  0.6480 -0.1129
13787SOL    HW144315   1.265   3.125   8.080 -0.2912  0.4494 -2.1051
13787SOL    HW244316   1.243   3.002   8.166  1.6721  0.9039 -0.9007
13788SOL     OW44317   2.035   6.064   6.983  0.7928  0.1959 -0.0952
13788SOL    HW144318   1.966   6.106   6.931  1.3779  0.4712 -0.6661
13788SOL    HW244319   2.053   5.982   6.936  0.8024  0.0908  0.0927
13789SOL     OW44320   6.221   3.881   4.967  0.1462 -0.0396  0.1510
13789SOL    HW144321   6.188   3.800   5.006 -1.6291  0.1466 -0.8884
13789SOL    HW244322   6.168   3.894   4.889  2.4845  0.5042 -1.4572
13790SOL     OW44323   4.718   0.484   6.832 -0.5369  0.3579 -0.2531
13790SOL    HW144324   4.801   0.446   6.859 -1.1129  0.5461  2.0030
13790SOL    HW244325   4.692   0.433   6.755  0.8585 -0.8054  0.0015
13791SOL     OW44326   4.342   5.501   4.862  0.1639  0.3902  0.5043
13791SOL    HW144327   4.341   5.441   4.787  1.5838 -0.9551  1.5058
13791SOL    HW244328   4.342   5.588   4.822 -0.9444 -0.2557 -1.0102
13792SOL     OW44329   6.618   7.912   4.994 -0.0654 -0.4959  0.0600
13792SOL    HW144330   6.654   7.839   4.944 -0.3086 -2.0907  2.0853
13792SOL    HW244331   6.589   7.975   4.927  3.0569 -0.7466 -1.7120
13793SOL     OW44332   3.815   3.263   6.898 -0.1222 -1.0905 -0.8687
13793SOL    HW144333   3.906   3.280   6.874  0.2872 -2.2082 -0.1680
13793SOL    HW244334   3.807   3.295   6.987 -1.0996  1.2071 -1.7152
13794SOL     OW44335   4.281   1.512   5.166  0.2608  0.2628  0.3841
13794SOL    HW144336   4.309   1.588   5.116 -0.2288  0.3761  0.2750
13794SOL    HW244337   4.281   1.542   5.257  0.2366  0.3415  0.3584
13795SOL     OW44338   0.141   0.708   0.692  0.3310  0.4684  0.2218
13795SOL    HW144339   0.129   0.744   0.780  1.1510  1.4347 -0.0410
13795SOL    HW244340   0.066   0.651   0.679 -0.3158  1.0676  1.1774
13796SOL     OW44341   2.570   5.063   2.210  0.3047 -0.1737 -0.0186
13796SOL    HW144342   2.593   5.139   2.156  0.4401  0.1428  0.4777
13796SOL    HW244343   2.567   5.097   2.300  2.6608 -1.2134  0.5264
13797SOL     OW44344   1.977   1.980   3.273  0.4314 -0.6570  0.4121
13797SOL    HW144345   1.922   2.018   3.204 -0.0354 -0.5022  0.8681
13797SOL    HW244346   2.057   1.955   3.227  0.7974  0.9431  0.1037
13798SOL     OW44347   7.539   5.119   6.399 -0.0137  0.0667 -0.1839
13798SOL    HW144348   7.554   5.186   6.466 -1.0158  0.8720 -0.7407
13798SOL    HW244349   7.514   5.168   6.321 -0.4993 -0.9456 -0.6796
13799SOL     OW44350   5.215   3.799   3.782 -0.2771 -0.7789 -0.3238
13799SOL    HW144351   5.129   3.757   3.780 -0.4791 -0.9620  3.8141
13799SOL    HW244352   5.196   3.893   3.789 -0.0284 -0.6659 -0.9949
13800SOL     OW44353   5.499   4.078   7.984  0.5560 -0.6615 -0.5303
13800SOL    HW144354   5.413   4.118   8.001  0.3537 -1.9056  1.7073
13800SOL    HW244355   5.553   4.103   8.058  1.8722 -0.6943 -1.4350
13801SOL     OW44356   1.460   0.345   7.168 -0.3952 -0.3478  0.0900
13801SOL    HW144357   1.495   0.427   7.131 -0.1883 -0.2671  0.4656
13801SOL    HW244358   1.367   0.364   7.182 -0.6002 -0.5520 -0.8768
13802SOL     OW44359   5.997   4.167   4.859 -0.3351 -0.2060 -0.1519
13802SOL    HW144360   5.959   4.255   4.867  0.0695 -0.1361  1.4894
13802SOL    HW244361   6.081   4.182   4.816 -0.2591  0.2215  0.1331
13803SOL     OW44362   7.424   7.083   7.339  0.3585  0.3191  0.5022
13803SOL    HW144363   7.417   7.123   7.252 -1.4402 -0.8820  0.0360
13803SOL    HW244364   7.340   7.038   7.351  1.4009 -1.3253  1.9724
13804SOL     OW44365   0.888   0.293   1.330  0.2368 -0.0499  0.4739
13804SOL    HW144366   0.966   0.317   1.280  0.2727  3.1096  1.8561
13804SOL    HW244367   0.922   0.262   1.414  0.0334 -2.0589 -0.1134
13805SOL     OW44368   0.388   4.935   2.806 -0.1687 -0.4047  0.2377
13805SOL    HW144369   0.453   4.962   2.870 -1.3095  1.1051  0.8114
13805SOL    HW244370   0.325   5.007   2.802 -2.2246 -2.0717  0.2408
13806SOL     OW44371   2.795   3.788   5.576 -0.2370  0.0100 -0.8767
13806SOL    HW144372   2.839   3.838   5.508  2.3597  0.7373  1.1981
13806SOL    HW244373   2.753   3.854   5.632 -1.7132 -0.5356 -1.2833
13807SOL     OW44374   6.809   8.106   2.846 -0.1411 -0.0563 -0.4074
13807SOL    HW144375   6.805   8.184   2.791  0.0312  0.6793  0.5879
13807SOL    HW244376   6.720   8.069   2.843 -0.3724  0.5005 -0.4251
13808SOL     OW44377   2.812   0.778   1.092  0.2282 -0.1080  0.2253
13808SOL    HW144378   2.822   0.848   1.156 -1.7938  0.5319 -0.0897
13808SOL    HW244379   2.807   0.823   1.008  1.1554 -0.8211 -0.2378
13809SOL     OW44380   5.210   6.327   5.389  0.1119  0.2335 -0.2376
13809SOL    HW144381   5.179   6.247   5.347  0.1050  0.5701 -0.8959
13809SOL    HW244382   5.140   6.352   5.448 -0.5547  0.5684 -1.1393
13810SOL     OW44383   4.733   3.018   6.620 -0.8065  0.3868 -0.2035
13810SOL    HW144384   4.799   2.954   6.593 -1.3190 -0.0852 -0.3532
13810SOL    HW244385   4.763   3.100   6.582  0.9063  0.6815  1.6047
13811SOL     OW44386   7.358   4.767   5.926 -0.7505 -0.0931  0.0055
13811SOL    HW144387   7.357   4.789   6.019 -1.4334 -1.1878  0.2773
13811SOL    HW244388   7.398   4.680   5.922 -1.7656 -0.5549 -0.5872
13812SOL     OW44389   5.267   7.173   4.351  0.2161 -0.3040  0.1866
13812SOL    HW144390   5.341   7.116   4.371  0.7174 -0.2527 -1.4009
13812SOL    HW244391   5.246   7.155   4.260 -1.5233 -0.0574  0.4960
13813SOL     OW44392   7.676   5.129   7.837 -0.0146 -0.1823 -0.1449
13813SOL    HW144393   7.752   5.071   7.838  2.6910  3.0768  0.7206
13813SOL    HW244394   7.638   5.120   7.925 -0.5810 -1.6272 -0.4994
13814SOL     OW44395   1.748   6.790   7.854  0.7973  0.0280 -0.0330
13814SOL    HW144396   1.750   6.857   7.785  0.1905  1.1417  0.9831
13814SOL    HW244397   1.819   6.730   7.831 -1.0605 -1.2236 -3.1152
13815SOL     OW44398   2.457   4.972   4.606 -0.2758  0.4865  0.5940
13815SOL    HW144399   2.535   4.920   4.588 -1.4773 -1.9300  1.9578
13815SOL    HW244400   2.481   5.028   4.680  0.3980  0.3330  0.4924
13816SOL     OW44401   4.921   4.753   5.108  0.1631 -0.5099 -0.1447
13816SOL    HW144402   4.917   4.773   5.202  0.8354  2.5756 -0.6565
13816SOL    HW244403   5.009   4.717   5.095  0.6861  0.5892  0.2149
13817SOL     OW44404   1.854   0.230   6.516 -0.1433  0.0011  0.4230
13817SOL    HW144405   1.845   0.157   6.454  0.3120 -0.0184  0.3781
13817SOL    HW244406   1.807   0.201   6.594  0.5204 -0.5914  0.6186
13818SOL     OW44407   1.771   7.211   1.952 -0.0502 -0.3941  0.1929
13818SOL    HW144408   1.766   7.156   1.874 -0.0100 -0.8206  0.4893
13818SOL    HW244409   1.694   7.187   2.004 -0.8985  0.9392 -0.3902
13819SOL     OW44410   7.032   5.892   5.948  0.0823 -0.1062 -0.6732
13819SOL    HW144411   6.964   5.944   5.991  0.2069  0.0060 -0.6111
13819SOL    HW244412   7.025   5.806   5.989 -0.8569 -0.4660 -1.5523
13820SOL     OW44413   2.012   1.288   2.649 -0.7319  0.0007 -0.2126
13820SOL    HW144414   2.090   1.319   2.695 -0.0434 -0.2222 -1.2019
13820SOL    HW244415   2.007   1.195   2.672 -1.1248  0.1743  0.4230
13821SOL     OW44416   5.833   8.060   5.907  0.1121  0.2134 -0.3912
13821SOL    HW144417   5.814   8.091   5.818 -0.0331  0.2054 -0.3621
13821SOL    HW244418   5.852   7.967   5.896  1.9321  0.5744 -0.6877
13822SOL     OW44419   0.060   3.323   1.451 -0.5292 -0.1099 -0.5759
13822SOL    HW144420   0.029   3.410   1.425  0.0937  0.0218 -0.9115
13822SOL    HW244421   0.155   3.331   1.450 -0.4748 -0.4331  0.6795
13823SOL     OW44422   0.010   4.115   5.958  0.2295  0.0491 -0.4762
13823SOL    HW144423   0.087   4.064   5.933  0.8148  0.4595  0.4182
13823SOL    HW244424  -0.065   4.064   5.927  0.8681 -0.1850 -1.6615
13824SOL     OW44425   3.642   1.767   5.550 -0.1845 -0.0513  0.4777
13824SOL    HW144426   3.618   1.829   5.619 -1.3814 -0.2478  0.2600
13824SOL    HW244427   3.575   1.700   5.554  0.9204 -1.1895  0.4947
13825SOL     OW44428   3.413   1.232   3.359 -0.3837 -0.5963  0.2141
13825SOL    HW144429   3.478   1.282   3.407 -2.1152  0.4252  1.6454
13825SOL    HW244430   3.358   1.193   3.427 -1.0344 -1.7364 -0.9263
13826SOL     OW44431   6.706   7.636   1.210  0.2621  0.0696 -0.2754
13826SOL    HW144432   6.752   7.720   1.212  0.6751 -0.1586 -0.1306
13826SOL    HW244433   6.622   7.657   1.171  0.4460  0.5124 -0.4489
13827SOL     OW44434   7.719   6.684   4.161 -0.6880  0.5772 -0.8349
13827SOL    HW144435   7.785   6.662   4.228 -1.1218 -0.3238 -0.6790
13827SOL    HW244436   7.635   6.676   4.207 -0.9452  0.8511 -1.2564
13828SOL     OW44437   7.328   7.870   4.124 -0.3713  0.1184  0.5700
13828SOL    HW144438   7.391   7.942   4.129 -0.0759 -0.1227  0.4190
13828SOL    HW244439   7.293   7.861   4.212  0.5217 -0.3696  0.8896
13829SOL     OW44440   4.529   6.447   7.755 -0.4957  0.1780 -0.1506
13829SOL    HW144441   4.514   6.365   7.709  0.2330 -0.7340  1.1581
13829SOL    HW244442   4.502   6.515   7.693 -2.5831 -1.0691 -0.7325
13830SOL     OW44443   4.349   7.106   2.477  0.0461  0.6057 -0.1556
13830SOL    HW144444   4.388   7.063   2.401 -0.1908 -2.7680  1.4290
13830SOL    HW244445   4.262   7.065   2.486  0.8421 -0.7381  2.9893
13831SOL     OW44446   2.348   2.165   0.116  0.0785 -0.3146  0.1191
13831SOL    HW144447   2.440   2.142   0.125 -0.0210 -2.3373 -2.7100
13831SOL    HW244448   2.302   2.081   0.123 -1.1364  0.0610 -2.3595
13832SOL     OW44449   4.969   0.673   0.607 -0.3321  0.3581 -0.4149
13832SOL    HW144450   4.884   0.645   0.639 -0.6099  0.5863 -0.9500
13832SOL    HW244451   5.007   0.595   0.566 -0.7737  0.5441 -1.2009
13833SOL     OW44452   3.189   4.165   7.951  0.0993  0.0746  0.1426
13833SOL    HW144453   3.247   4.224   7.903 -0.7731  0.5096 -0.4043
13833SOL    HW244454   3.180   4.205   8.038 -0.7953  0.9782 -0.3465
13834SOL     OW44455   2.686   6.613   4.996  0.5073 -0.2504 -0.3377
13834SOL    HW144456   2.593   6.608   4.974  0.6371 -0.0571 -0.9825
13834SOL    HW244457   2.728   6.641   4.914  0.7632  2.9510  0.7600
13835SOL     OW44458   7.536   7.124   2.851 -0.8355  0.0798  0.1159
13835SOL    HW144459   7.605   7.060   2.870  0.5632  1.2891 -0.7580
13835SOL    HW244460   7.469   7.107   2.918  0.1879 -1.2755  0.8393
13836SOL     OW44461   3.643   4.081   4.534  0.4017  0.4434 -0.1258
13836SOL    HW144462   3.579   4.149   4.515 -0.2684 -0.3438 -0.8022
13836SOL    HW244463   3.727   4.121   4.514  0.2601  1.8894  1.8937
13837SOL     OW44464   4.781   7.789   1.800  0.1571  0.2292 -0.0899
13837SOL    HW144465   4.726   7.729   1.850 -1.2360  0.9174 -0.7386
13837SOL    HW244466   4.755   7.876   1.831 -0.4541  0.6499 -1.6790
13838SOL     OW44467   2.702   0.101   6.329  0.0390 -0.1671 -0.2163
13838SOL    HW144468   2.774   0.037   6.326 -0.2795 -0.5673  0.3518
13838SOL    HW244469   2.720   0.152   6.408  0.1521  0.2797 -0.5323
13839SOL     OW44470   0.126   4.786   3.055  0.1662 -0.0381 -0.0850
13839SOL    HW144471   0.059   4.756   2.993  0.8872  2.0701 -2.0542
13839SOL    HW244472   0.154   4.871   3.020  2.4453  0.0807  1.7885
13840SOL     OW44473   4.177   4.138   1.702  0.2376 -0.9533 -0.0694
13840SOL    HW144474   4.158   4.194   1.627 -0.5090  0.9655  1.4550
13840SOL    HW244475   4.197   4.052   1.664 -2.4307 -0.7060 -2.3115
13841SOL     OW44476   6.416   6.736   6.549  0.0546 -0.1641 -0.0430
13841SOL    HW144477   6.492   6.792   6.537 -0.8149  1.1224  0.2635
13841SOL    HW244478   6.344   6.797   6.566 -1.8752 -0.9890 -4.0407
13842SOL     OW44479   5.856   0.412   0.603  0.0490  0.2751  0.0489
13842SOL    HW144480   5.909   0.480   0.646  1.3483 -0.6750  0.0107
13842SOL    HW244481   5.885   0.412   0.512  0.2356 -0.4859  0.1011
13843SOL     OW44482   5.581   7.136   0.965  0.2664  0.2212  0.6765
13843SOL    HW144483   5.487   7.116   0.973 -0.2088  1.2429 -1.4867
13843SOL    HW244484   5.587   7.229   0.990  0.2051  0.8887 -1.5621
13844SOL     OW44485   2.148   2.515   1.853  0.2444  0.5787 -0.0573
13844SOL    HW144486   2.085   2.445   1.872 -0.4841  1.2113 -0.1116
13844SOL    HW244487   2.094   2.590   1.829  1.0105  1.2688  0.3392
13845SOL     OW44488   6.458   7.920   2.300 -0.1527 -0.4004 -0.5735
13845SOL    HW144489   6.455   8.012   2.273 -2.8212 -0.5305 -0.9835
13845SOL    HW244490   6.425   7.872   2.224 -2.2226 -1.3185  0.8335
13846SOL     OW44491   0.886   0.580   6.733  0.0953  0.1795  0.4627
13846SOL    HW144492   0.913   0.671   6.745  0.6092  0.1244 -0.2704
13846SOL    HW244493   0.899   0.540   6.819  1.0252  0.4955  0.4734
13847SOL     OW44494   2.784   1.314   0.148  0.0491  0.0985  0.4663
13847SOL    HW144495   2.856   1.344   0.091  0.7867 -0.7937  0.8901
13847SOL    HW244496   2.706   1.354   0.112  0.6534  0.3944 -0.5493
13848SOL     OW44497   2.471   1.792   0.864  0.1231  0.1753 -0.4656
13848SOL    HW144498   2.479   1.701   0.894  0.9569  0.5933  0.6361
13848SOL    HW244499   2.472   1.844   0.944 -0.7514  1.1524 -1.0566
13849SOL     OW44500   5.724   2.767   6.858  0.4235  0.5074  0.8095
13849SOL    HW144501   5.705   2.837   6.920  0.0101  0.2928  0.9319
13849SOL    HW244502   5.802   2.796   6.812  0.8937  0.5456  1.6193
13850SOL     OW44503   6.845   0.816   2.821  0.3321 -0.0113 -0.1220
13850SOL    HW144504   6.771   0.830   2.880 -0.1969  0.3378 -0.8644
13850SOL    HW244505   6.881   0.731   2.848 -1.2928 -0.9482 -0.7653
13851SOL     OW44506   1.438   2.961   0.829 -0.7196  0.1866  0.0406
13851SOL    HW144507   1.385   3.038   0.808 -1.3896 -0.6948 -1.7635
13851SOL    HW244508   1.432   2.906   0.750  2.8689 -0.0056 -0.2261
13852SOL     OW44509   7.534   4.265   7.561 -0.2626 -0.2563  0.3641
13852SOL    HW144510   7.527   4.320   7.483  0.8790  0.3899  0.6908
13852SOL    HW244511   7.494   4.182   7.535 -0.5508  0.1850 -0.6743
13853SOL     OW44512   7.433   2.554   4.639  0.2234  0.5409  0.0575
13853SOL    HW144513   7.469   2.641   4.621  0.3863  0.4007 -0.2988
13853SOL    HW244514   7.405   2.521   4.553  0.5153  0.0855  0.1324
13854SOL     OW44515   3.069   5.844   5.906 -0.0464 -0.4430 -0.1018
13854SOL    HW144516   3.108   5.760   5.930 -0.9675 -0.6056  0.9097
13854SOL    HW244517   3.023   5.827   5.824  0.3947 -0.7254 -0.2953
13855SOL     OW44518   5.325   1.356   1.354 -0.0591 -0.0332 -0.1491
13855SOL    HW144519   5.304   1.419   1.424 -1.2191  0.0341 -0.5240
13855SOL    HW244520   5.348   1.276   1.400 -3.1637 -0.7558  0.4218
13856SOL     OW44521   1.088   5.316   6.544 -0.5502  0.3747  0.4569
13856SOL    HW144522   1.016   5.254   6.557 -0.8882  0.2588 -1.6781
13856SOL    HW244523   1.044   5.399   6.524 -0.1063  0.3777 -0.5451
13857SOL     OW44524   3.350   5.827   6.529 -0.3406 -0.4761 -0.1496
13857SOL    HW144525   3.415   5.862   6.468 -2.1510  1.9943 -0.7880
13857SOL    HW244526   3.312   5.752   6.484  0.2824 -0.3950 -0.8223
13858SOL     OW44527   7.801   5.734   4.406 -0.8193  0.2552 -0.1629
13858SOL    HW144528   7.791   5.657   4.461 -2.2361  0.6306  0.1529
13858SOL    HW244529   7.827   5.699   4.320  0.2381 -0.4176  0.4110
13859SOL     OW44530   1.238   2.061   4.703  0.4653  0.1855 -0.2219
13859SOL    HW144531   1.159   2.098   4.742  0.4615 -1.0754  1.0717
13859SOL    HW244532   1.302   2.132   4.707  0.1278  0.4553  1.1366
13860SOL     OW44533   6.705   3.749   7.677  0.2615 -0.6165 -0.2899
13860SOL    HW144534   6.703   3.843   7.663 -0.1976 -0.4420  0.8676
13860SOL    HW244535   6.798   3.727   7.681  0.4010  0.1167  1.3865
13861SOL     OW44536   7.204   2.831   7.589 -0.2886 -0.4064  0.3713
13861SOL    HW144537   7.213   2.819   7.684 -0.2150 -0.5791  0.3411
13861SOL    HW244538   7.268   2.772   7.551 -0.3794 -0.4014  0.2100
13862SOL     OW44539   4.074   2.198   5.972  0.3503  0.9917  0.6490
13862SOL    HW144540   4.064   2.121   6.027 -0.4920  0.1618 -0.6061
13862SOL    HW244541   4.037   2.269   6.024  2.0360  0.7847  2.2280
13863SOL     OW44542   3.937   4.337   4.779 -0.0067 -0.1007  0.1341
13863SOL    HW144543   3.887   4.378   4.708 -1.2341 -0.4946  0.7423
13863SOL    HW244544   4.020   4.385   4.781 -0.1123  0.1681 -1.3009
13864SOL     OW44545   2.025   1.065   6.456 -0.2924  0.0291  0.2874
13864SOL    HW144546   2.070   1.007   6.517  1.8708  0.4990 -0.7709
13864SOL    HW244547   2.001   1.009   6.382  0.4174  0.1768 -0.0573
13865SOL     OW44548   5.872   1.962   5.889 -0.4296  0.1042 -0.0163
13865SOL    HW144549   5.939   1.991   5.951 -1.6593  1.2543  0.8424
13865SOL    HW244550   5.856   1.870   5.912 -1.5558  0.7658  2.1125
13866SOL     OW44551   3.416   4.252   1.760 -0.1128 -0.2995 -0.1019
13866SOL    HW144552   3.475   4.186   1.796  0.7008 -0.9453 -2.4789
13866SOL    HW244553   3.345   4.202   1.720 -1.1253  0.4149  0.7263
13867SOL     OW44554   0.140   7.449   0.852 -0.3217  0.6064  0.0780
13867SOL    HW144555   0.235   7.444   0.858 -0.3048  2.1285  1.6570
13867SOL    HW244556   0.109   7.398   0.927 -0.8289 -1.0036 -1.1680
13868SOL     OW44557   3.318   0.540   1.322  0.0675 -0.8433  0.0290
13868SOL    HW144558   3.295   0.562   1.412  0.1968  1.0138 -0.3414
13868SOL    HW244559   3.266   0.600   1.269 -1.1009 -2.8685 -1.2407
13869SOL     OW44560   8.071   6.086   6.604 -0.3055  0.2137 -0.2090
13869SOL    HW144561   7.984   6.097   6.643  0.1031  0.5423  0.6267
13869SOL    HW244562   8.089   5.992   6.613 -0.2514  0.2731  0.3104
13870SOL     OW44563   6.894   7.456   2.602 -0.0931  0.2280 -0.0670
13870SOL    HW144564   6.967   7.514   2.580  1.0921 -1.5199 -0.8988
13870SOL    HW244565   6.935   7.375   2.630 -1.7185 -0.6774 -0.1861
13871SOL     OW44566   7.937   0.034   2.307 -0.0289  0.1542 -0.0043
13871SOL    HW144567   8.028   0.017   2.329 -0.1865 -0.2691  0.3146
13871SOL    HW244568   7.938   0.123   2.271  0.4624  0.2566  0.2544
13872SOL     OW44569   3.510   6.447   8.018 -0.0012 -0.0899 -0.3852
13872SOL    HW144570   3.602   6.471   8.028 -0.0485 -0.2211  0.4186
13872SOL    HW244571   3.487   6.402   8.099 -1.4812  2.2357  0.6144
13873SOL     OW44572   6.429   6.796   5.575  0.2226  0.4464 -0.3056
13873SOL    HW144573   6.482   6.835   5.645 -0.8940 -0.3319  1.0262
13873SOL    HW244574   6.341   6.792   5.611 -0.4340  0.1996 -1.8579
13874SOL     OW44575   2.465   4.863   5.410  0.4625  0.5409  0.0631
13874SOL    HW144576   2.533   4.840   5.347 -0.2050  0.3610 -0.6172
13874SOL    HW244577   2.383   4.841   5.364 -0.0253  0.1974  1.0773
13875SOL     OW44578   7.633   1.824   6.247 -0.3000  0.6147 -0.8454
13875SOL    HW144579   7.580   1.821   6.167 -1.2343  1.5715 -0.2875
13875SOL    HW244580   7.569   1.821   6.318  0.5656 -1.9122 -0.0461
13876SOL     OW44581   1.338   2.908   1.711 -0.5426  0.0235 -0.3443
13876SOL    HW144582   1.388   2.843   1.661  1.5610  1.7579 -0.6461
13876SOL    HW244583   1.356   2.888   1.802 -1.4292 -0.9393 -0.3734
13877SOL     OW44584   2.997   1.840   7.503  0.1973 -0.2187 -0.1138
13877SOL    HW144585   3.085   1.842   7.464  0.6322 -1.2518  0.7627
13877SOL    HW244586   2.985   1.750   7.532 -1.0894 -0.0427 -0.0547
13878SOL     OW44587   6.349   7.087   2.972  0.2624 -0.1350  0.5749
13878SOL    HW144588   6.338   7.139   3.051  0.4211  1.5660 -0.4769
13878SOL    HW244589   6.272   7.109   2.918 -0.6797 -2.4372  0.8269
13879SOL     OW44590   6.515   7.172   2.315 -0.1324  0.2415 -0.0306
13879SOL    HW144591   6.479   7.201   2.399  0.4467  0.2586  0.2151
13879SOL    HW244592   6.610   7.184   2.324  0.0961 -1.2716 -0.0988
13880SOL     OW44593   3.158   7.667   5.219 -0.2037 -0.3306  0.5761
13880SOL    HW144594   3.247   7.631   5.222  0.1719 -0.5158 -4.2142
13880SOL    HW244595   3.101   7.591   5.230  0.2111 -0.4897  1.8300
13881SOL     OW44596   5.354   6.451   0.982  0.2609  0.1165  0.0241
13881SOL    HW144597   5.439   6.475   1.019  0.3214 -1.3736  0.9351
13881SOL    HW244598   5.374   6.387   0.914 -0.0865  0.1387 -0.1014
13882SOL     OW44599   4.111   6.058   4.588 -0.0570  0.0801 -0.2000
13882SOL    HW144600   4.022   6.026   4.574 -1.0568  2.7311 -0.6468
13882SOL    HW244601   4.164   6.013   4.523 -0.9723 -1.8081  0.2959
13883SOL     OW44602   2.646   2.593   0.226 -0.0334 -0.4706 -0.4417
13883SOL    HW144603   2.721   2.573   0.282 -0.8280 -0.0449  0.8324
13883SOL    HW244604   2.632   2.687   0.237 -0.8478 -0.5743 -0.5191
13884SOL     OW44605   6.749   0.968   3.829  0.2355  0.3873 -0.3089
13884SOL    HW144606   6.658   0.997   3.831  0.2682  0.4629  0.7749
13884SOL    HW244607   6.753   0.908   3.755 -0.7813  0.1424 -0.1855
13885SOL     OW44608   8.134   5.058   1.524  0.6493  0.5130 -0.1877
13885SOL    HW144609   8.114   4.981   1.578 -0.8407 -0.8405 -2.4683
13885SOL    HW244610   8.068   5.056   1.454  0.6225  3.8482 -0.4151
13886SOL     OW44611   7.391   1.406   6.689  0.1059 -0.2276  0.1904
13886SOL    HW144612   7.344   1.470   6.634  0.9894  0.6665  0.4403
13886SOL    HW244613   7.350   1.414   6.775 -0.1800 -0.4333  0.0753
13887SOL     OW44614   0.465   6.122   8.060  0.5152 -0.2136  0.1984
13887SOL    HW144615   0.401   6.122   7.989 -0.7115 -2.5637  1.1722
13887SOL    HW244616   0.548   6.097   8.018  0.3341  0.6667 -0.7215
13888SOL     OW44617   0.642   4.089   6.109  0.3050 -0.4483  0.6353
13888SOL    HW144618   0.706   4.045   6.052 -0.4262 -0.6964 -0.0093
13888SOL    HW244619   0.647   4.181   6.082 -1.6138 -0.8563 -1.4714
13889SOL     OW44620   3.378   0.239   2.894 -0.0380 -0.1052  0.0147
13889SOL    HW144621   3.435   0.285   2.956 -2.4525  1.8185  0.9658
13889SOL    HW244622   3.354   0.158   2.939  0.6197 -0.1690  0.2732
13890SOL     OW44623   5.121   5.083   7.795 -0.0511  0.1218  0.1914
13890SOL    HW144624   5.149   5.168   7.829 -0.8477 -0.2498  1.8710
13890SOL    HW244625   5.051   5.103   7.733 -1.2669  0.6302  1.7020
13891SOL     OW44626   4.314   5.881   4.149  0.5442 -0.1930  0.0996
13891SOL    HW144627   4.373   5.951   4.120  0.4692 -0.4552 -0.7181
13891SOL    HW244628   4.243   5.926   4.195  0.1950  0.3272 -0.9172
13892SOL     OW44629   2.480   0.784   3.433 -0.1162  0.1964  0.1839
13892SOL    HW144630   2.467   0.706   3.486  0.4554  0.7826  1.2083
13892SOL    HW244631   2.393   0.806   3.400 -0.6987  0.4956  1.8394
13893SOL     OW44632   2.570   7.069   0.243 -0.0866 -0.2343  0.2970
13893SOL    HW144633   2.618   7.084   0.162 -1.0435 -2.9330 -0.9092
13893SOL    HW244634   2.502   7.136   0.243 -0.4262 -0.5047 -1.4967
13894SOL     OW44635   5.487   8.096   2.471 -0.0711  0.1692  0.1253
13894SOL    HW144636   5.489   8.017   2.417  0.0188  0.3060 -0.0739
13894SOL    HW244637   5.411   8.085   2.527 -0.7115  0.4373 -0.6621
13895SOL     OW44638   7.935   7.472   7.966 -0.7915 -0.2122  0.4017
13895SOL    HW144639   8.001   7.541   7.965 -1.0693  0.1216 -1.9367
13895SOL    HW244640   7.877   7.495   8.038 -0.6643  1.8078 -0.0709
13896SOL     OW44641   4.986   5.950   6.865  1.0534  0.0335 -0.1867
13896SOL    HW144642   5.039   5.871   6.874  0.7767 -0.1128  0.1621
13896SOL    HW244643   5.015   6.006   6.937  2.2611  0.8446 -1.2543
13897SOL     OW44644   3.397   6.951   4.922 -0.2981  0.3857 -0.1836
13897SOL    HW144645   3.367   7.001   4.998 -1.0314  1.7571 -1.3166
13897SOL    HW244646   3.323   6.955   4.861  0.1592 -0.9513 -0.8458
13898SOL     OW44647   0.463   7.625   4.352  0.7601  0.1368 -0.1547
13898SOL    HW144648   0.499   7.554   4.405 -0.2130 -0.5229 -0.3428
13898SOL    HW244649   0.483   7.705   4.402 -0.3752 -0.4812  1.3926
13899SOL     OW44650   4.852   7.354   7.962  0.0364 -0.3301  0.5223
13899SOL    HW144651   4.838   7.279   8.019  2.1050  0.0730  1.6544
13899SOL    HW244652   4.764   7.376   7.930 -0.8710 -2.0240  1.6594
13900SOL     OW44653   5.799   0.156   2.381 -0.6461  0.4043  0.3139
13900SOL    HW144654   5.750   0.154   2.299 -1.4399  0.5079  0.7798
13900SOL    HW244655   5.865   0.225   2.367 -0.7773  0.4248 -0.2311
13901SOL     OW44656   6.457   0.187   1.180 -0.1926 -0.3751 -0.1856
13901SOL    HW144657   6.399   0.255   1.148 -1.5260 -0.4339  1.9330
13901SOL    HW244658   6.533   0.191   1.121 -1.3980  1.0919 -1.7516
13902SOL     OW44659   4.345   2.302   5.099  0.0630 -0.2176  0.3280
13902SOL    HW144660   4.377   2.242   5.031 -0.4704  0.2812 -0.3852
13902SOL    HW244661   4.406   2.292   5.172  2.5881  1.5734 -1.3721
13903SOL     OW44662   5.798   1.702   5.946 -0.0057 -0.3944  0.1616
13903SOL    HW144663   5.807   1.621   5.896  0.0270 -1.6277  2.0402
13903SOL    HW244664   5.705   1.723   5.942 -0.2044 -1.1704  0.5814
13904SOL     OW44665   0.979   2.871   0.756  0.7351  0.3929 -0.9988
13904SOL    HW144666   0.887   2.867   0.731  0.5676 -0.5725 -0.2832
13904SOL    HW244667   0.980   2.923   0.837  0.6861 -0.3683 -0.4955
13905SOL     OW44668   5.395   4.368   0.776 -0.8976  0.6549 -0.3948
13905SOL    HW144669   5.482   4.373   0.737 -0.6980  1.2539  0.1165
13905SOL    HW244670   5.390   4.444   0.833 -1.6901  0.5232 -0.2799
13906SOL     OW44671   1.205   3.110   1.593 -0.1316 -0.0890  0.0153
13906SOL    HW144672   1.117   3.074   1.605 -0.0965 -0.0653  0.3481
13906SOL    HW244673   1.263   3.045   1.632  0.0881 -0.6164 -1.1407
13907SOL     OW44674   5.358   0.273   0.995  0.3996 -0.7711  0.0294
13907SOL    HW144675   5.314   0.189   0.980 -0.5625 -0.2735 -0.0553
13907SOL    HW244676   5.376   0.274   1.088 -1.3234 -0.2963  0.4041
13908SOL     OW44677   4.215   2.217   2.438 -0.7793 -0.6764  0.0207
13908SOL    HW144678   4.269   2.167   2.377  1.1114  0.1362  0.9219
13908SOL    HW244679   4.214   2.163   2.518  0.6950  0.3051  0.7633
13909SOL     OW44680   2.203   6.441   3.296  0.2802 -0.2794  0.0221
13909SOL    HW144681   2.212   6.350   3.268  1.0271 -0.5483  1.0398
13909SOL    HW244682   2.109   6.457   3.295  0.0308 -1.4807  1.0065
13910SOL     OW44683   6.288   1.766   2.287  0.2244 -0.0799  0.5941
13910SOL    HW144684   6.220   1.703   2.309  0.5689 -0.0226  1.8879
13910SOL    HW244685   6.333   1.727   2.211  0.9895 -1.8471  1.8827
13911SOL     OW44686   0.726   3.640   2.563 -0.8265  0.3079  0.4544
13911SOL    HW144687   0.705   3.725   2.604 -1.5772  0.3460  0.0149
13911SOL    HW244688   0.811   3.654   2.522 -1.3404  1.1449 -0.3828
13912SOL     OW44689   6.157   4.265   5.412 -0.1473  0.3767 -0.4320
13912SOL    HW144690   6.143   4.200   5.481 -0.2960  1.4270  0.5610
13912SOL    HW244691   6.181   4.213   5.335  0.4445 -0.8086  0.5093
13913SOL     OW44692   4.888   2.070   7.309  0.2443  0.3736  0.6502
13913SOL    HW144693   4.926   1.996   7.356 -0.0570  0.1364  0.5260
13913SOL    HW244694   4.884   2.041   7.218 -2.3812 -0.5459  0.9630
13914SOL     OW44695   3.657   1.892   2.463 -0.0016 -0.5996 -0.1068
13914SOL    HW144696   3.620   1.812   2.427  0.6773 -0.7085 -0.5836
13914SOL    HW244697   3.586   1.956   2.460 -1.2614 -1.7582  2.3916
13915SOL     OW44698   7.304   1.236   3.506  0.5846 -0.1085  0.4016
13915SOL    HW144699   7.317   1.319   3.459 -0.9739 -0.3396 -0.4975
13915SOL    HW244700   7.318   1.169   3.439 -0.8881 -0.4653  0.4245
13916SOL     OW44701   5.287   4.644   2.245 -0.1132 -0.1444 -0.3205
13916SOL    HW144702   5.212   4.662   2.189 -0.7168  1.6513  0.9799
13916SOL    HW244703   5.252   4.644   2.334  1.2779 -0.1764  0.2527
13917SOL     OW44704   4.655   7.581   4.903  0.3365  0.0925  0.1397
13917SOL    HW144705   4.716   7.598   4.975 -1.1626  2.9088  0.9148
13917SOL    HW244706   4.638   7.668   4.866  0.5591 -1.1805 -3.2816
13918SOL     OW44707   0.979   1.099   6.671 -0.7601  0.1324 -0.1500
13918SOL    HW144708   1.019   1.185   6.689 -0.9771  0.4794 -1.2536
13918SOL    HW244709   0.943   1.108   6.583  0.7436 -1.6616 -1.0104
13919SOL     OW44710   4.043   5.137   3.185  0.0736 -0.1817  0.2303
13919SOL    HW144711   4.084   5.157   3.100  5.0174 -0.0333  2.3332
13919SOL    HW244712   4.097   5.069   3.222 -3.2711 -1.8669  2.5357
13920SOL     OW44713   1.055   6.042   7.195 -0.0919  0.3737 -0.3263
13920SOL    HW144714   1.058   5.950   7.222  0.8063  0.1983 -0.9477
13920SOL    HW244715   1.040   6.091   7.276 -1.0349 -0.3444 -0.0579
13921SOL     OW44716   7.817   0.931   0.487 -0.4918  0.3575  0.5479
13921SOL    HW144717   7.824   1.026   0.476  2.5906  0.1332 -0.4647
13921SOL    HW244718   7.792   0.898   0.401 -0.3628  0.1790  0.5781
13922SOL     OW44719   7.168   0.948   3.789 -0.5422  0.5567 -0.3758
13922SOL    HW144720   7.218   0.915   3.714  0.0299  0.0955  0.2034
13922SOL    HW244721   7.233   0.961   3.858 -0.9927  1.4313 -0.0954
13923SOL     OW44722   1.339   2.059   1.936  0.1310  0.4263  0.1304
13923SOL    HW144723   1.399   1.988   1.961  0.4337  1.2417  1.8817
13923SOL    HW244724   1.263   2.014   1.899  0.7172 -0.7526  0.2932
13924SOL     OW44725   1.680   2.159   5.561 -0.1180  0.2833 -0.0868
13924SOL    HW144726   1.596   2.196   5.535 -0.6982 -1.8555 -1.5750
13924SOL    HW244727   1.730   2.154   5.480  0.7706 -0.0942  0.4687
13925SOL     OW44728   1.650   1.666   4.798 -0.2309 -0.1978  0.0906
13925SOL    HW144729   1.648   1.588   4.854  2.3265  0.1552  0.7973
13925SOL    HW244730   1.629   1.633   4.711 -2.6803 -1.0358  0.9162
13926SOL     OW44731   6.857   6.056   3.090  0.5004 -0.0841 -0.5143
13926SOL    HW144732   6.797   5.981   3.094 -0.4172  0.6335 -0.4206
13926SOL    HW244733   6.800   6.132   3.100  1.6407  0.5669  1.7401
13927SOL     OW44734   7.560   5.585   7.089  0.9308 -0.2265 -0.0307
13927SOL    HW144735   7.512   5.552   7.165  0.0614  1.0861  0.0106
13927SOL    HW244736   7.561   5.511   7.028 -0.6877 -0.4669  0.1909
13928SOL     OW44737   2.107   0.956   1.480  0.0839 -0.2757 -0.0071
13928SOL    HW144738   2.192   0.918   1.503 -0.0047  0.0743  0.9219
13928SOL    HW244739   2.127   1.042   1.444  0.0115  0.7818  2.3579
13929SOL     OW44740   4.239   6.863   5.444 -0.8465  0.5751 -0.0902
13929SOL    HW144741   4.201   6.779   5.472 -0.2371  0.3469  0.0815
13929SOL    HW244742   4.176   6.929   5.473 -2.1195  0.0909 -1.6075
13930SOL     OW44743   1.537   0.604   2.084  0.2668 -0.4234 -0.2035
13930SOL    HW144744   1.610   0.590   2.024  0.8874 -2.4845  0.9160
13930SOL    HW244745   1.492   0.519   2.086 -0.1032 -0.2302  1.7361
13931SOL     OW44746   5.821   7.028   3.086  0.3727 -0.3627 -0.8299
13931SOL    HW144747   5.872   7.107   3.101  0.0475 -0.2280 -0.4220
13931SOL    HW244748   5.875   6.975   3.027  1.8757 -1.1096  1.1387
13932SOL     OW44749   5.083   2.312   3.256 -0.7125 -0.2436 -0.5264
13932SOL    HW144750   5.129   2.247   3.309  0.7775  0.5638 -0.7954
13932SOL    HW244751   5.016   2.348   3.315  0.2770 -0.0493  0.5150
13933SOL     OW44752   1.121   2.865   5.285  0.4457  0.2641 -0.4424
13933SOL    HW144753   1.150   2.897   5.200  1.1296 -0.7287 -0.6100
13933SOL    HW244754   1.138   2.771   5.281 -0.5574  0.0364  0.3840
13934SOL     OW44755   4.473   6.411   3.297  0.0472  0.4966  0.0185
13934SOL    HW144756   4.470   6.501   3.266  2.1108  0.3439 -0.7441
13934SOL    HW244757   4.552   6.406   3.351  0.3233 -0.9978 -0.4713
13935SOL     OW44758   0.481   0.628   5.907  0.6589  0.4745  0.1413
13935SOL    HW144759   0.531   0.682   5.968 -2.2115  2.4351  0.9175
13935SOL    HW244760   0.457   0.687   5.835 -0.0218 -0.5593 -0.5151
13936SOL     OW44761   4.879   2.846   6.291  0.4906  0.0266 -0.3763
13936SOL    HW144762   4.786   2.855   6.269  0.3046  1.5715  0.9147
13936SOL    HW244763   4.924   2.858   6.207 -0.4336 -0.0858 -0.9085
13937SOL     OW44764   0.310   4.490   7.262  0.0945 -0.1082  0.2533
13937SOL    HW144765   0.400   4.521   7.252 -0.2049  0.2425 -1.7436
13937SOL    HW244766   0.317   4.413   7.318  1.6798 -0.2428 -0.0832
13938SOL     OW44767   5.739   2.590   6.539 -0.2000 -0.6220 -0.0445
13938SOL    HW144768   5.813   2.623   6.488 -0.2886 -0.2681  0.0524
13938SOL    HW244769   5.710   2.512   6.492  0.8976 -1.3887  0.4753
13939SOL     OW44770   0.040   0.229   2.502  0.4826 -0.5374  0.4683
13939SOL    HW144771   0.094   0.159   2.466 -1.3499 -1.6614 -0.2283
13939SOL    HW244772  -0.045   0.218   2.460 -0.2484  1.3023  1.3503
13940SOL     OW44773   7.965   7.275   7.648 -0.5634 -0.0690  0.2185
13940SOL    HW144774   7.986   7.184   7.671  0.2141 -0.1294 -0.6923
13940SOL    HW244775   7.872   7.272   7.623 -0.3506 -0.7659 -0.5330
13941SOL     OW44776   3.412   7.899   2.117 -0.0618  0.1807 -0.2986
13941SOL    HW144777   3.348   7.961   2.082  0.1374  0.4025 -0.2739
13941SOL    HW244778   3.433   7.933   2.204  0.5545  0.4584 -0.5473
13942SOL     OW44779   2.389   7.276   0.194  0.5672 -0.0802 -0.1966
13942SOL    HW144780   2.423   7.365   0.188 -0.2016  0.2077 -0.4407
13942SOL    HW244781   2.318   7.273   0.130 -0.7432 -0.2416  1.1877
13943SOL     OW44782   3.761   6.279   6.616 -0.9156 -0.4303  0.0403
13943SOL    HW144783   3.752   6.237   6.702  0.5432 -1.7590 -0.4121
13943SOL    HW244784   3.850   6.312   6.615 -1.1534  0.2001 -0.7039
13944SOL     OW44785   0.762   5.971   6.163  0.3520 -0.4737 -0.1761
13944SOL    HW144786   0.704   6.007   6.230  0.7356  0.1350 -0.1638
13944SOL    HW244787   0.737   5.879   6.156  0.2578 -0.5228  0.7471
13945SOL     OW44788   5.951   6.587   3.411  0.1516  0.5633 -0.6810
13945SOL    HW144789   5.858   6.566   3.401  0.1775  0.1199 -0.0829
13945SOL    HW244790   5.977   6.625   3.327 -0.5529  0.6300 -0.8730
13946SOL     OW44791   6.298   7.865   7.228  0.2910 -0.0823 -0.4122
13946SOL    HW144792   6.257   7.951   7.220  0.2357  0.0277  0.9624
13946SOL    HW244793   6.338   7.851   7.142 -0.3571  0.9646 -0.9164
13947SOL     OW44794   0.362   6.756   1.776 -0.3774  0.3042 -0.1791
13947SOL    HW144795   0.363   6.752   1.681  1.1529 -0.3085 -0.1704
13947SOL    HW244796   0.455   6.751   1.801 -0.7149  0.9254  1.3228
13948SOL     OW44797   7.273   6.456   1.120  0.1149 -0.3855  0.1476
13948SOL    HW144798   7.307   6.374   1.085 -0.6477  0.0416 -1.7174
13948SOL    HW244799   7.278   6.446   1.215 -1.0764 -3.0965  0.0205
13949SOL     OW44800   5.068   0.562   5.893 -0.5357 -0.4119  0.0677
13949SOL    HW144801   4.989   0.613   5.877  0.1439  0.6362 -0.0554
13949SOL    HW244802   5.048   0.509   5.971 -0.8589  0.9306  0.9247
13950SOL     OW44803   1.258   4.552   2.739 -0.4402  0.3143 -0.3290
13950SOL    HW144804   1.188   4.504   2.784 -0.8058 -0.7622 -1.9663
13950SOL    HW244805   1.333   4.492   2.741  0.0273  0.8954  0.1745
13951SOL     OW44806   4.050   3.047   2.236  0.3595 -0.4346 -0.2620
13951SOL    HW144807   4.127   3.061   2.181 -0.1453  1.8886 -0.4759
13951SOL    HW244808   3.984   3.013   2.177  0.4184  0.1419 -0.6628
13952SOL     OW44809   4.121   5.532   5.576  0.0891  0.0723  0.5413
13952SOL    HW144810   4.148   5.587   5.503 -0.5065 -0.6545 -0.2343
13952SOL    HW244811   4.202   5.489   5.604 -0.0654 -1.4955 -1.2628
13953SOL     OW44812   6.220   0.122   5.871  0.6825  0.4338 -0.2688
13953SOL    HW144813   6.248   0.064   5.800  0.4376 -1.2578  0.9341
13953SOL    HW244814   6.182   0.062   5.937 -0.1611  2.0431  0.7749
13954SOL     OW44815   1.530   3.499   3.261 -0.5216  0.3113 -0.3047
13954SOL    HW144816   1.452   3.527   3.213  0.4526  1.2567 -1.4036
13954SOL    HW244817   1.562   3.579   3.304  1.6458  0.7684 -2.5312
13955SOL     OW44818   6.740   5.495   4.356  0.3142 -0.0280 -0.1843
13955SOL    HW144819   6.806   5.562   4.336 -0.1528 -0.0837 -2.1396
13955SOL    HW244820   6.659   5.545   4.370  0.4117 -0.0668  0.5578
13956SOL     OW44821   0.707   1.339   2.968  0.4917 -0.0233 -0.7114
13956SOL    HW144822   0.783   1.371   3.016  1.0843  0.6257 -2.0250
13956SOL    HW244823   0.634   1.350   3.029  1.4139 -0.5312  0.5214
13957SOL     OW44824   6.225   5.351   5.171  0.8191 -0.4495 -0.3501
13957SOL    HW144825   6.154   5.415   5.174  0.8646 -0.4137 -0.0280
13957SOL    HW244826   6.182   5.267   5.153  0.4046 -0.8498  2.1919
13958SOL     OW44827   1.558   0.531   1.249  0.2369  0.1013 -0.1874
13958SOL    HW144828   1.526   0.601   1.192  1.5160  1.9536  1.2376
13958SOL    HW244829   1.652   0.550   1.260  0.5983 -1.7997  0.3217
13959SOL     OW44830   1.970   3.546   7.370  0.0673  0.0870 -0.4953
13959SOL    HW144831   1.972   3.624   7.314 -0.1328 -0.2604 -0.9883
13959SOL    HW244832   1.919   3.573   7.447 -1.5671 -0.0881 -1.4841
13960SOL     OW44833   6.657   0.350   0.529  0.7828  0.2645  0.1325
13960SOL    HW144834   6.717   0.277   0.544 -0.4558 -0.9296 -0.4624
13960SOL    HW244835   6.711   0.428   0.537  1.7789 -0.5991  2.6706
13961SOL     OW44836   2.215   4.111   7.596  0.2072 -0.1291 -0.1227
13961SOL    HW144837   2.186   4.147   7.680  1.1991  1.1280 -0.2903
13961SOL    HW244838   2.177   4.023   7.593 -1.2578  0.4335  0.8682
13962SOL     OW44839   4.999   3.517   1.513  0.3341 -0.3009  0.0767
13962SOL    HW144840   4.999   3.521   1.417 -1.5225  1.3354  0.0622
13962SOL    HW244841   5.085   3.550   1.538  1.1050 -1.4059 -1.0182
13963SOL     OW44842   6.967   4.860   7.886  0.0829  0.2897  0.1899
13963SOL    HW144843   6.990   4.790   7.946  0.8144  0.0807 -0.3147
13963SOL    HW244844   6.882   4.891   7.916 -0.9338 -1.7587 -0.4150
13964SOL     OW44845   6.337   5.117   1.318  0.0134 -0.0800  0.2715
13964SOL    HW144846   6.296   5.196   1.282  2.3824  0.8718 -0.5077
13964SOL    HW244847   6.348   5.136   1.411  0.8849  0.6925  0.0261
13965SOL     OW44848   1.962   4.235   0.670 -0.3964  0.1453  0.3768
13965SOL    HW144849   2.037   4.293   0.687 -1.3592  1.7417 -0.5455
13965SOL    HW244850   1.969   4.166   0.735  1.7386  0.3881  0.4625
13966SOL     OW44851   1.683   7.644   4.179  0.2543  0.1131 -0.3196
13966SOL    HW144852   1.705   7.738   4.180  0.4739  0.1184  2.3050
13966SOL    HW244853   1.712   7.612   4.264  0.7819 -2.5323 -1.4060
13967SOL     OW44854   4.427   3.572   4.548 -0.0503 -0.5839 -0.1556
13967SOL    HW144855   4.473   3.537   4.471  0.0093 -0.2930 -0.2516
13967SOL    HW244856   4.487   3.637   4.584 -0.0795 -0.7155  0.1376
13968SOL     OW44857   1.051   8.080   3.729 -0.2405  0.0675  0.2190
13968SOL    HW144858   0.997   8.155   3.707 -1.3311 -0.5408  0.7385
13968SOL    HW244859   1.132   8.117   3.764 -0.1566  0.9935 -0.9157
13969SOL     OW44860   2.537   7.873   1.887 -0.0245  0.2553 -0.5477
13969SOL    HW144861   2.461   7.908   1.841 -1.7083 -1.9702  0.3740
13969SOL    HW244862   2.603   7.859   1.819  0.0989  3.2886 -1.2144
13970SOL     OW44863   4.080   1.601   2.096  0.4265  0.0110 -0.1284
13970SOL    HW144864   4.174   1.586   2.088  0.3376 -1.2944  0.8734
13970SOL    HW244865   4.065   1.687   2.057  1.9444 -0.0037 -0.7991
13971SOL     OW44866   5.238   7.191   6.645 -0.5198  0.2156  0.0999
13971SOL    HW144867   5.160   7.236   6.678 -1.7935 -1.6451 -0.1818
13971SOL    HW244868   5.217   7.172   6.553  0.6105  0.3762 -0.2038
13972SOL     OW44869   7.440   1.895   7.165 -0.5348 -0.0521 -0.2548
13972SOL    HW144870   7.438   1.990   7.160 -0.5806 -0.0847 -1.0555
13972SOL    HW244871   7.525   1.875   7.206 -1.0142  0.3472  0.9774
13973SOL     OW44872   4.746   7.594   6.617 -0.6985 -0.1893  0.0974
13973SOL    HW144873   4.723   7.523   6.556 -1.4540  0.4159 -0.3307
13973SOL    HW244874   4.664   7.618   6.658 -0.2976 -0.1454  0.8892
13974SOL     OW44875   1.232   6.003   1.389 -0.3804  0.6555  0.0465
13974SOL    HW144876   1.318   5.993   1.429  0.3727  2.6908 -0.9621
13974SOL    HW244877   1.172   5.962   1.452  1.5225 -3.7062 -0.6908
13975SOL     OW44878   0.691   1.740   2.213 -0.6318  0.4546 -0.4660
13975SOL    HW144879   0.613   1.744   2.268 -0.4230  0.0571 -0.1362
13975SOL    HW244880   0.698   1.648   2.187  0.5863  0.1550  0.7828
13976SOL     OW44881   3.441   5.676   5.946 -0.7732 -0.0790  0.3258
13976SOL    HW144882   3.435   5.665   6.040 -2.6016  0.8078  0.3485
13976SOL    HW244883   3.397   5.599   5.910  0.9933 -1.0537  0.1196
13977SOL     OW44884   6.616   7.117   7.329  0.2369  0.8113  0.0537
13977SOL    HW144885   6.699   7.159   7.308  0.5347  0.4014  0.4025
13977SOL    HW244886   6.634   7.023   7.323 -0.0498  0.7104  0.6855
13978SOL     OW44887   3.474   6.638   3.221 -0.2319 -0.0707  0.2460
13978SOL    HW144888   3.405   6.661   3.158 -0.2774 -0.0722  0.2959
13978SOL    HW244889   3.556   6.658   3.174 -0.1612 -2.4567 -0.7888
13979SOL     OW44890   7.605   7.759   0.066 -0.4013  0.0921  0.1192
13979SOL    HW144891   7.577   7.798   0.149 -0.7855 -1.3463  0.6849
13979SOL    HW244892   7.527   7.763   0.010 -0.7114 -0.6968  0.4907
13980SOL     OW44893   0.307   8.007   4.230 -0.1387 -0.1528 -0.7802
13980SOL    HW144894   0.293   7.943   4.300 -1.3799  0.1606 -0.7156
13980SOL    HW244895   0.401   8.023   4.230  0.1626 -1.7480 -0.5928
13981SOL     OW44896   4.251   0.560   4.555  0.2309 -0.0192 -1.0799
13981SOL    HW144897   4.161   0.535   4.578  0.6614  0.0260  0.7323
13981SOL    HW244898   4.272   0.503   4.481 -1.3162  0.0521 -1.6275
13982SOL     OW44899   2.425   6.791   4.978 -0.0959 -0.5498 -0.0749
13982SOL    HW144900   2.456   6.818   4.892  2.7972 -0.3355  0.9241
13982SOL    HW244901   2.441   6.868   5.034  2.6060 -2.1189  1.5453
13983SOL     OW44902   6.263   1.277   4.265  0.1160  0.1601 -0.2531
13983SOL    HW144903   6.351   1.260   4.229 -0.0832 -0.6214 -0.3823
13983SOL    HW244904   6.272   1.361   4.309  1.0029 -0.0292 -0.0475
13984SOL     OW44905   5.377   5.622   1.382  0.1066 -0.1611  0.2274
13984SOL    HW144906   5.322   5.602   1.306 -0.3572 -1.1825  0.8120
13984SOL    HW244907   5.330   5.693   1.427 -1.0404 -1.3504  0.9894
13985SOL     OW44908   4.931   7.017   0.628  0.6438  0.9285 -0.2237
13985SOL    HW144909   5.027   7.012   0.622  0.6969 -0.4704  1.1118
13985SOL    HW244910   4.902   6.926   0.623 -0.4062  1.0922  1.9161
13986SOL     OW44911   1.826   5.615   0.329 -0.3294 -0.2027 -0.4681
13986SOL    HW144912   1.754   5.622   0.267  1.5094  2.6954 -2.5488
13986SOL    HW244913   1.903   5.646   0.280  1.5823  0.6006  2.7483
13987SOL     OW44914   2.054   0.533   4.769 -0.2694 -0.7775 -0.3924
13987SOL    HW144915   2.044   0.468   4.839  0.2507 -0.5268 -0.0743
13987SOL    HW244916   2.139   0.514   4.730  1.1083  1.2287  1.3604
13988SOL     OW44917   6.292   6.178   3.805 -0.7625 -0.1873  0.0245
13988SOL    HW144918   6.304   6.273   3.808 -0.2876 -0.2533  0.4110
13988SOL    HW244919   6.372   6.143   3.844 -0.9625 -0.7444 -0.0603
13989SOL     OW44920   6.135   5.061   1.970 -0.0386 -0.2611  0.1381
13989SOL    HW144921   6.048   5.027   1.991 -0.1141  0.7713  1.6649
13989SOL    HW244922   6.118   5.141   1.920 -0.0353  0.6387  1.5284
13990SOL     OW44923   7.698   4.695   4.531  1.1708 -0.1566 -0.4167
13990SOL    HW144924   7.740   4.685   4.445  1.2927  0.1410 -0.3939
13990SOL    HW244925   7.719   4.785   4.557  0.8001 -0.1182 -0.2511
13991SOL     OW44926   7.134   1.748   0.564  0.1629 -0.1936  0.8056
13991SOL    HW144927   7.123   1.664   0.609  1.1681  0.3708  2.1492
13991SOL    HW244928   7.208   1.734   0.506  0.1584 -0.3180  0.8284
13992SOL     OW44929   5.079   2.692   6.720  0.6450  0.0243  0.0313
13992SOL    HW144930   5.055   2.646   6.800  0.0749 -1.3243 -0.8692
13992SOL    HW244931   4.998   2.735   6.692 -0.2765 -2.6689 -1.8057
13993SOL     OW44932   6.466   2.100   8.042 -0.1182  0.2840 -0.0215
13993SOL    HW144933   6.520   2.101   8.121 -1.3750 -0.6054  0.9103
13993SOL    HW244934   6.447   2.192   8.024  0.4355  0.5160  0.5423
13994SOL     OW44935   0.847   0.054   5.954 -0.7517 -0.3310  0.1563
13994SOL    HW144936   0.789   0.031   6.027 -0.6036  0.1400  0.4296
13994SOL    HW244937   0.935   0.056   5.993 -0.8419  1.5104  0.3582
13995SOL     OW44938   4.677   8.079   8.084 -0.5204  0.6485 -0.5827
13995SOL    HW144939   4.664   8.004   8.142  0.7837 -0.2080 -1.3647
13995SOL    HW244940   4.656   8.155   8.139 -0.9553 -0.2199  0.4977
13996SOL     OW44941   2.230   8.014   6.267 -0.8729  0.0023  0.1894
13996SOL    HW144942   2.306   7.957   6.265  0.5361  1.7580  0.8879
13996SOL    HW244943   2.166   7.968   6.321  0.5488 -0.5179  1.4634
13997SOL     OW44944   6.832   2.367   3.781  0.2361  0.0811  0.2822
13997SOL    HW144945   6.774   2.414   3.722 -0.5424  3.2190  3.2479
13997SOL    HW244946   6.920   2.389   3.751 -0.1305  0.6322 -0.4051
13998SOL     OW44947   5.746   3.891   2.904 -0.5970  0.2017  0.0392
13998SOL    HW144948   5.784   3.807   2.928  1.0450  0.1532 -2.3451
13998SOL    HW244949   5.651   3.878   2.910 -0.3768 -1.8937 -0.5080
13999SOL     OW44950   1.050   3.846   5.356 -0.1572  0.0737 -0.1428
13999SOL    HW144951   1.085   3.935   5.365 -0.2239  0.3328 -1.9641
13999SOL    HW244952   1.072   3.802   5.438  3.3608  0.5809 -0.6795
14000SOL     OW44953   4.780   0.303   4.308  0.1134  0.1455  0.1217
14000SOL    HW144954   4.694   0.281   4.345  1.0308 -4.3481  0.1926
14000SOL    HW244955   4.770   0.286   4.214  0.4313  1.6047 -0.1888
14001SOL     OW44956   3.046   0.273   8.100  0.7669 -0.3447 -0.2819
14001SOL    HW144957   3.075   0.194   8.145 -0.8113 -0.4190  0.6643
14001SOL    HW244958   3.034   0.246   8.009 -1.7445 -1.7764  0.4178
14002SOL     OW44959   7.953   3.937   5.897  0.3957 -0.3352  0.1809
14002SOL    HW144960   7.889   3.879   5.939 -0.7227  0.7834  0.0703
14002SOL    HW244961   7.924   3.942   5.806  0.7443  0.0524  0.0890
14003SOL     OW44962   0.457   6.650   0.354 -0.0285  0.1642 -0.1412
14003SOL    HW144963   0.450   6.732   0.305 -0.4354 -0.0323 -0.4197
14003SOL    HW244964   0.428   6.583   0.292 -0.4719 -0.0986  0.3429
14004SOL     OW44965   2.614   2.031   5.725 -0.6904  0.1145  0.2190
14004SOL    HW144966   2.538   2.051   5.781 -0.7790  3.9624 -0.9642
14004SOL    HW244967   2.586   1.955   5.674 -2.1861 -0.9833  2.4867
14005SOL     OW44968   4.158   1.698   0.569 -0.1898 -0.1529 -0.5925
14005SOL    HW144969   4.222   1.633   0.599 -0.3231 -0.1181 -0.2270
14005SOL    HW244970   4.100   1.649   0.511 -1.9007 -1.0483  1.7076
14006SOL     OW44971   2.082   4.842   7.287  0.5975 -0.0438 -0.0855
14006SOL    HW144972   2.062   4.769   7.345 -0.8288 -1.6109 -2.3742
14006SOL    HW244973   2.015   4.908   7.305  0.3088 -0.4157  0.1817
14007SOL     OW44974   1.994   6.719   6.517  0.1775 -0.1065  0.2952
14007SOL    HW144975   1.929   6.781   6.551  0.7048  0.3631  0.4600
14007SOL    HW244976   2.076   6.768   6.518  0.6126 -0.8359  0.4775
14008SOL     OW44977   0.257   4.048   0.334 -0.3992 -0.0387  0.1967
14008SOL    HW144978   0.269   4.130   0.383  0.8136  1.8466 -2.9758
14008SOL    HW244979   0.338   3.999   0.348 -1.0379 -0.6975  1.9203
14009SOL     OW44980   3.472   3.588   1.620  0.4144 -0.3546  1.1817
14009SOL    HW144981   3.386   3.623   1.645  0.0377 -1.1176  0.9797
14009SOL    HW244982   3.493   3.524   1.689  1.1092  0.2676  1.5631
14010SOL     OW44983   3.640   1.301   6.215 -0.6052 -0.9186  0.1049
14010SOL    HW144984   3.665   1.370   6.153  0.7368  0.7389  2.3221
14010SOL    HW244985   3.557   1.330   6.252 -1.3866 -1.8885 -0.8164
14011SOL     OW44986   3.249   1.783   6.278  0.7157 -0.6556  0.5975
14011SOL    HW144987   3.226   1.691   6.266  0.2851 -0.6463  1.3030
14011SOL    HW244988   3.169   1.824   6.311  0.6990  0.1168 -0.3336
14012SOL     OW44989   7.550   4.476   3.716 -0.4512 -0.1974 -0.3812
14012SOL    HW144990   7.505   4.423   3.650  0.1272 -3.7284  1.7717
14012SOL    HW244991   7.487   4.483   3.788  0.1424  0.5535  0.0801
14013SOL     OW44992   2.556   0.602   0.337 -0.8819  0.3107  0.3432
14013SOL    HW144993   2.564   0.561   0.251 -1.8313  1.0602 -0.1197
14013SOL    HW244994   2.621   0.672   0.336 -0.8313  0.2631  0.2794
14014SOL     OW44995   4.826   7.398   3.332 -0.2371  0.4850 -0.0313
14014SOL    HW144996   4.888   7.471   3.324 -0.8528  0.9660 -0.4808
14014SOL    HW244997   4.793   7.403   3.421 -0.4782  0.9165 -0.1452
14015SOL     OW44998   4.333   3.462   4.786  0.0530  0.2949  0.2432
14015SOL    HW144999   4.361   3.506   4.706 -0.2778 -0.7261 -0.4517
14015SOL    HW245000   4.347   3.369   4.769 -3.8884 -0.3987 -0.3330
14016SOL     OW45001   7.449   7.065   0.487 -0.6023  0.1979 -0.2575
14016SOL    HW145002   7.507   7.081   0.562 -1.8442 -1.7910  1.2546
14016SOL    HW245003   7.498   7.096   0.412  1.4840  0.6523  1.1953
14017SOL     OW45004   3.647   2.960   4.669 -0.0258 -0.1492 -0.3886
14017SOL    HW145005   3.639   3.053   4.647 -1.0823  0.0514  0.7355
14017SOL    HW245006   3.724   2.954   4.725 -0.6444  0.2715  0.5376
14018SOL     OW45007   0.971   4.410   1.671 -0.3567 -0.2286 -0.3482
14018SOL    HW145008   0.993   4.392   1.580 -0.0979  2.3136 -0.8684
14018SOL    HW245009   0.979   4.505   1.679 -1.3629 -0.2773  2.0797
14019SOL     OW45010   4.679   6.955   3.252 -0.8664 -0.2309 -0.1995
14019SOL    HW145011   4.756   6.940   3.196  0.2801  1.2529  0.9111
14019SOL    HW245012   4.697   6.905   3.332 -0.1729  1.5330  0.7877
14020SOL     OW45013   0.977   2.223   3.361 -0.0948 -0.0392  0.2098
14020SOL    HW145014   1.053   2.172   3.333  0.0184  0.3774 -0.2627
14020SOL    HW245015   0.927   2.164   3.417  0.6069 -0.2985  0.5755
14021SOL     OW45016   3.994   1.530   3.206 -0.6116 -0.3715  0.2619
14021SOL    HW145017   3.962   1.485   3.128  0.4409  0.2394 -0.5356
14021SOL    HW245018   3.949   1.486   3.279 -0.3673 -2.0527 -0.5555
14022SOL     OW45019   0.236   1.654   7.222  0.2481 -0.3760 -0.0768
14022SOL    HW145020   0.220   1.673   7.130  0.1067 -0.0363  0.0150
14022SOL    HW245021   0.213   1.562   7.233  1.2371 -0.7038 -0.6077
14023SOL     OW45022   3.036   3.045   7.355  0.3871  0.1431  0.1896
14023SOL    HW145023   3.116   3.087   7.325 -1.8973  2.3668 -3.6916
14023SOL    HW245024   2.988   3.114   7.401 -0.9007  0.1511 -1.0708
14024SOL     OW45025   3.539   7.816   5.382  0.2545 -0.6852 -0.0116
14024SOL    HW145026   3.502   7.904   5.388 -0.9097 -1.1864  0.5568
14024SOL    HW245027   3.630   7.827   5.409  0.1689  0.3745 -0.1076
14025SOL     OW45028   5.728   0.124   1.791 -0.0206 -0.5051 -0.2940
14025SOL    HW145029   5.743   0.218   1.790  0.9132 -0.6215 -2.3645
14025SOL    HW245030   5.656   0.110   1.730 -0.9779 -1.0658  0.9121
14026SOL     OW45031   4.672   4.173   5.855 -0.4341 -0.3011  0.0715
14026SOL    HW145032   4.695   4.113   5.784 -2.0630  0.2141 -0.9502
14026SOL    HW245033   4.707   4.132   5.934  2.6799 -0.2384 -1.1115
14027SOL     OW45034   7.196   7.260   4.994  0.0282  0.5279  0.4430
14027SOL    HW145035   7.290   7.269   5.013  0.1890 -1.2192  0.6632
14027SOL    HW245036   7.157   7.238   5.078 -0.4296  0.2601  0.1624
14028SOL     OW45037   0.352   6.194   1.310  0.3797  0.4241 -0.2435
14028SOL    HW145038   0.334   6.287   1.295  1.0748  0.2523 -2.6868
14028SOL    HW245039   0.443   6.192   1.339  0.0120  0.5604  0.9515
14029SOL     OW45040   1.059   6.702   8.051  0.0299  0.0485 -0.3853
14029SOL    HW145041   0.964   6.696   8.066 -0.0872  2.5210  0.2567
14029SOL    HW245042   1.093   6.741   8.131  1.6185 -0.8002 -0.6208
14030SOL     OW45043   6.510   2.579   4.222 -0.1249 -0.0055 -0.0576
14030SOL    HW145044   6.512   2.560   4.316 -2.9972  1.1705  0.3180
14030SOL    HW245045   6.477   2.498   4.182  1.4338 -0.6326 -0.1667
14031SOL     OW45046   6.687   0.354   6.926  1.1230 -0.2484  0.3342
14031SOL    HW145047   6.598   0.319   6.928  1.6780 -1.7054  2.9953
14031SOL    HW245048   6.713   0.347   6.834 -1.5747  0.5283 -0.5744
14032SOL     OW45049   2.907   5.134   2.318 -0.5469  0.0142  0.3483
14032SOL    HW145050   2.829   5.148   2.372 -0.2323  0.1579  0.7735
14032SOL    HW245051   2.929   5.222   2.285  0.1599  0.1796  1.2454
14033SOL     OW45052   7.090   4.755   6.796  0.2055  0.2302  0.0253
14033SOL    HW145053   7.143   4.722   6.868 -0.7474 -1.6173 -0.0569
14033SOL    HW245054   7.142   4.736   6.717 -0.6400 -1.9043 -0.0853
14034SOL     OW45055   5.752   3.213   5.009  0.2793 -0.4819 -0.4256
14034SOL    HW145056   5.714   3.128   4.985  1.2871 -0.9078 -0.5770
14034SOL    HW245057   5.840   3.211   4.971  0.1882  0.7789 -0.7246
14035SOL     OW45058   7.489   6.847   7.907 -0.1543  0.4502  0.4856
14035SOL    HW145059   7.499   6.801   7.990  0.2716  0.6548  0.5454
14035SOL    HW245060   7.396   6.835   7.885 -0.8280  2.2991  2.0925
14036SOL     OW45061   8.025   3.792   6.240 -0.2117  0.3190  0.0826
14036SOL    HW145062   7.934   3.778   6.266 -0.6051 -0.7879 -1.6767
14036SOL    HW245063   8.040   3.727   6.171  1.9074  0.5037  0.3032
14037SOL     OW45064   5.075   2.765   4.185  0.0641 -0.2156  0.4017
14037SOL    HW145065   5.124   2.751   4.104  0.2627  0.4798  0.3965
14037SOL    HW245066   5.089   2.685   4.236  0.1786 -0.5352 -0.1233
14038SOL     OW45067   6.426   0.033   1.888 -0.0730 -0.1691 -0.0227
14038SOL    HW145068   6.454  -0.008   1.806  1.0841 -0.8909  0.7104
14038SOL    HW245069   6.334   0.010   1.896 -0.4642  0.7147 -1.5840
14039SOL     OW45070   7.884   2.899   8.128  0.5407  0.4068  0.0274
14039SOL    HW145071   7.830   2.949   8.066 -1.5288  0.4782  1.7677
14039SOL    HW245072   7.912   2.964   8.193  0.0239 -0.2063  0.8784
14040SOL     OW45073   2.782   4.622   7.669 -0.3584  0.6510  1.0759
14040SOL    HW145074   2.761   4.675   7.592 -1.0519  0.8398  1.3853
14040SOL    HW245075   2.789   4.685   7.740 -1.4373  0.3139  1.4956
14041SOL     OW45076   2.636   6.535   2.473 -0.9132  0.5021 -0.6908
14041SOL    HW145077   2.650   6.444   2.447  2.1867 -0.0920  2.2704
14041SOL    HW245078   2.545   6.540   2.500 -0.3813 -2.8561  2.4329
14042SOL     OW45079   5.807   1.548   2.123 -0.3868  0.0744  0.6555
14042SOL    HW145080   5.727   1.596   2.145  0.3617  0.2965  3.2488
14042SOL    HW245081   5.802   1.467   2.174  1.1356  0.2066  1.0754
14043SOL     OW45082   4.697   4.688   2.000 -0.6500  0.1074  0.2655
14043SOL    HW145083   4.679   4.660   1.910 -0.9912 -1.1585  0.7176
14043SOL    HW245084   4.669   4.615   2.055 -0.1539  0.7367  1.3966
14044SOL     OW45085   4.549   1.035   2.398  0.4691  0.4059 -0.3161
14044SOL    HW145086   4.545   1.064   2.490  2.7834  0.4231 -0.1477
14044SOL    HW245087   4.505   1.104   2.350 -3.2601 -0.8827  0.9265
14045SOL     OW45088   8.049   5.677   8.019  0.6264 -0.1489  0.0172
14045SOL    HW145089   8.120   5.630   7.976  0.1461 -0.7783 -0.1124
14045SOL    HW245090   7.971   5.624   8.000 -0.2384  1.5709 -1.5620
14046SOL     OW45091   7.773   4.444   4.091 -0.2499 -0.1392  0.1555
14046SOL    HW145092   7.767   4.524   4.143  0.9856 -1.0643  1.8107
14046SOL    HW245093   7.683   4.412   4.086 -0.7811  1.3595 -0.6166
14047SOL     OW45094   3.360   4.780   8.032 -0.0658 -0.5567  0.0086
14047SOL    HW145095   3.296   4.777   7.961  0.7556 -0.2193 -0.7723
14047SOL    HW245096   3.379   4.873   8.044  1.0590 -0.6944 -0.5225
14048SOL     OW45097   6.848   1.422   6.710 -0.0168  0.1942  0.1770
14048SOL    HW145098   6.754   1.439   6.706 -0.0472 -0.1874 -0.6955
14048SOL    HW245099   6.863   1.353   6.647  1.2830  2.2111 -1.8591
14049SOL     OW45100   7.865   8.089   2.898  0.3394  0.1653  0.4495
14049SOL    HW145101   7.884   7.999   2.871  0.2250 -0.2188  1.5936
14049SOL    HW245102   7.950   8.133   2.896  0.3948  0.0398 -0.1298
14050SOL     OW45103   0.980   2.810   6.360 -0.3079  0.4221  0.6252
14050SOL    HW145104   1.050   2.775   6.414  0.3211  0.2845 -0.2488
14050SOL    HW245105   0.930   2.867   6.418 -0.7999 -1.1651  1.8535
14051SOL     OW45106   6.074   0.974   2.911  0.1149 -0.0050  1.5098
14051SOL    HW145107   6.011   1.035   2.951  0.0085  0.4302  0.7230
14051SOL    HW245108   6.020   0.902   2.878  0.0532  0.2294  1.0879
14052SOL     OW45109   6.342   2.233   1.811 -0.0186  0.2222 -0.3820
14052SOL    HW145110   6.301   2.293   1.749 -1.3834  0.6272  0.8566
14052SOL    HW245111   6.364   2.156   1.759 -0.8375  0.6660 -1.4297
14053SOL     OW45112   3.568   4.446   4.894 -0.2511 -0.1865 -0.0708
14053SOL    HW145113   3.592   4.353   4.896  0.5967  0.0277  0.1073
14053SOL    HW245114   3.650   4.493   4.908 -0.4338  0.6334 -1.4923
14054SOL     OW45115   6.038   1.733   3.386  0.2905  0.2572 -0.1511
14054SOL    HW145116   6.095   1.810   3.382  0.1925  0.3096 -0.5326
14054SOL    HW245117   6.038   1.709   3.479  0.3383  0.7034 -0.0315
14055SOL     OW45118   1.555   7.273   4.966 -0.3481 -0.4830 -0.2501
14055SOL    HW145119   1.523   7.244   4.881 -2.2236 -0.7446  0.4942
14055SOL    HW245120   1.622   7.209   4.990  0.0637 -0.5065 -1.4424
14056SOL     OW45121   0.185   0.563   8.112 -0.0246 -0.1676  0.0118
14056SOL    HW145122   0.153   0.641   8.157  1.5610  1.5201 -1.6428
14056SOL    HW245123   0.106   0.512   8.094 -1.2030  1.3962  0.4834
14057SOL     OW45124   1.281   0.780   5.223 -0.4917  0.4032  0.4977
14057SOL    HW145125   1.353   0.774   5.285  1.0348 -0.0495 -1.2100
14057SOL    HW245126   1.216   0.717   5.254  0.8449 -0.8248  0.8683
14058SOL     OW45127   3.074   7.004   0.652  0.4037  0.3203 -0.2020
14058SOL    HW145128   3.023   6.959   0.584 -0.1319 -1.5124  1.3031
14058SOL    HW245129   3.108   7.082   0.609  0.1894 -0.7978 -2.5983
14059SOL     OW45130   0.319   5.844   5.048 -0.3928  0.0447  0.3516
14059SOL    HW145131   0.303   5.758   5.087  2.1451 -1.3765 -1.4691
14059SOL    HW245132   0.369   5.892   5.114 -1.4460  0.0206  1.1992
14060SOL     OW45133   2.306   1.783   0.355  0.6355 -0.0534 -0.1322
14060SOL    HW145134   2.316   1.717   0.423  0.3373 -0.0464 -0.0824
14060SOL    HW245135   2.379   1.844   0.370 -0.1024  0.5972  0.9145
14061SOL     OW45136   1.143   6.761   0.474 -0.0036  0.5387  0.2164
14061SOL    HW145137   1.068   6.748   0.533  0.9644 -0.9394  1.1949
14061SOL    HW245138   1.163   6.673   0.442  0.2722  1.1500 -1.4014
14062SOL     OW45139   4.722   7.018   1.660 -0.2245 -1.0749 -0.2412
14062SOL    HW145140   4.785   7.044   1.727 -0.4010 -2.2725  0.4079
14062SOL    HW245141   4.641   7.065   1.684  0.0167 -0.6424 -0.2600
14063SOL     OW45142   4.598   0.628   6.523 -0.1179 -0.1815 -0.2140
14063SOL    HW145143   4.672   0.569   6.534  0.1799 -0.0892 -1.5544
14063SOL    HW245144   4.553   0.596   6.444  0.5662  1.8611 -1.5213
14064SOL     OW45145   0.640   3.132   5.724 -0.2568 -0.3572 -0.3611
14064SOL    HW145146   0.689   3.214   5.711  0.4244 -1.0084 -2.2001
14064SOL    HW245147   0.648   3.115   5.818 -0.0046  1.4249 -0.0140
14065SOL     OW45148   5.581   3.081   2.771 -0.4839  0.2448  0.1353
14065SOL    HW145149   5.668   3.107   2.740 -0.3335  0.1193  0.4533
14065SOL    HW245150   5.581   2.985   2.766 -0.4014  0.2159  0.6773
14066SOL     OW45151   5.913   4.737   3.820 -0.3672 -0.4886  0.0336
14066SOL    HW145152   5.948   4.783   3.896 -0.1039  0.5936 -0.7098
14066SOL    HW245153   5.969   4.661   3.809 -0.7284 -0.9448  1.2194
14067SOL     OW45154   5.253   6.504   2.989 -0.2552 -0.0558  0.1373
14067SOL    HW145155   5.197   6.429   3.010 -0.7769  0.0038 -0.9720
14067SOL    HW245156   5.340   6.467   2.976  0.0595 -0.1298  2.0658
14068SOL     OW45157   1.152   2.830   1.321  0.1586 -0.5541  0.2186
14068SOL    HW145158   1.186   2.844   1.233 -1.7454  3.6305 -0.0599
14068SOL    HW245159   1.228   2.842   1.378  0.7247  0.4525 -0.7132
14069SOL     OW45160   4.795   6.558   1.953 -0.1631 -0.2790 -0.5307
14069SOL    HW145161   4.733   6.562   2.025  0.6322 -1.4439  0.2670
14069SOL    HW245162   4.821   6.649   1.938 -2.7216  0.3741 -1.5438
14070SOL     OW45163   8.098   6.001   7.247  0.2393 -0.0503 -0.4215
14070SOL    HW145164   8.008   5.979   7.269  0.0047  1.2023 -0.0417
14070SOL    HW245165   8.116   6.081   7.296  2.1907 -1.2512  0.9728
14071SOL     OW45166   0.287   3.225   1.219  0.0830  0.1188  0.9165
14071SOL    HW145167   0.339   3.231   1.300 -1.2571  1.1694  1.7382
14071SOL    HW245168   0.331   3.157   1.168  1.6622  0.2603  2.0094
14072SOL     OW45169   4.068   6.924   1.262  0.1772 -0.2717  0.0338
14072SOL    HW145170   4.003   6.874   1.214  0.5331 -0.2168 -0.5189
14072SOL    HW245171   4.017   6.977   1.324 -0.1591 -1.7713  1.0881
14073SOL     OW45172   6.572   2.925   5.539 -0.1552 -0.2511  0.2954
14073SOL    HW145173   6.663   2.924   5.511  0.1518  2.5850  0.9029
14073SOL    HW245174   6.545   2.833   5.536  2.2629 -1.0061 -1.2628
14074SOL     OW45175   0.716   0.731   0.377 -0.1776  0.4201  0.7854
14074SOL    HW145176   0.669   0.659   0.419 -1.4172  1.6179  1.5295
14074SOL    HW245177   0.668   0.747   0.296  1.1436 -0.7030 -0.2603
14075SOL     OW45178   7.545   6.464   4.883 -0.1855 -0.0447 -0.8018
14075SOL    HW145179   7.459   6.477   4.924  0.3550  0.6610  0.1721
14075SOL    HW245180   7.529   6.479   4.790 -1.0855  0.2929 -0.6143
14076SOL     OW45181   3.150   2.099   2.962 -0.4472  0.0644  0.1695
14076SOL    HW145182   3.182   2.173   3.015  0.6326 -0.7633  0.6935
14076SOL    HW245183   3.096   2.048   3.023 -1.4702  0.5747 -0.2818
14077SOL     OW45184   3.363   7.536   4.773  0.2845  0.0435  0.1450
14077SOL    HW145185   3.405   7.574   4.696 -1.9904  1.8924 -0.2965
14077SOL    HW245186   3.362   7.442   4.756  2.4430  0.0963 -0.6534
14078SOL     OW45187   0.705   1.478   3.989 -0.3078  0.7157  0.1050
14078SOL    HW145188   0.691   1.570   4.011  0.8859  0.4165  2.5080
14078SOL    HW245189   0.653   1.430   4.053  1.6159 -0.2314  1.0516
14079SOL     OW45190   4.352   3.074   5.300 -0.0938 -0.2224 -0.2512
14079SOL    HW145191   4.389   3.113   5.220 -0.0355 -0.5546 -0.3869
14079SOL    HW245192   4.307   2.995   5.270  0.5392 -0.7376  0.1327
14080SOL     OW45193   5.372   5.280   4.493  0.0484 -0.3191 -0.2315
14080SOL    HW145194   5.378   5.194   4.452 -0.1761 -1.0131  1.1237
14080SOL    HW245195   5.287   5.280   4.538  0.6731  0.0382  0.9965
14081SOL     OW45196   4.863   2.598   0.048 -0.6966 -0.0630 -0.3160
14081SOL    HW145197   4.851   2.506   0.072 -1.1947  0.4485  1.5884
14081SOL    HW245198   4.774   2.633   0.042 -0.4940  0.4589 -0.3510
14082SOL     OW45199   2.498   3.821   6.501 -0.4542  0.4455  0.0118
14082SOL    HW145200   2.548   3.789   6.426 -1.0639  0.4943 -0.4215
14082SOL    HW245201   2.443   3.891   6.466 -1.0949  0.1485  0.4008
14083SOL     OW45202   4.511   7.936   2.090 -0.5746  0.0681  0.1547
14083SOL    HW145203   4.434   7.986   2.064 -0.8410 -1.6655 -2.9300
14083SOL    HW245204   4.579   7.962   2.027  0.8315  0.1805  1.6404
14084SOL     OW45205   7.535   5.825   7.800 -0.3969  0.0780 -0.2983
14084SOL    HW145206   7.621   5.850   7.832 -1.4057  1.0500  1.8386
14084SOL    HW245207   7.550   5.743   7.751  1.7532  0.4550 -0.3560
14085SOL     OW45208   1.796   0.333   5.124 -0.1902  0.5813 -0.4407
14085SOL    HW145209   1.854   0.404   5.096  1.0035  0.1948  0.9310
14085SOL    HW245210   1.804   0.332   5.219 -1.9748  0.0754 -0.2746
14086SOL     OW45211   5.957   6.306   0.805 -0.1458 -0.4866  0.0313
14086SOL    HW145212   5.955   6.398   0.832  0.8009 -0.8850  1.5899
14086SOL    HW245213   5.889   6.264   0.857  1.7836 -1.2893  2.0843
14087SOL     OW45214   3.473   5.037   8.039 -0.3972 -0.1763  0.9291
14087SOL    HW145215   3.413   5.106   8.064  0.4050  0.3132  1.5713
14087SOL    HW245216   3.489   5.051   7.946 -1.9150 -0.8339  0.5407
14088SOL     OW45217   4.149   2.510   6.417 -0.2149 -0.1473  0.0981
14088SOL    HW145218   4.172   2.590   6.464 -0.7441  0.2613 -0.3089
14088SOL    HW245219   4.232   2.476   6.384 -0.1015  0.9065 -0.7497
14089SOL     OW45220   7.804   4.461   3.807 -0.1844  0.6325  0.4750
14089SOL    HW145221   7.785   4.442   3.899  0.4189 -0.7691  0.3335
14089SOL    HW245222   7.718   4.466   3.765 -0.4170 -0.8094  0.7401
14090SOL     OW45223   6.794   1.582   1.984 -1.1529  0.5699  0.1676
14090SOL    HW145224   6.763   1.522   1.916 -1.1575  0.5094  0.2231
14090SOL    HW245225   6.719   1.639   2.000 -1.3023  0.3011  0.4392
14091SOL     OW45226   4.365   5.751   4.663 -0.0864  0.4326 -0.3138
14091SOL    HW145227   4.363   5.819   4.595 -0.0944  0.8167  0.0650
14091SOL    HW245228   4.418   5.681   4.626 -0.3054  0.5310 -0.8195
14092SOL     OW45229   7.260   4.322   3.137 -0.4281 -0.4592 -0.4493
14092SOL    HW145230   7.234   4.414   3.135 -0.1708 -0.3865 -0.4780
14092SOL    HW245231   7.351   4.322   3.108 -0.0787 -0.6011  0.6100
14093SOL     OW45232   5.494   1.640   3.755 -0.2430  0.3194 -0.2169
14093SOL    HW145233   5.583   1.672   3.738 -0.4858 -0.2949 -3.0567
14093SOL    HW245234   5.440   1.719   3.759  0.2587  0.6368  0.4892
14094SOL     OW45235   6.922   3.565   1.975 -0.1843  0.2706  0.3775
14094SOL    HW145236   6.866   3.488   1.980 -0.3108  0.4169  1.4909
14094SOL    HW245237   6.896   3.608   1.893  1.3874 -1.9575 -1.4079
14095SOL     OW45238   0.809   6.622   8.105  0.2674  0.4955  0.0796
14095SOL    HW145239   0.729   6.669   8.085  0.6152  0.8182 -0.5857
14095SOL    HW245240   0.809   6.613   8.200  0.1973  1.8710  0.2298
14096SOL     OW45241   0.112   6.480   5.641 -0.7948 -0.2346 -0.0071
14096SOL    HW145242   0.097   6.496   5.548 -1.8699  1.5329  0.4235
14096SOL    HW245243   0.071   6.554   5.685  0.5787 -0.5046  1.8355
14097SOL     OW45244   5.003   2.535   6.926  0.3460 -0.5555 -0.1400
14097SOL    HW145245   4.999   2.545   7.021  0.9655  0.6295 -0.2191
14097SOL    HW245246   4.922   2.491   6.903  0.7568 -2.0420  1.0671
14098SOL     OW45247   1.239   6.023   0.697 -0.0091 -0.0664 -0.2891
14098SOL    HW145248   1.216   5.944   0.747  0.3754  0.8399  1.3894
14098SOL    HW245249   1.325   6.048   0.730 -0.1725  1.1148 -0.7254
14099SOL     OW45250   5.192   7.399   5.119  0.0309  0.2754 -0.0738
14099SOL    HW145251   5.139   7.320   5.132  0.1966  0.0707 -0.6204
14099SOL    HW245252   5.144   7.449   5.053 -0.3163  0.8589  0.6070
14100SOL     OW45253   7.534   7.166   2.215  0.0450  0.4210  0.1166
14100SOL    HW145254   7.482   7.148   2.136  0.2297  1.4936 -0.2599
14100SOL    HW245255   7.516   7.257   2.236  1.0005  0.5187  0.5724
14101SOL     OW45256   7.284   1.982   2.932 -0.5418 -0.0414 -0.8222
14101SOL    HW145257   7.280   1.891   2.961 -1.4998  0.2156 -0.0738
14101SOL    HW245258   7.245   2.032   3.004 -2.0935  0.7228 -2.1267
14102SOL     OW45259   1.030   0.567   3.588  0.1446  0.0786 -0.7379
14102SOL    HW145260   1.044   0.660   3.570  1.9144  0.1495  0.7479
14102SOL    HW245261   0.979   0.565   3.668  0.9115 -0.2180 -0.2514
14103SOL     OW45262   0.273   7.838   6.276 -0.9324 -0.6445 -0.0399
14103SOL    HW145263   0.309   7.749   6.281  0.0990 -0.2722 -0.6311
14103SOL    HW245264   0.236   7.844   6.188  1.7163  0.4646 -1.2070
14104SOL     OW45265   7.239   5.418   7.745 -0.1991 -0.1220  0.1968
14104SOL    HW145266   7.147   5.400   7.725  0.1806 -2.6233  0.3185
14104SOL    HW245267   7.270   5.471   7.671 -1.1369 -1.4073 -1.1924
14105SOL     OW45268   5.119   6.084   0.841 -0.4183  0.0017 -0.7547
14105SOL    HW145269   5.045   6.096   0.900 -1.4286 -2.4450 -1.4031
14105SOL    HW245270   5.098   6.005   0.791  2.6553 -0.8573 -0.9231
14106SOL     OW45271   0.443   3.668   1.762  0.4206 -0.1447 -0.0225
14106SOL    HW145272   0.470   3.663   1.671  0.0786  0.0690 -0.1372
14106SOL    HW245273   0.512   3.718   1.806 -0.2150  1.1594 -0.4808
14107SOL     OW45274   6.277   4.658   2.104  0.0835 -0.0173  0.6423
14107SOL    HW145275   6.298   4.712   2.028 -1.4111  0.5205  0.5780
14107SOL    HW245276   6.184   4.636   2.094  0.3291 -1.5514  1.3359
14108SOL     OW45277   3.112   0.334   4.584  0.2084  0.5349  0.3111
14108SOL    HW145278   3.046   0.332   4.514 -0.7573  0.3028  1.2028
14108SOL    HW245279   3.061   0.325   4.665  1.3798 -0.1636  0.9934
14109SOL     OW45280   5.628   5.454   3.529  0.2025 -0.1489  0.7103
14109SOL    HW145281   5.657   5.539   3.560  0.1216  0.8535 -1.7741
14109SOL    HW245282   5.703   5.418   3.481 -0.1458 -0.9654  0.7490
14110SOL     OW45283   4.238   3.250   5.028  0.8449  0.7211 -0.7062
14110SOL    HW145284   4.150   3.218   5.051  1.6195 -1.9411 -1.1000
14110SOL    HW245285   4.243   3.239   4.933  1.3358  1.6566 -0.8012
14111SOL     OW45286   2.660   0.319   1.111 -0.4038  0.2238 -0.1717
14111SOL    HW145287   2.671   0.395   1.168 -1.1276  1.3347 -1.4296
14111SOL    HW245288   2.604   0.351   1.040 -0.1212 -1.2902 -1.1235
14112SOL     OW45289   5.126   6.905   6.287  0.1629  0.2780 -0.0773
14112SOL    HW145290   5.196   6.846   6.261 -0.5026 -0.3887 -0.4059
14112SOL    HW245291   5.051   6.877   6.235 -0.4756  0.6621  0.6180
14113SOL     OW45292   1.720   7.770   5.661 -0.4094 -0.2710 -0.2206
14113SOL    HW145293   1.658   7.825   5.612 -0.1617  1.1317  0.9889
14113SOL    HW245294   1.738   7.819   5.741 -0.1167 -2.1077  0.8931
14114SOL     OW45295   5.726   7.184   7.850 -0.3394  0.4919 -0.3697
14114SOL    HW145296   5.675   7.138   7.916 -0.7662 -1.9336 -2.2752
14114SOL    HW245297   5.742   7.120   7.781  3.2006  1.8362 -1.0433
14115SOL     OW45298   2.682   2.945   4.186  0.2366  0.2472  0.0980
14115SOL    HW145299   2.761   2.899   4.214 -0.2871 -0.1008  1.0283
14115SOL    HW245300   2.647   2.985   4.265 -1.1842 -0.6331 -0.0450
14116SOL     OW45301   4.057   6.997   2.423  0.0482  0.0999  0.2544
14116SOL    HW145302   3.983   7.048   2.456 -1.4833 -1.1305 -1.0576
14116SOL    HW245303   4.082   7.040   2.342  0.4265  0.2113  0.4303
14117SOL     OW45304   2.251   0.238   4.546 -0.6089 -0.3105 -0.2426
14117SOL    HW145305   2.282   0.326   4.525 -0.5126 -0.1673  0.4885
14117SOL    HW245306   2.239   0.238   4.641 -3.8854  0.0022 -0.5263
14118SOL     OW45307   0.210   7.656   5.323 -0.0026 -0.4939  0.0205
14118SOL    HW145308   0.152   7.711   5.271  0.0787  1.0258  1.4615
14118SOL    HW245309   0.174   7.662   5.412  1.8296 -0.2407  0.7787
14119SOL     OW45310   0.738   0.746   7.001 -0.0592  0.0561  0.2294
14119SOL    HW145311   0.749   0.673   7.062 -0.3160 -0.3341 -0.1863
14119SOL    HW245312   0.643   0.754   6.989  0.0168 -0.5169 -0.8819
14120SOL     OW45313   3.621   6.427   5.574  0.0720 -0.0829 -0.1942
14120SOL    HW145314   3.565   6.353   5.553  0.1297 -0.3507  0.5839
14120SOL    HW245315   3.665   6.403   5.655 -1.1462  1.4499  0.9910
14121SOL     OW45316   7.157   2.155   3.789 -0.1977 -0.4650 -0.2827
14121SOL    HW145317   7.234   2.176   3.841 -1.0704 -0.4224  1.0552
14121SOL    HW245318   7.123   2.074   3.827 -1.7710  0.4190  0.3322
14122SOL     OW45319   2.355   5.118   6.498  0.1394 -0.0989  0.0922
14122SOL    HW145320   2.376   5.031   6.463  0.8874  0.2099 -0.2629
14122SOL    HW245321   2.261   5.128   6.486 -0.3620 -1.7388  2.1410
14123SOL     OW45322   5.539   5.306   4.985  0.2366  0.1264 -0.2489
14123SOL    HW145323   5.451   5.299   4.948  0.0181  1.6740 -0.0617
14123SOL    HW245324   5.531   5.272   5.074  0.1262 -0.8861 -0.6258
14124SOL     OW45325   2.454   5.426   6.736 -0.0955  0.2676 -0.1002
14124SOL    HW145326   2.496   5.511   6.726  0.9597  0.1309  2.3973
14124SOL    HW245327   2.387   5.440   6.803  1.9363 -1.3093  2.4874
14125SOL     OW45328   6.561   6.207   1.485 -0.2427  0.3330  0.3724
14125SOL    HW145329   6.595   6.292   1.458 -0.9257  0.2824 -0.7092
14125SOL    HW245330   6.631   6.170   1.539 -0.0224  1.6605  1.0429
14126SOL     OW45331   2.815   0.609   0.512  0.0592  0.1730  0.0002
14126SOL    HW145332   2.816   0.686   0.456 -1.5643 -0.0147 -0.3603
14126SOL    HW245333   2.798   0.536   0.452 -0.2623 -0.2143  0.5473
14127SOL     OW45334   4.365   7.370   4.858  0.3739  0.4771  0.0461
14127SOL    HW145335   4.334   7.436   4.920  0.2630  2.7200 -2.2254
14127SOL    HW245336   4.297   7.367   4.791  1.3012 -0.5746 -0.8826
14128SOL     OW45337   4.696   2.892   2.540 -0.5043  0.0703 -0.0874
14128SOL    HW145338   4.736   2.977   2.522 -2.4280  1.5773  2.0618
14128SOL    HW245339   4.646   2.872   2.461  0.6567  0.4650 -0.9554
14129SOL     OW45340   1.630   5.889   3.337  0.3450  0.1163  0.2089
14129SOL    HW145341   1.673   5.808   3.310  1.3283  1.1521 -1.4822
14129SOL    HW245342   1.647   5.894   3.431  1.4147 -0.9721  0.1056
14130SOL     OW45343   5.209   2.884   2.113  0.0278 -0.0298 -0.0740
14130SOL    HW145344   5.153   2.899   2.038  1.3321 -1.3111 -1.3841
14130SOL    HW245345   5.190   2.793   2.139 -0.4417  0.4108  1.1948
14131SOL     OW45346   7.791   0.368   2.433  0.0849  0.3276 -0.2242
14131SOL    HW145347   7.721   0.372   2.498  0.5806 -2.1519  0.5443
14131SOL    HW245348   7.865   0.412   2.475 -0.1748  0.4766  0.0810
14132SOL     OW45349   3.248   3.498   6.113 -0.2059  0.3554 -0.1263
14132SOL    HW145350   3.156   3.520   6.100 -0.2485  0.2084 -0.0784
14132SOL    HW245351   3.246   3.416   6.163 -0.0607 -0.8076 -1.9515
14133SOL     OW45352   1.006   7.932   4.478  0.1260  0.4693 -0.6593
14133SOL    HW145353   0.988   8.022   4.449 -0.2268  0.4194 -0.5892
14133SOL    HW245354   1.101   7.930   4.489  0.0611  1.0666  0.1115
14134SOL     OW45355   5.198   4.690   5.176  0.5163 -0.0767  0.4425
14134SOL    HW145356   5.133   4.622   5.196 -0.7269  0.9814  0.1781
14134SOL    HW245357   5.225   4.722   5.262 -1.4372  1.3611  0.6037
14135SOL     OW45358   1.555   7.153   0.977  0.3748  0.2443 -0.7828
14135SOL    HW145359   1.522   7.065   0.956  1.1731  0.3714 -2.8277
14135SOL    HW245360   1.583   7.147   1.068  0.9838 -1.8400 -1.0442
14136SOL     OW45361   6.660   5.295   7.382 -0.1293  0.4354  0.2385
14136SOL    HW145362   6.734   5.279   7.323  0.6975 -1.1605  1.6133
14136SOL    HW245363   6.666   5.388   7.403  1.7344  0.2866  0.5584
14137SOL     OW45364   6.003   0.503   5.282  0.3510  0.4629 -0.1660
14137SOL    HW145365   6.097   0.499   5.295  0.5834 -0.9563 -1.9416
14137SOL    HW245366   5.974   0.412   5.281 -0.7727  0.7968 -1.1852
14138SOL     OW45367   7.915   2.805   6.458 -0.1770  0.5076  0.1470
14138SOL    HW145368   8.003   2.843   6.461 -0.4182  1.0268  1.0459
14138SOL    HW245369   7.904   2.777   6.367  1.1398 -0.1152  0.1569
14139SOL     OW45370   5.807   6.171   1.501  0.4130  0.4204  0.2134
14139SOL    HW145371   5.712   6.169   1.489  0.6239  1.3323 -2.1182
14139SOL    HW245372   5.824   6.256   1.543  0.1284 -0.2860  1.8118
14140SOL     OW45373   2.128   7.395   0.324  0.0166  0.0592  0.2176
14140SOL    HW145374   2.073   7.466   0.357 -0.6571 -0.9030  1.2333
14140SOL    HW245375   2.213   7.409   0.365 -0.5032 -0.4855  1.5325
14141SOL     OW45376   1.144   2.436   3.225  0.9402  0.2805 -0.7153
14141SOL    HW145377   1.175   2.383   3.299  0.4568 -0.8303 -1.2715
14141SOL    HW245378   1.050   2.447   3.241  0.7076 -0.5027 -1.4591
14142SOL     OW45379   4.367   7.943   6.886 -0.4624 -0.1288  0.5278
14142SOL    HW145380   4.379   8.003   6.959  0.0476  0.4334 -0.0033
14142SOL    HW245381   4.340   7.860   6.926  2.6438 -0.7413  1.6492
14143SOL     OW45382   6.920   4.254   0.209 -0.1242  0.5079  0.6347
14143SOL    HW145383   6.853   4.244   0.276 -0.5125 -0.4894  0.1107
14143SOL    HW245384   6.904   4.183   0.148  0.4824  1.1608 -0.3044
14144SOL     OW45385   6.675   5.835   2.874 -0.1250 -0.0064 -0.4625
14144SOL    HW145386   6.729   5.783   2.814  3.2341  2.0787  0.5182
14144SOL    HW245387   6.663   5.919   2.829  0.6779  0.8491  0.8560
14145SOL     OW45388   5.118   7.134   4.586  0.1187 -0.3629 -0.1882
14145SOL    HW145389   5.158   7.111   4.502 -0.5285 -0.7631 -0.3863
14145SOL    HW245390   5.092   7.051   4.624 -2.6282 -0.0187 -1.1041
14146SOL     OW45391   6.281   4.829   1.893 -0.1245  0.0839  0.0622
14146SOL    HW145392   6.338   4.906   1.890 -0.1158  0.0545 -1.6548
14146SOL    HW245393   6.195   4.862   1.869 -0.1274 -0.4230 -0.6598
14147SOL     OW45394   5.147   0.359   5.511  0.1700  0.4331  0.0553
14147SOL    HW145395   5.198   0.415   5.570  1.0902  0.5604 -0.8245
14147SOL    HW245396   5.177   0.384   5.423 -0.4151 -0.4799 -0.4175
14148SOL     OW45397   4.087   5.820   6.282  0.4797 -0.2995 -0.4626
14148SOL    HW145398   4.035   5.862   6.352  0.2818 -1.1179 -0.1102
14148SOL    HW245399   4.044   5.736   6.267  1.0814 -0.5332 -0.9207
14149SOL     OW45400   4.843   7.451   2.602  0.0041  0.4793  0.4951
14149SOL    HW145401   4.813   7.469   2.513  0.6960 -1.8777 -0.2914
14149SOL    HW245402   4.786   7.505   2.658 -3.2611 -1.0113 -1.1199
14150SOL     OW45403   3.612   5.497   0.883  0.2780  0.0109 -0.2456
14150SOL    HW145404   3.626   5.433   0.813 -1.2634  0.2038 -0.7758
14150SOL    HW245405   3.520   5.524   0.873 -0.6735 -1.4791  3.1046
14151SOL     OW45406   1.258   3.619   6.889  0.2850 -0.7510 -0.2404
14151SOL    HW145407   1.282   3.537   6.845 -1.4926 -0.8624 -1.0792
14151SOL    HW245408   1.163   3.621   6.886  0.2615  0.9182  0.5959
14152SOL     OW45409   5.294   5.072   4.782  0.7627 -0.4856  0.6645
14152SOL    HW145410   5.239   5.052   4.858 -1.9978 -1.8421 -1.4651
14152SOL    HW245411   5.277   5.164   4.763 -2.9057 -1.3503 -1.2550
14153SOL     OW45412   1.228   3.333   5.795 -0.4497  0.0333  0.1057
14153SOL    HW145413   1.311   3.359   5.754  0.6995 -0.0688  2.2387
14153SOL    HW245414   1.196   3.412   5.838 -0.7293 -0.2853  0.4898
14154SOL     OW45415   6.431   2.373   6.220 -0.1522 -0.2662 -0.0809
14154SOL    HW145416   6.400   2.376   6.311  0.0564  1.4294 -0.0434
14154SOL    HW245417   6.524   2.351   6.228  0.7137  3.0580  0.4058
14155SOL     OW45418   0.465   5.709   1.281 -0.2718 -0.0994 -0.0056
14155SOL    HW145419   0.439   5.617   1.290  0.2379 -0.5076 -2.0119
14155SOL    HW245420   0.383   5.757   1.274 -0.5384 -0.4569  0.6099
14156SOL     OW45421   0.624   4.082   4.732  0.6439 -0.0411  0.2117
14156SOL    HW145422   0.669   4.161   4.702 -0.1038 -0.3971 -2.0414
14156SOL    HW245423   0.685   4.010   4.714  1.2224 -0.0564  2.0293
14157SOL     OW45424   7.500   4.733   4.871  0.1055 -0.5605 -0.3109
14157SOL    HW145425   7.477   4.822   4.899  1.1190 -0.0756 -0.9519
14157SOL    HW245426   7.464   4.725   4.783 -1.6649 -1.5032  0.4544
14158SOL     OW45427   7.906   5.005   4.113  0.0426 -0.6345 -0.4034
14158SOL    HW145428   7.823   4.966   4.140 -0.3238  0.1036 -0.4265
14158SOL    HW245429   7.939   5.048   4.193 -0.4654  0.5476 -0.7983
14159SOL     OW45430   3.026   7.517   0.948 -0.2426 -0.1577  0.0262
14159SOL    HW145431   3.063   7.569   0.877  1.4971 -1.1259  0.1640
14159SOL    HW245432   3.031   7.426   0.918  1.1526 -0.6572  1.6061
14160SOL     OW45433   6.607   1.936   7.036 -0.0765 -1.1575 -0.4029
14160SOL    HW145434   6.512   1.923   7.043 -0.3694  0.7083 -0.2310
14160SOL    HW245435   6.616   2.031   7.022  1.8257 -1.0809  1.0407
14161SOL     OW45436   1.147   0.240   0.507 -0.2721 -0.0874  0.4223
14161SOL    HW145437   1.129   0.205   0.420  0.4810  1.0876 -0.2277
14161SOL    HW245438   1.242   0.233   0.516 -0.3671 -0.4259  1.2557
14162SOL     OW45439   3.891   1.949   5.462  0.8149 -0.1863  1.1736
14162SOL    HW145440   3.978   1.960   5.500  1.2461 -2.4289  1.0105
14162SOL    HW245441   3.887   1.856   5.439 -0.4587  0.4582 -1.7035
14163SOL     OW45442   7.380   2.317   3.604 -0.0652 -0.3657  0.1156
14163SOL    HW145443   7.439   2.338   3.532 -0.1489  1.7582  0.6105
14163SOL    HW245444   7.294   2.306   3.563  0.0082  0.1926 -0.1923
14164SOL     OW45445   2.832   5.191   0.382  0.5907 -0.3893  0.3538
14164SOL    HW145446   2.892   5.252   0.339  1.0089 -1.7993 -1.1751
14164SOL    HW245447   2.880   5.108   0.384  0.5066 -0.4779  3.4364
14165SOL     OW45448   1.872   1.619   6.733 -0.5063  0.1120  0.0910
14165SOL    HW145449   1.865   1.596   6.640  0.1887 -1.5508  0.3976
14165SOL    HW245450   1.782   1.617   6.765 -0.6874 -0.0192 -0.4060
14166SOL     OW45451   5.234   0.419   7.665 -0.3429 -0.4659 -0.2734
14166SOL    HW145452   5.148   0.377   7.672 -0.0040 -1.5464 -1.9456
14166SOL    HW245453   5.284   0.361   7.609  2.0360 -0.6609  1.8776
14167SOL     OW45454   3.665   3.405   2.879  0.0019 -0.0874 -0.2699
14167SOL    HW145455   3.757   3.419   2.903  0.6857 -0.1273 -2.6868
14167SOL    HW245456   3.668   3.337   2.812 -1.8818 -0.5893  0.1188
14168SOL     OW45457   7.953   6.846   4.944 -0.0786  0.0697 -0.5156
14168SOL    HW145458   8.030   6.876   4.896 -0.9047 -0.5227 -2.3003
14168SOL    HW245459   7.884   6.842   4.878 -1.3893 -0.3780  0.8349
14169SOL     OW45460   4.315   3.074   3.535 -0.3750  0.1741 -0.1863
14169SOL    HW145461   4.369   3.031   3.468 -1.4200 -0.5147 -0.6060
14169SOL    HW245462   4.258   3.132   3.486 -1.2319 -0.4229  0.0868
14170SOL     OW45463   4.735   0.221   7.422 -0.6549  0.1132  0.0797
14170SOL    HW145464   4.724   0.208   7.517 -0.6494 -1.4836 -0.1238
14170SOL    HW245465   4.699   0.142   7.383 -0.4003  0.6427 -1.2546
14171SOL     OW45466   6.421   4.410   0.686 -0.1842  0.0533 -0.2440
14171SOL    HW145467   6.373   4.328   0.678  0.5937 -0.3573 -0.7766
14171SOL    HW245468   6.424   4.427   0.780 -0.6358 -0.3543 -0.1537
14172SOL     OW45469   3.207   2.887   5.968 -0.1132 -0.2929  0.3964
14172SOL    HW145470   3.271   2.945   5.925  0.0968 -0.4100  0.5511
14172SOL    HW245471   3.258   2.811   5.995 -0.4110 -0.6103  0.0838
14173SOL     OW45472   6.127   0.463   2.933  0.0749  0.0649 -0.3255
14173SOL    HW145473   6.036   0.437   2.949 -1.4194  2.5074 -3.5641
14173SOL    HW245474   6.142   0.536   2.994  0.0410 -0.6104  0.5045
14174SOL     OW45475   7.883   6.757   6.694  0.0097  0.0096  0.7042
14174SOL    HW145476   7.879   6.662   6.680 -2.0614  0.3426 -1.4412
14174SOL    HW245477   7.792   6.784   6.704  0.6681  1.5595  3.5160
14175SOL     OW45478   1.048   3.368   8.015  0.0043  0.1625  0.0774
14175SOL    HW145479   0.986   3.399   8.081 -0.8439  0.3083 -0.7785
14175SOL    HW245480   1.003   3.294   7.973  0.4183  0.2594 -0.5419
14176SOL     OW45481   1.941   2.434   2.465 -0.3888 -0.1163 -0.1554
14176SOL    HW145482   1.949   2.425   2.370  1.0607 -0.0855 -0.0652
14176SOL    HW245483   1.985   2.357   2.500 -1.1490 -0.2596  0.4889
14177SOL     OW45484   5.900   7.545   6.195  0.3668  0.1597  0.2888
14177SOL    HW145485   5.963   7.510   6.133 -0.0480  0.4791 -0.3253
14177SOL    HW245486   5.849   7.469   6.224  1.4337 -0.1995  1.2725
14178SOL     OW45487   0.737   5.812   4.639  1.0590 -0.3089  0.0972
14178SOL    HW145488   0.656   5.838   4.684  0.4444 -0.7843 -0.7071
14178SOL    HW245489   0.750   5.879   4.572  0.7636 -0.7684 -0.4337
14179SOL     OW45490   2.056   1.240   1.494  0.2404 -0.9437  0.3924
14179SOL    HW145491   2.143   1.278   1.485  0.1385 -0.6951  0.4606
14179SOL    HW245492   2.044   1.229   1.588 -0.1317 -0.2013  0.4431
14180SOL     OW45493   1.662   0.266   1.435 -0.1483 -0.3002  0.4304
14180SOL    HW145494   1.637   0.338   1.378  0.0080 -0.0301  0.6999
14180SOL    HW245495   1.637   0.187   1.387  2.1360 -0.1926 -1.1010
14181SOL     OW45496   4.639   1.953   0.825  0.0579  0.1853  0.4077
14181SOL    HW145497   4.615   1.865   0.797 -0.0766  0.1327  0.6897
14181SOL    HW245498   4.726   1.943   0.864  0.1896  0.2365  0.1279
14182SOL     OW45499   2.640   0.173   7.950 -0.6376 -0.0372  0.0521
14182SOL    HW145500   2.546   0.172   7.972 -1.6988  1.7339 -3.6644
14182SOL    HW245501   2.663   0.081   7.941 -1.2142 -0.6681  3.4316
14183SOL     OW45502   2.658   2.738   5.084 -0.2367  0.2157  0.2793
14183SOL    HW145503   2.581   2.788   5.060  1.2073  1.0340 -3.2367
14183SOL    HW245504   2.721   2.803   5.116  1.0240  0.5893 -2.6482
14184SOL     OW45505   0.071   5.186   4.051 -0.3155 -0.2826 -0.0867
14184SOL    HW145506   0.019   5.112   4.079 -1.3108  0.7796  0.9503
14184SOL    HW245507   0.113   5.219   4.131 -1.5672  1.5340 -0.1206
14185SOL     OW45508   4.625   5.325   0.815 -0.0424 -0.1047  0.1806
14185SOL    HW145509   4.617   5.393   0.748 -0.4582 -0.2193  0.1137
14185SOL    HW245510   4.545   5.274   0.808  0.0241 -0.2730  0.5991
14186SOL     OW45511   6.142   3.198   1.584 -0.3911  0.5915 -0.6421
14186SOL    HW145512   6.221   3.208   1.531 -0.0542 -0.2704 -0.3168
14186SOL    HW245513   6.167   3.230   1.670 -0.1953 -0.2467 -0.3753
14187SOL     OW45514   4.656   5.762   5.966  0.3848 -0.4414  0.3938
14187SOL    HW145515   4.596   5.836   5.958  1.1876  0.1458 -0.5343
14187SOL    HW245516   4.599   5.685   5.975 -0.6786 -0.2636 -3.2366
14188SOL     OW45517   1.623   2.162   7.827  0.3446 -0.3670 -0.0438
14188SOL    HW145518   1.640   2.251   7.856  0.3390 -0.5133  0.4210
14188SOL    HW245519   1.528   2.153   7.829  0.3732 -0.6169  0.6500
14189SOL     OW45520   2.928   0.626   1.930  0.3693  0.5880 -0.1960
14189SOL    HW145521   2.914   0.533   1.911 -2.2563  0.6581  0.8949
14189SOL    HW245522   2.983   0.626   2.008 -0.0375 -0.1038  0.1096
14190SOL     OW45523   2.036   2.494   4.296 -0.2516 -0.3866 -0.5608
14190SOL    HW145524   2.021   2.523   4.386  1.1709 -3.1338  0.6945
14190SOL    HW245525   2.094   2.560   4.259 -1.1800  1.0059  0.3726
14191SOL     OW45526   6.711   2.541   3.548  0.3655 -0.4095  0.3021
14191SOL    HW145527   6.642   2.500   3.496  0.2532  1.1657 -0.8798
14191SOL    HW245528   6.700   2.635   3.532  1.0610  0.0642  2.3027
14192SOL     OW45529   2.676   4.421   4.250  0.1925 -0.3185  0.5393
14192SOL    HW145530   2.598   4.368   4.234 -0.8676  1.0810  1.0004
14192SOL    HW245531   2.644   4.510   4.262  1.9659  0.5069 -0.4491
14193SOL     OW45532   3.877   1.102   2.918  0.4126 -0.7578  0.0841
14193SOL    HW145533   3.784   1.079   2.923  0.4148 -0.5371  1.6709
14193SOL    HW245534   3.920   1.022   2.889 -0.5369 -0.0381 -4.0032
14194SOL     OW45535   2.213   7.361   5.371 -0.3419  0.3966 -0.4874
14194SOL    HW145536   2.146   7.392   5.432  0.7632  1.3348  0.2760
14194SOL    HW245537   2.166   7.301   5.312 -1.1389 -2.0700  2.4026
14195SOL     OW45538   6.843   1.707   0.786  0.5795  0.0872 -0.0966
14195SOL    HW145539   6.847   1.619   0.749  0.9625  0.4759 -0.9979
14195SOL    HW245540   6.756   1.739   0.761 -0.3271 -0.6942  1.8199
14196SOL     OW45541   1.401   1.454   0.649 -0.0122 -0.0506 -0.0738
14196SOL    HW145542   1.441   1.447   0.736 -0.2621  2.4197  0.3193
14196SOL    HW245543   1.325   1.511   0.662  1.3035  2.4435 -2.2685
14197SOL     OW45544   3.327   0.523   3.054 -0.0956 -0.0202  0.1392
14197SOL    HW145545   3.283   0.490   2.976 -0.4207 -2.0768  1.1158
14197SOL    HW245546   3.415   0.487   3.049 -0.3619 -0.8412  1.0852
14198SOL     OW45547   0.987   6.083   3.545  0.3849 -0.0971  0.3232
14198SOL    HW145548   0.995   6.068   3.639  0.4295 -0.4027  0.2711
14198SOL    HW245549   1.042   6.160   3.529  0.4128 -0.0705  0.5410
14199SOL     OW45550   1.536   7.737   1.348  0.3520  0.2610 -0.0479
14199SOL    HW145551   1.448   7.757   1.314  0.3382  0.1342 -0.0849
14199SOL    HW245552   1.521   7.678   1.422  0.3064  1.3981  0.8841
14200SOL     OW45553   5.863   6.516   7.446 -0.1020  0.0294  0.4898
14200SOL    HW145554   5.954   6.518   7.415 -0.2238 -0.5637  0.0760
14200SOL    HW245555   5.864   6.450   7.516 -0.0998  0.4276  0.8669
14201SOL     OW45556   5.603   0.015   0.555 -1.0122  0.0485 -0.1672
14201SOL    HW145557   5.537  -0.054   0.553 -1.8201  0.8100 -1.6053
14201SOL    HW245558   5.608   0.041   0.647 -1.6548 -1.0062  0.1789
14202SOL     OW45559   7.165   0.044   0.588 -0.5740  0.2215 -0.0604
14202SOL    HW145560   7.178   0.055   0.494  0.3860  0.9539  0.1339
14202SOL    HW245561   7.110  -0.034   0.596  0.4531 -0.6658 -1.1821
14203SOL     OW45562   2.024   1.687   1.694 -0.3342  0.2698  0.1205
14203SOL    HW145563   2.007   1.604   1.739 -1.3751  0.3638 -0.0801
14203SOL    HW245564   2.038   1.750   1.764  1.9846 -0.3305  0.2923
14204SOL     OW45565   6.598   6.694   5.204 -0.2765  0.7287  0.1580
14204SOL    HW145566   6.675   6.684   5.259 -0.2334  0.8913  0.1254
14204SOL    HW245567   6.543   6.618   5.226  0.6180 -0.2993 -0.9946
14205SOL     OW45568   4.578   1.680   7.505  0.5525 -0.2633 -0.2977
14205SOL    HW145569   4.661   1.635   7.492 -0.4974 -1.8618 -2.1364
14205SOL    HW245570   4.521   1.615   7.544  0.1430  0.8206  0.9808
14206SOL     OW45571   4.695   6.703   4.985 -0.2752  0.2879  0.4918
14206SOL    HW145572   4.599   6.701   4.990 -0.5031 -2.6465 -2.1072
14206SOL    HW245573   4.724   6.653   5.061 -1.0976 -2.3627 -0.8356
14207SOL     OW45574   2.930   5.417   3.276  0.3490  0.6987  0.6250
14207SOL    HW145575   2.982   5.454   3.204  1.0985  0.4545  1.0330
14207SOL    HW245576   2.949   5.323   3.272  0.2903  0.6690  1.0563
14208SOL     OW45577   3.625   7.265   6.939 -0.3608  0.1977  0.1968
14208SOL    HW145578   3.551   7.210   6.962  0.4680 -0.0617  2.5188
14208SOL    HW245579   3.602   7.352   6.971 -0.6060  0.6747 -1.1955
14209SOL     OW45580   1.499   7.965   4.091 -0.2440 -0.6775 -0.3677
14209SOL    HW145581   1.436   7.987   4.159 -0.3418 -1.0473 -0.3359
14209SOL    HW245582   1.545   8.047   4.073 -1.6315 -0.0828 -1.3381
14210SOL     OW45583   3.979   4.669   0.770 -0.3744  0.0878  0.0370
14210SOL    HW145584   4.047   4.723   0.729 -1.1671  0.4455 -0.8397
14210SOL    HW245585   4.028   4.599   0.813  0.6056  0.8226  0.1808
14211SOL     OW45586   6.358   4.682   1.640 -0.4402  0.4128 -0.2037
14211SOL    HW145587   6.322   4.707   1.725  1.7333 -1.9082  1.5656
14211SOL    HW245588   6.310   4.604   1.615  0.2959 -0.0924 -0.0638
14212SOL     OW45589   2.275   1.995   3.631  0.3822 -0.1099 -0.5427
14212SOL    HW145590   2.210   1.933   3.600 -2.3530  1.2740  1.9395
14212SOL    HW245591   2.261   2.073   3.577  0.5572 -0.0806 -0.5458
14213SOL     OW45592   6.895   7.663   3.205  0.2736 -0.0092  0.3133
14213SOL    HW145593   6.880   7.691   3.115 -0.6923 -1.3794  0.0053
14213SOL    HW245594   6.958   7.591   3.198 -1.1999 -1.3714  0.4944
14214SOL     OW45595   2.725   2.288   5.639  0.0578  0.1503  0.3789
14214SOL    HW145596   2.706   2.263   5.549  0.5440  1.1511 -0.0213
14214SOL    HW245597   2.697   2.213   5.692  2.6519 -1.8134 -0.8271
14215SOL     OW45598   6.859   5.015   1.182  0.0900 -0.3841 -0.1746
14215SOL    HW145599   6.773   5.001   1.223  0.3567  0.3827  0.6843
14215SOL    HW245600   6.843   5.083   1.116  0.4370  1.3998  1.5094
14216SOL     OW45601   7.225   4.831   6.527 -0.2663  0.4930 -0.1636
14216SOL    HW145602   7.230   4.863   6.437  1.0988 -0.9462 -0.6422
14216SOL    HW245603   7.179   4.901   6.575  0.4116  2.0055 -1.6259
14217SOL     OW45604   3.254   0.469   0.852 -0.0685 -0.0125 -0.2148
14217SOL    HW145605   3.208   0.495   0.772 -1.2932  1.3387  0.8877
14217SOL    HW245606   3.347   0.480   0.830 -0.4246  1.5206 -1.0793
14218SOL     OW45607   6.553   1.626   7.399 -0.5540  0.2918  0.3434
14218SOL    HW145608   6.617   1.666   7.341 -0.8038  0.8219  0.4234
14218SOL    HW245609   6.474   1.618   7.346 -0.5145 -0.0701  0.3382
14219SOL     OW45610   1.706   4.633   0.536 -0.0531 -0.0591  0.3339
14219SOL    HW145611   1.792   4.673   0.543 -0.0490 -0.0404  0.1839
14219SOL    HW245612   1.645   4.703   0.556 -0.1872  0.8527 -2.7317
14220SOL     OW45613   3.437   2.871   4.014  0.4233 -0.4567 -0.6158
14220SOL    HW145614   3.419   2.963   4.033 -0.0570 -0.6688  0.0157
14220SOL    HW245615   3.350   2.832   4.000  0.6044 -0.8534 -0.6591
14221SOL     OW45616   4.155   0.106   3.149  0.2155  0.0230 -0.4202
14221SOL    HW145617   4.102   0.156   3.087 -1.8378 -0.0100  1.1890
14221SOL    HW245618   4.142   0.015   3.125 -0.7375  0.0000  0.1244
14222SOL     OW45619   0.217   1.686   6.912 -0.0374 -0.3792 -0.0679
14222SOL    HW145620   0.154   1.756   6.894  0.7308 -0.1115 -1.9298
14222SOL    HW245621   0.302   1.730   6.914  0.2621 -0.9780  0.7188
14223SOL     OW45622   2.778   2.733   6.704  0.2668  0.7052 -0.0020
14223SOL    HW145623   2.850   2.693   6.752 -1.5765 -0.4259  1.9978
14223SOL    HW245624   2.781   2.825   6.729  0.2803  0.4230  1.0882
14224SOL     OW45625   0.913   2.591   1.870  0.2377 -0.5025  0.3121
14224SOL    HW145626   0.890   2.517   1.813 -0.1391 -1.3038  1.4783
14224SOL    HW245627   1.007   2.605   1.854 -0.1071  0.1255 -1.4279
14225SOL     OW45628   4.169   2.189   7.455  0.5032  0.8518 -0.1623
14225SOL    HW145629   4.205   2.121   7.512  0.2557 -2.1439 -3.2490
14225SOL    HW245630   4.116   2.244   7.513  0.0230 -2.0964  2.4404
14226SOL     OW45631   7.675   3.407   4.292 -0.0436 -0.1922 -0.2765
14226SOL    HW145632   7.670   3.324   4.339 -1.3898  0.5270  0.9057
14226SOL    HW245633   7.588   3.445   4.301  0.7035  1.6027 -0.3079
14227SOL     OW45634   7.924   4.285   5.269 -0.0002 -0.1072  0.1519
14227SOL    HW145635   7.914   4.206   5.217  0.1336  0.8173 -1.3421
14227SOL    HW245636   8.018   4.291   5.286 -0.1684 -1.0417  1.5857
14228SOL     OW45637   7.121   3.731   4.065 -0.7634 -0.0871 -0.0475
14228SOL    HW145638   7.117   3.741   4.160 -1.2627  1.5941 -0.2230
14228SOL    HW245639   7.069   3.653   4.047 -0.8639 -0.2837  1.0358
14229SOL     OW45640   5.930   2.670   5.355 -0.3336 -0.2867 -0.0094
14229SOL    HW145641   5.917   2.632   5.268 -0.7048 -1.1651  0.4151
14229SOL    HW245642   5.922   2.764   5.341 -2.1366 -0.4898 -0.6526
14230SOL     OW45643   4.315   7.003   6.464 -0.3756 -0.7554 -0.5521
14230SOL    HW145644   4.238   6.967   6.508 -0.5074  0.6281  0.3962
14230SOL    HW245645   4.389   6.973   6.517 -0.5282  0.8301  0.6471
14231SOL     OW45646   3.653   2.313   7.047 -0.2398 -0.3927 -0.2727
14231SOL    HW145647   3.667   2.226   7.085  1.4184  0.3202  0.8543
14231SOL    HW245648   3.738   2.340   7.014 -0.4097  1.3262  0.5793
14232SOL     OW45649   4.977   4.854   4.653  0.6938 -0.1927 -0.1723
14232SOL    HW145650   4.956   4.874   4.745  0.3998 -0.5338 -0.1617
14232SOL    HW245651   4.900   4.885   4.605 -0.0127 -1.7433 -0.1035
14233SOL     OW45652   1.064   7.299   1.558 -0.7693 -0.2685  0.0240
14233SOL    HW145653   1.154   7.291   1.591 -1.2072  1.0393  1.6660
14233SOL    HW245654   1.075   7.331   1.468  0.4184  0.9718  0.5723
14234SOL     OW45655   4.881   6.993   5.371  0.8476  0.7607 -0.3568
14234SOL    HW145656   4.842   7.033   5.293 -0.9451  0.6658  0.4512
14234SOL    HW245657   4.844   6.904   5.373  3.1366 -0.2832 -0.9644
14235SOL     OW45658   3.501   6.404   2.294 -0.8347  0.2906  0.7045
14235SOL    HW145659   3.483   6.441   2.207 -2.4741 -3.2534 -0.6402
14235SOL    HW245660   3.423   6.427   2.345 -2.4325 -2.0598 -0.4924
14236SOL     OW45661   7.007   4.528   3.887 -0.5123 -0.0953 -0.4730
14236SOL    HW145662   6.987   4.606   3.835  0.1379  0.1675 -0.3438
14236SOL    HW245663   6.940   4.464   3.862 -0.7425  0.3314 -0.9625
14237SOL     OW45664   4.121   6.855   6.578  0.3019 -0.5630  0.4096
14237SOL    HW145665   4.166   6.771   6.588  0.7763 -0.2031  1.4516
14237SOL    HW245666   4.029   6.836   6.594  0.2995 -1.0075 -0.1022
14238SOL     OW45667   0.828   6.603   6.176 -0.1228 -0.8999  0.1205
14238SOL    HW145668   0.752   6.660   6.165  1.2184  1.1327  0.8624
14238SOL    HW245669   0.900   6.650   6.135  0.6535 -3.1436 -1.2860
14239SOL     OW45670   0.631   0.859   7.285 -0.1776 -0.1137  0.0183
14239SOL    HW145671   0.554   0.841   7.340 -1.6188 -0.5276 -2.0254
14239SOL    HW245672   0.671   0.773   7.272  1.1278  0.1886  1.6649
14240SOL     OW45673   3.794   5.950   6.404  0.5547  0.1787  0.6576
14240SOL    HW145674   3.850   6.027   6.414  2.0346 -0.7545 -0.0939
14240SOL    HW245675   3.773   5.948   6.310 -0.9318  0.6127  0.9534
14241SOL     OW45676   0.465   7.067   3.585 -0.1834 -0.1487 -0.2193
14241SOL    HW145677   0.415   7.130   3.636  1.7157  1.3803 -0.1400
14241SOL    HW245678   0.498   7.004   3.649  0.3899  0.5058  0.1258
14242SOL     OW45679   4.791   6.161   6.553  0.5128  0.0393 -0.8679
14242SOL    HW145680   4.775   6.255   6.565 -1.0862 -0.2719 -0.3631
14242SOL    HW245681   4.722   6.118   6.603  2.9574 -1.4743  1.4982
14243SOL     OW45682   7.561   7.039   6.950  1.0597 -0.2156  0.6856
14243SOL    HW145683   7.590   6.950   6.969 -0.0148 -0.7271  0.0102
14243SOL    HW245684   7.630   7.095   6.986  1.0606 -1.2554  2.3886
14244SOL     OW45685   3.593   5.509   4.055 -0.1280 -0.0545 -0.6785
14244SOL    HW145686   3.625   5.421   4.074  0.1284 -0.1898 -1.6867
14244SOL    HW245687   3.606   5.520   3.961 -0.0680  1.1032 -0.5508
14245SOL     OW45688   3.612   6.706   5.861  0.0657 -0.1255  0.0884
14245SOL    HW145689   3.548   6.713   5.790  1.2028  0.6369 -0.9000
14245SOL    HW245690   3.695   6.689   5.816  0.4897 -1.6417  1.3681
14246SOL     OW45691   5.956   1.747   7.952  0.1522 -0.5434  0.2143
14246SOL    HW145692   6.038   1.705   7.925  0.4666  0.2006 -0.0268
14246SOL    HW245693   5.982   1.806   8.023 -0.8245 -3.3484  3.1655
14247SOL     OW45694   7.440   5.958   0.018  0.2188  0.1918 -0.1998
14247SOL    HW145695   7.453   6.048   0.048 -0.8552  0.6188 -0.9848
14247SOL    HW245696   7.520   5.937  -0.031 -0.6216  1.6930 -2.3391
14248SOL     OW45697   6.107   1.546   4.737 -0.1629  0.3328  0.1588
14248SOL    HW145698   6.108   1.591   4.822  0.7919  0.3569  0.1456
14248SOL    HW245699   6.104   1.616   4.673  1.0876  0.3970  0.1437
14249SOL     OW45700   6.899   8.104   7.454  0.3241  0.0531 -0.5342
14249SOL    HW145701   6.982   8.150   7.451  0.9085 -1.0098 -1.8615
14249SOL    HW245702   6.914   8.024   7.404 -1.5089 -0.1391 -0.8626
14250SOL     OW45703   0.667   1.943   0.432  0.2493 -0.4725  0.5291
14250SOL    HW145704   0.591   1.972   0.382  0.1730 -0.2730  0.7588
14250SOL    HW245705   0.686   1.856   0.397  0.5204 -0.1280 -0.2095
14251SOL     OW45706   3.140   4.918   7.104 -0.1263 -0.3809  0.3779
14251SOL    HW145707   3.072   4.904   7.039  0.4572  0.9809 -0.5772
14251SOL    HW245708   3.112   4.996   7.152  0.5727 -0.0152  0.2066
14252SOL     OW45709   0.073   5.460   5.633 -0.0592 -0.6960  0.7027
14252SOL    HW145710   0.070   5.462   5.728 -1.2575 -1.8868  0.7234
14252SOL    HW245711   0.012   5.390   5.609 -2.5680  1.8973 -1.0751
14253SOL     OW45712   3.084   6.092   4.301 -0.3668 -0.1152 -0.0094
14253SOL    HW145713   3.007   6.092   4.358 -0.9222  0.3324 -0.7542
14253SOL    HW245714   3.052   6.122   4.216  0.5780 -0.1726 -0.3989
14254SOL     OW45715   2.347   0.441   8.046  0.6349  0.4815  0.1542
14254SOL    HW145716   2.436   0.454   8.012  0.5488  0.5298 -0.0553
14254SOL    HW245717   2.346   0.350   8.075  0.8978  0.6172  0.5936
14255SOL     OW45718   3.724   5.229   5.758 -0.0019 -0.3134 -0.3053
14255SOL    HW145719   3.757   5.141   5.772  2.6771  0.8167  1.2725
14255SOL    HW245720   3.803   5.283   5.750 -1.5053  2.1870  0.6550
14256SOL     OW45721   4.854   1.744   0.513 -0.3099 -0.4047  0.2857
14256SOL    HW145722   4.837   1.716   0.603  2.3514  0.5379  1.1712
14256SOL    HW245723   4.940   1.706   0.493 -0.1086  0.7826 -1.2352
14257SOL     OW45724   0.065   3.892   5.532  0.3263 -0.3860 -0.3042
14257SOL    HW145725   0.008   3.824   5.567  0.8744 -0.7166 -0.0458
14257SOL    HW245726   0.154   3.857   5.542  0.5721  0.0860 -0.7758
14258SOL     OW45727   5.672   4.979   7.012 -0.3405  0.2485 -0.1410
14258SOL    HW145728   5.601   5.016   7.066  1.1892  1.9752  0.8110
14258SOL    HW245729   5.752   5.020   7.046  1.2304 -2.1055 -0.7460
14259SOL     OW45730   5.190   2.736   3.956  0.5319  0.3202 -0.2985
14259SOL    HW145731   5.251   2.804   3.926  0.4842  1.1775  1.4209
14259SOL    HW245732   5.204   2.663   3.895  0.7940  1.7394 -2.0270
14260SOL     OW45733   0.661   4.269   1.826  0.1638 -0.2830  0.3486
14260SOL    HW145734   0.573   4.237   1.847  1.0043 -2.4418  0.9233
14260SOL    HW245735   0.646   4.344   1.768 -2.0559  0.2233  1.4528
14261SOL     OW45736   0.309   2.085   3.211  0.4508  0.2225  0.6854
14261SOL    HW145737   0.224   2.122   3.232  0.1756  1.0267 -1.5415
14261SOL    HW245738   0.299   1.991   3.226 -0.5863  0.4011  1.1758
14262SOL     OW45739   0.913   5.376   3.380 -0.4934 -0.5785 -0.3408
14262SOL    HW145740   0.920   5.316   3.454 -0.4202 -0.4721 -0.2614
14262SOL    HW245741   0.984   5.350   3.321 -0.5529 -0.6642 -0.3746
14263SOL     OW45742   6.762   0.352   2.357 -0.1515 -0.1148 -0.2374
14263SOL    HW145743   6.738   0.434   2.401  1.3171 -1.1275  2.7308
14263SOL    HW245744   6.710   0.285   2.401  0.1415 -1.0115 -1.2260
14264SOL     OW45745   3.881   6.749   6.724 -0.3558 -1.0614 -0.3723
14264SOL    HW145746   3.816   6.683   6.702 -0.8730 -0.5660 -0.3616
14264SOL    HW245747   3.831   6.821   6.762  0.1523 -0.5261 -0.6874
14265SOL     OW45748   2.795   3.273   7.112  0.0647 -0.1351  0.5422
14265SOL    HW145749   2.856   3.215   7.066  0.7620  1.6341 -0.9093
14265SOL    HW245750   2.730   3.295   7.046 -0.2613  0.6206  1.1085
14266SOL     OW45751   1.943   7.253   4.497  0.6439  0.6657  0.1271
14266SOL    HW145752   2.014   7.193   4.523 -0.5194 -0.3720  1.0100
14266SOL    HW245753   1.909   7.216   4.416 -0.0816  0.0993  0.6778
14267SOL     OW45754   6.614   7.828   2.672 -0.3205 -0.2429  0.0117
14267SOL    HW145755   6.583   7.738   2.660 -0.4162 -0.0723 -1.0906
14267SOL    HW245756   6.670   7.823   2.749  0.0318 -1.3454 -0.2886
14268SOL     OW45757   7.671   0.751   5.791  0.4266 -0.6020  0.1616
14268SOL    HW145758   7.679   0.759   5.696  0.5415  1.2165  0.3035
14268SOL    HW245759   7.754   0.713   5.820  1.9259  2.2490 -0.1224
14269SOL     OW45760   7.390   5.555   8.124  0.6009 -0.1411 -0.2842
14269SOL    HW145761   7.420   5.622   8.185  1.5881 -0.2468 -0.6331
14269SOL    HW245762   7.357   5.604   8.049  0.8179 -0.0262 -0.3076
14270SOL     OW45763   4.593   3.407   5.599  0.3520 -0.1175 -0.1738
14270SOL    HW145764   4.619   3.493   5.566  1.8541 -0.5595 -0.2246
14270SOL    HW245765   4.530   3.374   5.535  1.9139 -0.2321 -1.7336
14271SOL     OW45766   5.935   3.312   5.908 -0.2916 -0.4624 -0.0378
14271SOL    HW145767   5.888   3.272   5.835  0.0901 -0.8514 -0.0733
14271SOL    HW245768   6.027   3.309   5.882 -0.3428  2.1210 -0.8767
14272SOL     OW45769   3.774   0.351   7.327 -0.6798  0.5881  0.1009
14272SOL    HW145770   3.849   0.306   7.365  0.6542 -0.2020 -3.1024
14272SOL    HW245771   3.702   0.289   7.336  0.1646 -0.5534 -0.6335
14273SOL     OW45772   3.067   4.403   5.894 -0.9238 -0.2108 -0.5770
14273SOL    HW145773   3.051   4.339   5.962  1.9904 -0.4349 -0.0035
14273SOL    HW245774   3.051   4.356   5.812  1.9346 -2.0240 -0.2045
14274SOL     OW45775   1.611   2.229   4.922 -0.6427 -0.2142  0.2513
14274SOL    HW145776   1.554   2.262   4.851 -1.0640 -1.5285 -0.0473
14274SOL    HW245777   1.559   2.241   5.001 -1.1982 -1.0394  0.0250
14275SOL     OW45778   2.404   0.106   0.402  0.6742 -0.3586  0.3066
14275SOL    HW145779   2.421   0.200   0.396  2.9873 -0.6242  1.4042
14275SOL    HW245780   2.342   0.097   0.475  1.2126  0.2714  0.8583
14276SOL     OW45781   0.847   3.462   7.433  0.2529 -0.6513 -0.4469
14276SOL    HW145782   0.860   3.546   7.390 -0.6353  0.4025  1.2235
14276SOL    HW245783   0.852   3.398   7.362 -0.2997  0.9011 -1.9713
14277SOL     OW45784   1.270   5.737   6.635  0.0621 -0.0586 -0.2836
14277SOL    HW145785   1.254   5.701   6.722  3.8762  0.4380  0.8175
14277SOL    HW245786   1.217   5.817   6.632  2.1830  1.7496  3.0758
14278SOL     OW45787   2.892   7.076   2.589  0.2459  0.1272  0.1323
14278SOL    HW145788   2.930   7.113   2.509 -0.4399 -1.0354 -0.7587
14278SOL    HW245789   2.889   7.150   2.650 -0.5375  1.4188 -1.3940
14279SOL     OW45790   5.733   4.132   5.351 -0.1788  0.5865  0.3513
14279SOL    HW145791   5.708   4.124   5.259 -0.4950 -0.8181  0.5424
14279SOL    HW245792   5.662   4.184   5.390  1.0807  3.2209 -0.5970
14280SOL     OW45793   4.629   0.129   6.909  0.1085 -0.7166  0.3456
14280SOL    HW145794   4.540   0.165   6.915  0.3780 -0.2089  1.7670
14280SOL    HW245795   4.672   0.160   6.989  1.7704 -0.4186 -0.6297
14281SOL     OW45796   6.003   5.729   6.242 -0.1797 -0.3712 -0.6899
14281SOL    HW145797   5.956   5.716   6.160  0.4439 -0.8292 -0.9760
14281SOL    HW245798   6.014   5.641   6.279  0.1452 -0.2379 -0.4569
14282SOL     OW45799   1.963   0.115   4.701 -0.2915  0.1568 -0.8431
14282SOL    HW145800   1.881   0.078   4.733  0.2858  0.5432  1.2792
14282SOL    HW245801   1.937   0.175   4.632 -1.6740 -0.6110 -1.0286
14283SOL     OW45802   0.204   2.426   5.733 -0.2520 -0.0251 -0.0366
14283SOL    HW145803   0.119   2.381   5.732 -1.3581  1.9768 -0.3962
14283SOL    HW245804   0.195   2.493   5.800  1.6316 -0.7424  1.0153
14284SOL     OW45805   4.217   0.941   4.657 -0.1555  0.3416  0.0271
14284SOL    HW145806   4.200   1.031   4.686 -2.1000 -0.5768  2.0724
14284SOL    HW245807   4.282   0.908   4.720 -0.3794 -0.0504  0.0559
14285SOL     OW45808   7.169   0.553   4.058 -0.2961  0.5575  0.2036
14285SOL    HW145809   7.101   0.523   3.997  0.1139  0.1167 -0.0426
14285SOL    HW245810   7.227   0.478   4.068 -0.3372  0.6298  1.1250
14286SOL     OW45811   0.556   7.249   7.586  0.1946 -0.0921  0.0363
14286SOL    HW145812   0.487   7.205   7.537 -1.5825  0.7147  1.7223
14286SOL    HW245813   0.637   7.225   7.539 -0.9980 -2.4774 -0.9790
14287SOL     OW45814   5.909   8.078   7.302  0.2233 -0.9570 -0.4056
14287SOL    HW145815   5.936   8.170   7.305 -1.5901 -0.4139  0.5440
14287SOL    HW245816   5.858   8.071   7.221  0.9237 -1.3194 -0.8266
14288SOL     OW45817   1.631   2.107   6.777  0.6056 -0.0406  0.2402
14288SOL    HW145818   1.686   2.167   6.727 -0.7486  1.5388  0.5574
14288SOL    HW245819   1.675   2.099   6.862  0.5595  0.9162  0.3620
14289SOL     OW45820   2.140   2.930   5.831  0.1496 -0.2506 -0.2299
14289SOL    HW145821   2.088   2.855   5.802 -0.5859 -0.3567  1.2412
14289SOL    HW245822   2.223   2.892   5.858 -0.3779 -0.6383  0.9276
14290SOL     OW45823   3.393   2.285   5.706  0.5455  0.6427 -0.5280
14290SOL    HW145824   3.359   2.328   5.784  1.3838  2.1593 -0.9495
14290SOL    HW245825   3.458   2.346   5.671  1.1099 -0.5675 -1.7084
14291SOL     OW45826   5.147   1.114   6.618 -0.3790 -0.5101 -0.0907
14291SOL    HW145827   5.134   1.078   6.530 -1.7734 -0.2261 -0.0317
14291SOL    HW245828   5.155   1.208   6.605  1.0781 -0.6085 -0.0443
14292SOL     OW45829   2.523   0.720   3.834  0.3106 -0.4645  0.5337
14292SOL    HW145830   2.522   0.813   3.811  2.0770 -0.4769  0.2729
14292SOL    HW245831   2.516   0.718   3.929  0.2480 -0.0584  0.5380
14293SOL     OW45832   1.905   5.824   1.474 -0.3128  0.0340 -0.1627
14293SOL    HW145833   1.981   5.841   1.419  0.9676 -0.8626  1.2444
14293SOL    HW245834   1.831   5.825   1.413  0.6169  2.1875 -1.3866
14294SOL     OW45835   4.390   1.600   3.917  0.3989 -0.2233  0.3607
14294SOL    HW145836   4.347   1.559   3.992  1.4774 -1.3222  0.4252
14294SOL    HW245837   4.412   1.526   3.860 -1.3525  0.6698 -1.5917
14295SOL     OW45838   0.288   1.312   0.775 -0.4199 -0.0991  0.2200
14295SOL    HW145839   0.223   1.250   0.742  0.5281  0.0829 -2.2657
14295SOL    HW245840   0.347   1.259   0.828 -1.4436 -0.6448  0.8595
14296SOL     OW45841   1.478   4.373   0.609 -0.1352 -0.2919 -0.7128
14296SOL    HW145842   1.426   4.386   0.689 -0.6351 -0.5078 -0.9939
14296SOL    HW245843   1.541   4.305   0.631  0.1765  0.1244 -0.3005
14297SOL     OW45844   6.024   3.713   5.334 -0.3852  0.0040  0.1315
14297SOL    HW145845   5.982   3.798   5.332 -0.1456  0.1802  1.4005
14297SOL    HW245846   6.067   3.710   5.420  0.2036 -1.1036 -0.1831
14298SOL     OW45847   7.592   2.439   1.565  0.3026  0.0044 -0.6274
14298SOL    HW145848   7.607   2.466   1.656  1.7911 -0.8301 -0.5840
14298SOL    HW245849   7.505   2.472   1.544  0.8444  2.2933  0.3421
14299SOL     OW45850   7.648   2.168   3.853 -1.0622 -0.7255  0.1189
14299SOL    HW145851   7.659   2.107   3.926  0.7249  0.2355  0.7129
14299SOL    HW245852   7.709   2.137   3.786  0.5576  0.8739  0.7871
14300SOL     OW45853   2.966   7.558   0.667 -0.7106 -0.9143  0.6888
14300SOL    HW145854   2.905   7.530   0.736  0.3690 -1.1634  1.5777
14300SOL    HW245855   2.980   7.479   0.614 -0.2736 -1.1752  1.1810
14301SOL     OW45856   6.593   1.053   3.452 -0.4079  0.4733 -0.7798
14301SOL    HW145857   6.518   1.020   3.502  0.5335 -0.4510  0.1004
14301SOL    HW245858   6.654   1.084   3.519  0.1618  0.8466 -1.4613
14302SOL     OW45859   1.549   0.118   3.002  0.8593  0.5456 -0.5211
14302SOL    HW145860   1.537   0.023   3.003  1.2821  0.4859 -0.8253
14302SOL    HW245861   1.599   0.136   3.082 -0.2057  0.6563  0.1394
14303SOL     OW45862   1.029   3.898   1.151  0.1873  0.2347  0.4022
14303SOL    HW145863   1.112   3.927   1.190 -0.7794  2.3710  0.9533
14303SOL    HW245864   1.021   3.950   1.071 -0.5776 -0.0430  0.2980
14304SOL     OW45865   3.801   2.714   4.462 -0.3740  0.1445 -0.0783
14304SOL    HW145866   3.707   2.700   4.461 -0.7023  1.8699  1.0795
14304SOL    HW245867   3.812   2.807   4.440  0.9422  0.2935  1.0254
14305SOL     OW45868   2.557   4.976   1.277 -0.5586 -0.2159 -0.2163
14305SOL    HW145869   2.589   4.902   1.225 -0.0643 -1.0197  1.1917
14305SOL    HW245870   2.498   4.937   1.341 -0.0312  0.5546  0.7661
14306SOL     OW45871   0.615   1.419   6.196 -0.2203  0.5150  0.1614
14306SOL    HW145872   0.658   1.362   6.132 -0.9823 -2.2393  1.9319
14306SOL    HW245873   0.684   1.441   6.259 -0.3807 -0.2411  0.6127
14307SOL     OW45874   1.138   3.721   1.968  0.4286  0.1013  0.9171
14307SOL    HW145875   1.126   3.815   1.953  0.1005 -0.1575 -0.5763
14307SOL    HW245876   1.107   3.679   1.888 -0.1677 -1.3477  1.8510
14308SOL     OW45877   3.877   3.866   4.933 -0.2388  0.2366  0.5034
14308SOL    HW145878   3.815   3.806   4.974 -0.4639 -0.2486 -0.5190
14308SOL    HW245879   3.878   3.840   4.841  0.0780  1.4527  0.1526
14309SOL     OW45880   6.397   7.580   5.149  0.3369  0.2135 -0.1169
14309SOL    HW145881   6.460   7.645   5.180 -1.2551  1.6064  0.3808
14309SOL    HW245882   6.432   7.550   5.065  2.1216  0.2028  0.5887
14310SOL     OW45883   4.117   5.922   7.950 -0.3665 -0.2649  0.4349
14310SOL    HW145884   4.146   5.841   7.908 -0.0642  0.9979 -1.9696
14310SOL    HW245885   4.198   5.963   7.982 -0.2409  0.1291 -0.3654
14311SOL     OW45886   0.372   6.642   5.292  0.4234 -0.4570 -0.6472
14311SOL    HW145887   0.364   6.686   5.208 -1.2162  0.0385 -0.2719
14311SOL    HW245888   0.442   6.688   5.337  0.3505  0.1986 -1.1935
14312SOL     OW45889   4.377   4.782   5.848  0.1297  0.1449 -0.1628
14312SOL    HW145890   4.334   4.866   5.832  0.1898  0.0671 -0.7786
14312SOL    HW245891   4.471   4.804   5.847  0.3078 -0.2840 -2.9505
14313SOL     OW45892   3.913   6.086   7.538 -0.5173  0.1996  0.7405
14313SOL    HW145893   3.902   6.060   7.630  0.7071 -0.0900  0.8248
14313SOL    HW245894   3.950   6.009   7.496  0.3095  0.7992  0.3324
14314SOL     OW45895   8.119   2.066   6.205  0.1960  0.4231  0.0363
14314SOL    HW145896   8.159   2.011   6.137 -0.1405 -0.9295  0.8999
14314SOL    HW245897   8.034   2.026   6.221  0.4823  0.4008  1.6302
14315SOL     OW45898   7.669   1.599   5.952 -0.1496  0.1745 -0.3298
14315SOL    HW145899   7.709   1.618   5.867  1.4852  0.7615  0.5263
14315SOL    HW245900   7.606   1.669   5.965  1.1433  1.3602 -0.1397
14316SOL     OW45901   3.109   5.332   7.531 -0.2367  0.3891  0.1626
14316SOL    HW145902   3.084   5.420   7.502 -0.4395  0.2408 -0.1200
14316SOL    HW245903   3.033   5.278   7.510 -0.1840  0.1796  0.5064
14317SOL     OW45904   3.454   1.588   5.538 -0.7069  0.2828 -0.1476
14317SOL    HW145905   3.399   1.665   5.550 -1.2293  0.0605 -1.0858
14317SOL    HW245906   3.407   1.534   5.475  0.2380 -0.2452 -0.4174
14318SOL     OW45907   2.202   1.791   3.198  0.9117  0.2625 -0.1696
14318SOL    HW145908   2.265   1.774   3.128  0.0024 -0.2567 -0.8743
14318SOL    HW245909   2.126   1.738   3.175  1.5750 -2.1727  2.6511
14319SOL     OW45910   2.544   1.092   0.414  0.0379  0.1558  0.1715
14319SOL    HW145911   2.474   1.122   0.471  0.2083 -0.6285  0.8094
14319SOL    HW245912   2.608   1.164   0.413 -0.2688  0.4324  0.4503
14320SOL     OW45913   7.325   3.571   7.838 -0.5275 -0.4436 -0.2091
14320SOL    HW145914   7.391   3.537   7.778  1.3843  1.2573  0.8093
14320SOL    HW245915   7.343   3.526   7.921  1.6016  2.2836  0.9691
14321SOL     OW45916   6.463   5.779   3.225  0.1697 -0.7133 -0.3083
14321SOL    HW145917   6.544   5.796   3.274  0.2388 -1.5867 -0.1115
14321SOL    HW245918   6.492   5.747   3.140  0.0310 -0.2067 -0.5537
14322SOL     OW45919   4.021   3.647   5.690 -0.5489  0.1447 -0.6113
14322SOL    HW145920   3.959   3.575   5.697 -0.0556 -0.3037 -0.7361
14322SOL    HW245921   4.096   3.610   5.643 -0.0675  0.5865 -0.2144
14323SOL     OW45922   3.605   2.080   0.544  0.1775 -0.0304 -0.1464
14323SOL    HW145923   3.523   2.050   0.507  1.0088 -0.3006 -1.8805
14323SOL    HW245924   3.580   2.136   0.618 -1.5134 -0.6098 -0.2548
14324SOL     OW45925   0.698   6.597   5.857  0.1682  0.2242 -0.2960
14324SOL    HW145926   0.624   6.596   5.796  0.3331  0.8372 -0.5133
14324SOL    HW245927   0.699   6.509   5.895 -2.0799  0.8047  1.3793
14325SOL     OW45928   4.878   4.379   2.612  0.2375  0.4279 -0.3394
14325SOL    HW145929   4.917   4.328   2.542  0.8646  0.3295  0.0792
14325SOL    HW245930   4.952   4.418   2.658  0.0281 -1.6359  1.9270
14326SOL     OW45931   3.997   0.601   4.942 -0.5201 -0.0915 -0.1493
14326SOL    HW145932   3.940   0.672   4.971 -0.2913 -0.0063  0.0995
14326SOL    HW245933   4.063   0.644   4.888 -0.0018 -0.0175  0.5287
14327SOL     OW45934   7.261   1.310   3.137 -0.8829 -0.7747 -0.3807
14327SOL    HW145935   7.291   1.236   3.083  0.1077 -0.2464 -0.5850
14327SOL    HW245936   7.189   1.348   3.088  0.1116 -0.2046 -1.4363
14328SOL     OW45937   0.081   1.092   1.162  0.6926  0.2343 -0.7011
14328SOL    HW145938   0.160   1.047   1.132  1.0137 -0.4883  1.1364
14328SOL    HW245939   0.037   1.028   1.218  0.6135  1.8187  1.1164
14329SOL     OW45940   5.728   0.950   0.503 -0.4014 -0.1695 -0.2007
14329SOL    HW145941   5.757   0.988   0.420  4.0318  0.8075  1.5128
14329SOL    HW245942   5.682   1.022   0.548 -1.0166 -0.0751 -0.9712
14330SOL     OW45943   5.500   4.655   3.797 -0.1470  0.0617 -0.2626
14330SOL    HW145944   5.570   4.697   3.747  0.2553 -0.3615 -0.0609
14330SOL    HW245945   5.538   4.572   3.827  1.3227  2.1258  4.5925
14331SOL     OW45946   4.083   3.661   3.338  0.9002 -0.1802 -0.0841
14331SOL    HW145947   4.101   3.667   3.244  2.4935  1.8446  0.2649
14331SOL    HW245948   3.996   3.699   3.349  0.8146 -0.1896 -0.7103
14332SOL     OW45949   7.859   0.510   5.288  0.3506  0.0696  0.5082
14332SOL    HW145950   7.923   0.550   5.229  1.5623 -1.1547  0.9621
14332SOL    HW245951   7.814   0.446   5.234  1.0620 -0.6419  0.7424
14333SOL     OW45952   3.186   5.912   7.161 -0.2601  0.0787  0.2050
14333SOL    HW145953   3.180   5.817   7.150 -0.4411 -0.2488  2.5798
14333SOL    HW245954   3.120   5.947   7.101 -0.2281 -1.2735 -0.6736
14334SOL     OW45955   2.082   5.789   5.068  0.6845  0.3165 -0.4311
14334SOL    HW145956   1.993   5.764   5.090  0.9683  0.0136  0.4257
14334SOL    HW245957   2.093   5.763   4.977 -0.6505  1.9302 -1.1132
14335SOL     OW45958   4.021   0.910   4.865  0.3753  0.2131 -0.1471
14335SOL    HW145959   3.935   0.942   4.840 -0.3541 -0.6133  1.1976
14335SOL    HW245960   4.060   0.880   4.783 -1.7097 -1.9286 -0.4470
14336SOL     OW45961   4.229   3.207   5.774 -0.0684 -0.4824  0.0115
14336SOL    HW145962   4.320   3.185   5.752 -0.6733 -2.2133 -0.9551
14336SOL    HW245963   4.228   3.303   5.777  1.6842 -0.4073 -0.3737
14337SOL     OW45964   5.155   2.696   2.939 -0.0020 -0.2047 -0.4249
14337SOL    HW145965   5.083   2.728   2.993  0.3310 -0.7869  0.3868
14337SOL    HW245966   5.196   2.628   2.992  0.8866 -0.1765 -1.0545
14338SOL     OW45967   5.729   7.788   2.132  0.0131 -0.2192 -0.5852
14338SOL    HW145968   5.773   7.703   2.133 -0.1553 -0.3543 -2.1478
14338SOL    HW245969   5.639   7.768   2.106 -0.4832  0.2705  0.6859
14339SOL     OW45970   3.542   2.555   6.175 -0.3656 -0.3269 -0.1535
14339SOL    HW145971   3.572   2.465   6.162  1.4740  0.1511  0.4366
14339SOL    HW245972   3.617   2.599   6.215 -1.4735  1.3058  0.2027
14340SOL     OW45973   2.459   6.205   5.608 -0.0757 -0.0393  0.7195
14340SOL    HW145974   2.501   6.234   5.527  0.4783 -1.2037  0.5770
14340SOL    HW245975   2.526   6.153   5.653 -0.9897 -0.9657  1.0395
14341SOL     OW45976   4.587   6.014   6.652 -0.0854 -0.3945  0.2435
14341SOL    HW145977   4.519   5.969   6.602  0.2247  0.5833 -1.1363
14341SOL    HW245978   4.542   6.047   6.730 -1.0732 -0.2748 -0.3551
14342SOL     OW45979   0.985   0.672   0.623  0.0131  0.3756 -0.0318
14342SOL    HW145980   0.965   0.620   0.545 -1.3504  0.4424  0.2408
14342SOL    HW245981   0.954   0.618   0.696  0.0074  0.8982  0.3555
14343SOL     OW45982   7.215   4.535   3.700  0.7122  0.3369  0.0785
14343SOL    HW145983   7.234   4.442   3.687 -3.7211 -0.5190 -2.4675
14343SOL    HW245984   7.148   4.537   3.768  0.1141  1.5603 -0.5124
14344SOL     OW45985   1.433   2.760   1.940  0.1115 -0.4571  0.3226
14344SOL    HW145986   1.473   2.680   1.974 -0.2707  0.2293  2.5514
14344SOL    HW245987   1.506   2.812   1.906  0.5808 -1.0121  0.4754
14345SOL     OW45988   1.097   3.483   2.168 -0.6314 -0.5481  0.0180
14345SOL    HW145989   1.053   3.474   2.083  1.3934  0.4253 -1.2416
14345SOL    HW245990   1.050   3.554   2.212 -0.3493  0.5145 -1.3094
14346SOL     OW45991   7.112   6.223   8.102  0.6018  0.1553 -0.4671
14346SOL    HW145992   7.149   6.310   8.091  1.1803 -0.0419 -0.1050
14346SOL    HW245993   7.129   6.201   8.193  0.0689 -0.1606 -0.4386
14347SOL     OW45994   4.032   4.950   4.702  0.4208  0.2183 -0.1039
14347SOL    HW145995   3.984   4.874   4.669  2.2978 -0.2698 -1.8972
14347SOL    HW245996   4.046   4.931   4.795  0.2141 -1.2705 -0.3554
14348SOL     OW45997   0.362   2.738   1.848  0.4319 -0.2851 -0.0094
14348SOL    HW145998   0.294   2.771   1.788 -0.3290 -0.7407  0.5853
14348SOL    HW245999   0.441   2.786   1.823 -0.1077  0.2702 -0.7047
14349SOL     OW46000   2.153   1.601   2.919  0.1701  1.1967 -0.3174
14349SOL    HW146001   2.137   1.522   2.868 -1.7788  1.2988  0.0565
14349SOL    HW246002   2.238   1.586   2.961  1.9719  1.1838 -3.6509
14350SOL     OW46003   7.408   0.239   7.721  0.1220  0.2049 -0.0937
14350SOL    HW146004   7.340   0.294   7.680 -0.9199 -1.3648 -0.5519
14350SOL    HW246005   7.377   0.227   7.811  2.1498  3.2187  1.1888
14351SOL     OW46006   3.860   3.240   2.319 -0.0641  0.2452  0.0193
14351SOL    HW146007   3.769   3.211   2.326  0.4985 -1.2644  1.7388
14351SOL    HW246008   3.907   3.163   2.287  1.0479  0.0081  2.0777
14352SOL     OW46009   2.997   2.195   2.193  0.0222 -0.3872  0.4258
14352SOL    HW146010   3.047   2.251   2.252  1.8594 -1.5906  0.0915
14352SOL    HW246011   2.935   2.149   2.249  1.3901 -1.1360  1.3855
14353SOL     OW46012   3.004   3.354   8.036  0.1044  0.5200  0.0941
14353SOL    HW146013   3.072   3.390   7.978  1.1505  1.3101  1.7152
14353SOL    HW246014   2.934   3.326   7.977  1.4955  0.4259 -1.5912
14354SOL     OW46015   1.956   7.617   0.838 -0.4391  0.3098  0.0036
14354SOL    HW146016   2.006   7.694   0.814 -0.5881  0.7313  0.9776
14354SOL    HW246017   2.001   7.544   0.794 -0.5266  0.9812 -1.2307
14355SOL     OW46018   6.650   3.961   6.953  0.1036  0.4237  0.0569
14355SOL    HW146019   6.647   3.865   6.960 -4.4633  0.3584  0.2306
14355SOL    HW246020   6.639   3.991   7.043  2.0639  1.1966  0.0727
14356SOL     OW46021   4.407   0.221   3.811  0.0621 -0.1254 -0.4313
14356SOL    HW146022   4.464   0.145   3.800 -1.5284 -1.6053  0.9701
14356SOL    HW246023   4.331   0.202   3.757 -0.7715 -0.0192  0.6619
14357SOL     OW46024   7.436   3.460   6.213  0.5944  0.7753 -0.1079
14357SOL    HW146025   7.359   3.516   6.214 -1.3395 -1.7217  1.3560
14357SOL    HW246026   7.442   3.425   6.302  1.1526 -1.9427 -1.1032
14358SOL     OW46027   4.285   6.526   1.009  0.1137 -0.0695 -0.2022
14358SOL    HW146028   4.255   6.616   1.019  1.5730  0.3486  0.7064
14358SOL    HW246029   4.345   6.529   0.934 -0.8141 -0.5645 -0.9847
14359SOL     OW46030   5.999   7.771   2.657 -0.0956  0.2638  0.0086
14359SOL    HW146031   6.048   7.691   2.678  0.9510  0.8699 -0.0504
14359SOL    HW246032   5.976   7.761   2.565  1.5399  0.7702 -0.4911
14360SOL     OW46033   6.911   4.259   6.643  0.0117 -0.3161 -0.6160
14360SOL    HW146034   6.968   4.281   6.717  1.3357 -1.6609 -1.1724
14360SOL    HW246035   6.901   4.340   6.594  0.7391  0.1386 -0.0226
14361SOL     OW46036   2.860   7.338   6.314 -0.4702 -0.1883  0.1181
14361SOL    HW146037   2.862   7.249   6.349  0.5515 -0.2849 -0.1560
14361SOL    HW246038   2.885   7.328   6.222 -0.0734  0.4117  0.1578
14362SOL     OW46039   0.515   7.910   3.985  0.1416 -0.4311 -0.0344
14362SOL    HW146040   0.580   7.876   3.924  0.8878 -2.1091  1.6113
14362SOL    HW246041   0.482   7.833   4.032  0.0263  0.8090  2.0714
14363SOL     OW46042   6.662   1.587   5.489  0.0345 -0.9405 -0.1605
14363SOL    HW146043   6.704   1.539   5.418 -1.9523 -0.6831 -1.6113
14363SOL    HW246044   6.568   1.575   5.474 -0.5616  2.5764 -0.0947
14364SOL     OW46045   4.242   4.167   4.380 -0.1173 -0.2787  0.0388
14364SOL    HW146046   4.177   4.188   4.313  1.1500 -1.3522 -1.6322
14364SOL    HW246047   4.234   4.072   4.392  0.1544 -0.2045  0.8834
14365SOL     OW46048   2.091   7.863   2.436 -0.6863  0.0195 -0.2065
14365SOL    HW146049   2.062   7.927   2.502  1.2042  1.8896 -1.0936
14365SOL    HW246050   2.018   7.859   2.374 -1.4040  0.2038  0.5909
14366SOL     OW46051   6.551   1.151   5.185  0.0528 -0.0678  0.1744
14366SOL    HW146052   6.593   1.237   5.174  1.6949 -0.9340 -0.6075
14366SOL    HW246053   6.563   1.108   5.100 -2.6956 -0.2832 -0.1854
14367SOL     OW46054   2.329   0.011   1.262 -0.2845  0.0580  0.2579
14367SOL    HW146055   2.394  -0.060   1.261 -2.7955 -2.3912  0.4510
14367SOL    HW246056   2.298   0.014   1.352 -0.2223  1.4539  0.2529
14368SOL     OW46057   3.774   6.515   8.032  0.0142  0.1857 -0.5894
14368SOL    HW146058   3.817   6.600   8.019 -0.1212  0.0755 -1.8541
14368SOL    HW246059   3.839   6.451   8.003 -0.8813  0.0071 -2.3608
14369SOL     OW46060   5.505   7.509   7.138 -0.2065  0.5309  0.5317
14369SOL    HW146061   5.571   7.490   7.072 -1.1467 -1.1796  0.0269
14369SOL    HW246062   5.524   7.599   7.165  2.7834 -0.0917  0.9559
14370SOL     OW46063   0.727   7.227   6.295  0.3583 -0.3862  0.4023
14370SOL    HW146064   0.766   7.149   6.335  3.3811  1.1183  0.6826
14370SOL    HW246065   0.801   7.277   6.262 -1.6048  1.4774 -1.5341
14371SOL     OW46066   2.039   0.820   4.290 -0.6677 -0.5524 -0.2230
14371SOL    HW146067   2.023   0.869   4.209  1.2058  0.6169  0.0481
14371SOL    HW246068   1.953   0.810   4.329 -1.4824 -0.2135 -1.8384
14372SOL     OW46069   1.223   8.031   3.122  0.4677 -0.4960  0.3512
14372SOL    HW146070   1.298   7.991   3.079  0.5894 -0.0073  0.0950
14372SOL    HW246071   1.166   8.059   3.050 -0.5135 -1.8542  0.5429
14373SOL     OW46072   7.914   5.688   7.528  0.8197  0.3407 -0.2539
14373SOL    HW146073   7.862   5.625   7.479 -1.9231 -0.6794  3.5138
14373SOL    HW246074   7.861   5.768   7.529  1.1009  0.5281  0.5255
14374SOL     OW46075   2.669   2.872   2.669  0.1951  0.7231  0.3172
14374SOL    HW146076   2.688   2.808   2.600 -2.0892  0.3113 -0.0182
14374SOL    HW246077   2.605   2.931   2.630 -1.5622  0.1768  2.1928
14375SOL     OW46078   3.624   4.625   1.986  0.3075  0.1210 -0.1212
14375SOL    HW146079   3.545   4.677   1.973  0.4208  0.1412 -0.8061
14375SOL    HW246080   3.594   4.547   2.033 -0.0727  0.2510 -0.1447
14376SOL     OW46081   7.714   3.800   6.372  0.3175 -0.4087 -0.1336
14376SOL    HW146082   7.671   3.836   6.450  0.2872  0.6416 -0.6257
14376SOL    HW246083   7.642   3.777   6.313  0.3210 -1.6184  0.3070
14377SOL     OW46084   3.395   0.537   6.633  0.1438  0.7641  0.4317
14377SOL    HW146085   3.411   0.496   6.548 -0.2834  0.1475  0.6418
14377SOL    HW246086   3.444   0.619   6.630  1.0819  0.2035  0.0287
14378SOL     OW46087   4.483   6.597   7.111 -0.3959  0.0916  0.0267
14378SOL    HW146088   4.484   6.623   7.019  1.2770 -0.4233 -0.1410
14378SOL    HW246089   4.391   6.586   7.132 -0.8608  1.2122 -1.2976
14379SOL     OW46090   1.560   1.367   1.435  0.3818 -0.2811 -0.7732
14379SOL    HW146091   1.585   1.287   1.481  1.8004  0.9843  0.8204
14379SOL    HW246092   1.602   1.437   1.485 -1.1949  1.5120 -1.8208
14380SOL     OW46093   7.167   1.846   3.869 -0.1044  0.2451  0.4404
14380SOL    HW146094   7.160   1.768   3.924 -0.6687 -0.7679 -1.0055
14380SOL    HW246095   7.255   1.879   3.885 -0.6883  0.8183  2.9764
14381SOL     OW46096   4.485   6.133   5.782 -0.0583  0.5002 -0.0797
14381SOL    HW146097   4.477   6.206   5.720  0.3887  0.8112  0.2209
14381SOL    HW246098   4.566   6.090   5.757 -0.2587  0.1773 -0.1763
14382SOL     OW46099   5.951   5.695   6.971  0.0461 -0.1575  0.3505
14382SOL    HW146100   5.962   5.663   7.060  0.3453  2.4252  1.3300
14382SOL    HW246101   5.940   5.790   6.980 -1.2281  0.0585 -2.2703
14383SOL     OW46102   6.208   3.203   0.232 -0.0742 -0.1638  0.1461
14383SOL    HW146103   6.274   3.188   0.164  2.8071 -0.0459  2.7316
14383SOL    HW246104   6.159   3.279   0.200  0.4539 -0.7379 -2.2612
14384SOL     OW46105   4.165   5.896   0.893  0.7366  0.1980 -0.7148
14384SOL    HW146106   4.224   5.894   0.968  0.5432 -0.0225 -0.5681
14384SOL    HW246107   4.128   5.984   0.894  1.0417  0.3301 -0.7933
14385SOL     OW46108   2.118   1.453   5.079 -0.0339  0.5090  0.3941
14385SOL    HW146109   2.172   1.448   5.157 -2.0428  0.4117  1.8716
14385SOL    HW246110   2.137   1.372   5.031  0.3487 -0.0187  1.4081
14386SOL     OW46111   1.996   2.449   0.626  0.1924  0.0593 -0.2815
14386SOL    HW146112   2.072   2.403   0.661  0.8343  0.4084 -1.1711
14386SOL    HW246113   1.957   2.386   0.565 -0.7621 -0.4466  0.8137
14387SOL     OW46114   1.781   2.436   7.052  0.4355 -0.1804 -0.4433
14387SOL    HW146115   1.736   2.365   7.097  0.9513  0.7981  1.7351
14387SOL    HW246116   1.800   2.401   6.965 -2.5799 -1.3713 -0.7434
14388SOL     OW46117   0.527   6.517   7.440  0.2151 -0.1994 -0.0199
14388SOL    HW146118   0.591   6.458   7.479  1.2773  1.9856  1.6615
14388SOL    HW246119   0.554   6.524   7.348  0.4287 -1.7858 -0.1105
14389SOL     OW46120   2.674   2.060   3.900 -0.2274 -0.0149 -0.1703
14389SOL    HW146121   2.768   2.079   3.899 -0.6312  2.5383  1.3450
14389SOL    HW246122   2.643   2.088   3.814 -0.0616  2.2361  0.4548
14390SOL     OW46123   3.855   0.096   3.227 -0.1709  0.0163  0.2471
14390SOL    HW146124   3.781   0.100   3.288  0.2501  0.7639  0.7333
14390SOL    HW246125   3.912   0.167   3.255  0.0467  0.3700 -1.0165
14391SOL     OW46126   1.757   5.211   6.879 -0.1445  0.1028  0.0650
14391SOL    HW146127   1.816   5.237   6.808 -0.5657  0.9253  0.0117
14391SOL    HW246128   1.706   5.139   6.841 -1.9371  1.9810 -1.2858
14392SOL     OW46129   2.467   7.020   0.966  0.1480  0.4288 -0.1273
14392SOL    HW146130   2.491   6.997   0.877  2.4307  1.1814  0.2248
14392SOL    HW246131   2.470   7.116   0.967  0.9975  0.4138  0.9298
14393SOL     OW46132   6.239   1.268   7.472  0.5334 -0.1390  0.5252
14393SOL    HW146133   6.277   1.185   7.442  0.5798  0.7884 -2.3155
14393SOL    HW246134   6.145   1.250   7.479  0.6881 -0.7370  1.0711
14394SOL     OW46135   5.192   1.862   0.025  0.0262  0.5802 -0.2406
14394SOL    HW146136   5.161   1.771   0.021  1.6343 -0.3166  3.2478
14394SOL    HW246137   5.287   1.854   0.029  0.1515  2.1267  2.5451
14395SOL     OW46138   6.419   6.381   4.318 -0.1795 -0.2885  0.1145
14395SOL    HW146139   6.369   6.331   4.383  0.7287  0.2176  1.2567
14395SOL    HW246140   6.354   6.435   4.274 -1.1483 -2.2448 -0.9719
14396SOL     OW46141   0.274   3.180   4.189 -0.1981  0.2765 -0.2803
14396SOL    HW146142   0.354   3.196   4.139  0.6380 -2.4870 -0.0351
14396SOL    HW246143   0.206   3.229   4.143  0.7333 -1.1883 -3.5089
14397SOL     OW46144   6.570   6.209   7.814 -0.3040  0.3957 -0.3046
14397SOL    HW146145   6.509   6.136   7.822 -0.6694  0.8981  2.1082
14397SOL    HW246146   6.534   6.263   7.743 -1.3576 -0.4995 -0.4724
14398SOL     OW46147   5.124   0.274   0.036  0.4781  0.1945 -0.2246
14398SOL    HW146148   5.050   0.329   0.011 -1.6719 -1.3006  2.2835
14398SOL    HW246149   5.136   0.214  -0.037  1.3036  2.3208 -1.9565
14399SOL     OW46150   3.988   3.636   4.623 -0.1895 -0.3898  1.0658
14399SOL    HW146151   4.037   3.642   4.541  1.0134 -1.2014  1.6910
14399SOL    HW246152   3.913   3.695   4.611  0.5355  0.3146 -0.2003
14400SOL     OW46153   0.780   1.719   4.837 -0.3094 -0.0766 -0.6271
14400SOL    HW146154   0.754   1.768   4.759 -1.0338  1.3398  0.4400
14400SOL    HW246155   0.854   1.768   4.872  0.6085 -1.2292 -0.9019
14401SOL     OW46156   6.012   6.865   5.769  0.3099 -0.0422  0.1526
14401SOL    HW146157   6.082   6.812   5.730  0.6698  0.9888 -0.6617
14401SOL    HW246158   6.047   6.954   5.767 -0.7249  0.3748  0.4678
14402SOL     OW46159   7.888   4.941   3.832  0.5048 -0.5415  0.3149
14402SOL    HW146160   7.822   4.978   3.891  0.2440  0.2170 -0.4268
14402SOL    HW246161   7.964   4.926   3.887  0.2935  0.2334  0.8379
14403SOL     OW46162   0.021   1.892   6.883  0.1802 -0.2232  0.2357
14403SOL    HW146163  -0.075   1.894   6.886  0.0791 -0.3188 -1.8629
14403SOL    HW246164   0.048   1.963   6.941 -1.1665  0.2612  0.3082
14404SOL     OW46165   2.433   5.487   2.170 -0.1987 -0.1350 -0.5610
14404SOL    HW146166   2.458   5.577   2.192  1.0292 -0.2866 -1.2014
14404SOL    HW246167   2.360   5.467   2.227 -1.7688  1.9246 -1.7189
14405SOL     OW46168   6.130   2.763   2.396  0.6741  0.5960  0.0780
14405SOL    HW146169   6.044   2.725   2.380  0.6041  0.3681  0.9089
14405SOL    HW246170   6.134   2.839   2.339  0.3599 -0.0109 -0.7622
14406SOL     OW46171   1.295   6.892   6.287 -0.3869  0.6607  0.4020
14406SOL    HW146172   1.250   6.966   6.246 -0.5443 -0.6644 -1.9944
14406SOL    HW246173   1.378   6.885   6.240 -0.3700 -0.6904  0.6044
14407SOL     OW46174   8.121   1.067   0.430  0.0825 -0.1213  0.3194
14407SOL    HW146175   8.043   1.062   0.485  0.0974 -1.5947  0.2362
14407SOL    HW246176   8.097   1.128   0.360 -0.6348  0.2199  0.8528
14408SOL     OW46177   0.371   3.931   1.498  0.0418  0.2671  0.4530
14408SOL    HW146178   0.393   4.020   1.468  2.3676 -0.0626  0.9975
14408SOL    HW246179   0.402   3.875   1.427 -0.6236 -0.1699  0.5061
14409SOL     OW46180   6.484   2.070   2.569  0.3338 -0.4253 -0.4976
14409SOL    HW146181   6.564   2.018   2.570 -0.2643 -1.3584 -0.0662
14409SOL    HW246182   6.512   2.157   2.540  2.4592  0.8299  4.2708
14410SOL     OW46183   3.220   7.010   4.692  0.5411  0.3221 -0.0165
14410SOL    HW146184   3.133   7.049   4.691  1.5636  3.3532 -5.0112
14410SOL    HW246185   3.208   6.926   4.648 -0.1061 -0.4711  1.5800
14411SOL     OW46186   1.920   4.841   0.249 -0.8576  0.3422  0.0286
14411SOL    HW146187   1.911   4.746   0.237 -0.5603  0.4522 -1.2107
14411SOL    HW246188   1.830   4.873   0.255 -1.0553  0.2370 -1.8967
14412SOL     OW46189   7.825   4.426   6.648 -0.0873 -0.0914 -0.0927
14412SOL    HW146190   7.818   4.333   6.672 -0.1705  0.2258  1.1867
14412SOL    HW246191   7.753   4.440   6.586  0.6778 -1.1533 -1.2677
14413SOL     OW46192   6.834   1.146   4.280 -0.7468 -0.7803  0.2019
14413SOL    HW146193   6.870   1.153   4.192 -0.8041  1.0804  0.2856
14413SOL    HW246194   6.860   1.058   4.310  2.5292 -0.1089 -0.2630
14414SOL     OW46195   1.770   7.898   0.653  0.5638  0.1762 -0.4429
14414SOL    HW146196   1.773   7.803   0.644  0.9526  0.2444 -1.1459
14414SOL    HW246197   1.799   7.931   0.567 -1.6637  0.9353 -0.9662
14415SOL     OW46198   0.502   7.380   1.595 -0.1132  0.5113  0.1470
14415SOL    HW146199   0.444   7.409   1.665  0.7851  0.8529  0.7668
14415SOL    HW246200   0.453   7.312   1.549 -0.6124  0.0869  1.2773
14416SOL     OW46201   6.504   3.553   6.322  0.0019 -0.0312  0.4227
14416SOL    HW146202   6.510   3.633   6.374 -0.8239  0.4595 -0.2092
14416SOL    HW246203   6.459   3.491   6.380  0.1652  0.1299  0.7256
14417SOL     OW46204   0.064   3.132   0.341 -0.2359 -0.2730  0.0203
14417SOL    HW146205   0.046   3.050   0.387 -0.4867 -0.7942 -0.9694
14417SOL    HW246206   0.113   3.185   0.404 -2.6237  0.0249  1.7809
14418SOL     OW46207   7.090   0.801   4.158 -0.4235  0.0378  0.2030
14418SOL    HW146208   7.033   0.820   4.084 -1.1131 -1.9357  0.1712
14418SOL    HW246209   7.118   0.711   4.145 -0.2822 -0.2560  2.1431
14419SOL     OW46210   3.975   2.981   4.637 -0.5208  0.1571  0.1348
14419SOL    HW146211   3.924   2.998   4.717 -1.7134 -0.9044 -0.3618
14419SOL    HW246212   3.972   3.064   4.590  0.0185  0.7334  1.0840
14420SOL     OW46213   0.970   3.247   3.434 -0.2571 -0.0388  0.6281
14420SOL    HW146214   1.002   3.240   3.524  1.2936 -2.8979 -0.0214
14420SOL    HW246215   1.048   3.271   3.383 -0.7286 -0.1959 -0.1809
14421SOL     OW46216   7.007   6.788   4.960 -0.5099  0.2979  0.4200
14421SOL    HW146217   7.038   6.825   5.043 -0.2728  1.1333 -0.0267
14421SOL    HW246218   7.072   6.817   4.896 -1.4970  0.9624 -0.3136
14422SOL     OW46219   2.680   0.163   2.965  0.0763  0.0582  0.0502
14422SOL    HW146220   2.697   0.075   2.931 -2.2289 -0.4016 -0.0552
14422SOL    HW246221   2.758   0.184   3.015  0.8151 -1.9291 -0.1531
14423SOL     OW46222   7.365   5.376   3.992 -0.1492  0.2727  0.1939
14423SOL    HW146223   7.447   5.337   4.022  0.7227  1.5060 -0.5183
14423SOL    HW246224   7.318   5.399   4.072  0.1868 -0.4491  0.6050
14424SOL     OW46225   3.402   7.691   7.162  0.0565  0.0899  0.0551
14424SOL    HW146226   3.329   7.660   7.216  0.3714 -2.1889 -0.6863
14424SOL    HW246227   3.478   7.689   7.220 -0.2916  1.6744  0.6049
14425SOL     OW46228   5.929   4.250   0.529 -0.3556  0.4829 -0.2333
14425SOL    HW146229   5.841   4.236   0.494 -0.4346 -0.9681  0.4874
14425SOL    HW246230   5.976   4.294   0.458 -2.0504  2.7401 -0.0896
14426SOL     OW46231   7.677   7.462   0.669 -0.7730 -0.3465 -0.4593
14426SOL    HW146232   7.701   7.443   0.759  2.6989  1.8423 -0.7272
14426SOL    HW246233   7.604   7.524   0.675  0.6391  1.2540  0.9764
14427SOL     OW46234   3.347   4.121   2.151 -0.0258 -0.2306  0.0812
14427SOL    HW146235   3.308   4.045   2.106 -1.2994  0.1379  0.5152
14427SOL    HW246236   3.276   4.185   2.156  0.7984  0.6751  0.4554
14428SOL     OW46237   6.465   0.982   0.127  0.1805 -0.1967  0.0624
14428SOL    HW146238   6.473   0.925   0.051  2.2956  0.6762 -0.4568
14428SOL    HW246239   6.486   0.926   0.201  0.3946 -0.5384 -0.2482
14429SOL     OW46240   3.379   5.501   0.456  0.2212  0.0782  1.2494
14429SOL    HW146241   3.303   5.540   0.412  1.3027  1.2277  0.3197
14429SOL    HW246242   3.389   5.554   0.535 -0.9809 -1.2041  2.2982
14430SOL     OW46243   1.247   1.357   6.244  0.0253  0.0906  0.0162
14430SOL    HW146244   1.310   1.401   6.302 -0.5623  1.7534 -0.5525
14430SOL    HW246245   1.230   1.421   6.175 -1.2948 -0.8473 -0.5601
14431SOL     OW46246   4.936   2.143   0.628  0.1840 -0.1237  0.4254
14431SOL    HW146247   4.877   2.078   0.589 -0.1690  0.7000 -0.4449
14431SOL    HW246248   4.885   2.180   0.700  0.5833 -1.1639  1.2717
14432SOL     OW46249   2.066   6.144   1.240 -0.2390  0.2733 -0.8947
14432SOL    HW146250   2.002   6.110   1.302 -0.0528 -1.8015 -1.7856
14432SOL    HW246251   2.015   6.200   1.181 -0.7885  0.5062 -0.2170
14433SOL     OW46252   2.994   0.483   3.569  0.0109  0.1194 -0.1755
14433SOL    HW146253   2.916   0.485   3.513 -1.9913 -2.7183  2.1925
14433SOL    HW246254   2.967   0.530   3.648  1.3524  0.5786  0.0265
14434SOL     OW46255   4.124   1.672   3.590  1.3389  0.1221 -0.2748
14434SOL    HW146256   4.042   1.665   3.640  0.7271  0.8765 -1.1489
14434SOL    HW246257   4.097   1.704   3.504  1.9615 -3.8403 -2.1757
14435SOL     OW46258   1.763   5.538   0.818  0.3354 -0.1256  0.1432
14435SOL    HW146259   1.694   5.581   0.767  0.1648 -1.2579 -0.6139
14435SOL    HW246260   1.844   5.565   0.775  0.3846  1.0720  0.9322
14436SOL     OW46261   1.616   2.461   8.121  0.1498  0.1273  0.2009
14436SOL    HW146262   1.625   2.556   8.129 -0.7490  0.1644  1.0244
14436SOL    HW246263   1.668   2.438   8.044 -1.1436  1.5382 -1.1625
14437SOL     OW46264   6.403   6.002   0.053 -0.1810  0.2387 -0.5551
14437SOL    HW146265   6.490   6.041   0.059  0.1698 -0.5548 -0.4387
14437SOL    HW246266   6.379   5.981   0.143  0.0183 -0.6446 -0.7026
14438SOL     OW46267   0.073   6.366   8.051  0.5591 -0.2644  0.3172
14438SOL    HW146268   0.126   6.389   7.974 -0.0591 -0.3689 -0.1541
14438SOL    HW246269   0.048   6.275   8.036 -0.5259  0.0589  0.0473
14439SOL     OW46270   4.050   5.630   0.827 -0.5017 -0.0839  0.5610
14439SOL    HW146271   3.965   5.663   0.858  0.0487  0.6414  1.3346
14439SOL    HW246272   4.110   5.703   0.840  0.6569 -1.2174  1.8365
14440SOL     OW46273   2.211   2.504   6.582 -0.0136  0.5282  0.3080
14440SOL    HW146274   2.303   2.476   6.576 -0.8890 -2.4316 -1.4775
14440SOL    HW246275   2.173   2.448   6.650 -1.1143 -0.4281 -1.0413
14441SOL     OW46276   7.058   3.639   4.940  0.6986 -0.3524 -0.0651
14441SOL    HW146277   7.063   3.659   5.033  1.7639  0.1868 -0.2272
14441SOL    HW246278   7.125   3.695   4.899  0.0465 -0.3522 -1.1893
14442SOL     OW46279   4.738   2.125   0.007 -0.1352  0.1908  0.5434
14442SOL    HW146280   4.765   2.063   0.075  1.3738  0.0325 -0.1624
14442SOL    HW246281   4.756   2.211   0.043  0.3491  0.1185  0.4763
14443SOL     OW46282   7.008   4.384   7.098  0.6462  0.0309  0.4416
14443SOL    HW146283   7.071   4.456   7.094  0.0612  0.4920 -1.2477
14443SOL    HW246284   6.942   4.414   7.160  0.8374  0.6093  0.3775
14444SOL     OW46285   5.560   3.198   3.974 -0.0944  0.2937 -0.5271
14444SOL    HW146286   5.640   3.156   3.943 -0.4708  0.5212 -1.8772
14444SOL    HW246287   5.510   3.127   4.014 -0.1868 -0.3147 -1.6843
14445SOL     OW46288   6.508   0.828   2.064 -0.2066  0.4428 -0.2414
14445SOL    HW146289   6.456   0.747   2.067 -0.4505  0.6016 -0.0843
14445SOL    HW246290   6.526   0.842   1.971 -0.5375  0.4412 -0.3078
14446SOL     OW46291   3.838   3.658   5.917  0.0598  0.0562  0.2228
14446SOL    HW146292   3.785   3.579   5.909 -1.5848  1.0525  0.9454
14446SOL    HW246293   3.822   3.705   5.835 -1.3147  1.0104  1.0086
14447SOL     OW46294   1.133   4.607   7.602 -0.4835 -0.1012  1.0009
14447SOL    HW146295   1.070   4.549   7.644 -1.1013  0.0275  0.2791
14447SOL    HW246296   1.183   4.550   7.544  0.9500 -0.4377  2.4989
14448SOL     OW46297   6.607   3.214   4.192 -0.3836 -0.4428 -0.1057
14448SOL    HW146298   6.542   3.194   4.125 -0.9784 -0.1237  0.3664
14448SOL    HW246299   6.635   3.129   4.226 -1.0349 -0.5644  0.1351
14449SOL     OW46300   2.240   7.795   5.383 -0.7459 -0.1517 -0.1211
14449SOL    HW146301   2.183   7.871   5.365 -0.5922 -0.3225 -1.4242
14449SOL    HW246302   2.328   7.827   5.366 -0.4477  0.0037  1.5403
14450SOL     OW46303   3.657   7.641   0.989 -0.3082 -0.3107  0.2775
14450SOL    HW146304   3.639   7.643   0.895 -1.5817 -1.3303  0.4591
14450SOL    HW246305   3.576   7.605   1.028 -0.2279  1.1005  1.8646
14451SOL     OW46306   1.535   1.016   0.793 -0.0946 -0.2507  0.2616
14451SOL    HW146307   1.551   0.970   0.710 -1.2566 -0.1037 -0.0645
14451SOL    HW246308   1.571   1.104   0.779 -0.9971  0.0321 -0.4001
14452SOL     OW46309   2.437   1.188   0.186  0.6418 -0.4150  0.4205
14452SOL    HW146310   2.504   1.128   0.219 -0.2912 -2.3522 -1.0018
14452SOL    HW246311   2.471   1.218   0.102  0.7543  0.4639  0.7746
14453SOL     OW46312   3.207   1.656   1.923 -0.0125  0.1748  0.4572
14453SOL    HW146313   3.227   1.620   1.836  2.8906  1.5006  0.4371
14453SOL    HW246314   3.115   1.680   1.918 -0.2016 -0.7008 -1.9134
14454SOL     OW46315   2.925   6.523   2.487  0.0609 -0.5077 -0.4485
14454SOL    HW146316   2.833   6.540   2.468  0.5862  0.5378 -2.2505
14454SOL    HW246317   2.924   6.440   2.535 -1.7267 -1.1888 -1.5459
14455SOL     OW46318   8.061   2.343   2.256 -0.2629  0.0611 -0.1505
14455SOL    HW146319   7.995   2.283   2.221 -1.2613  1.0979 -0.1208
14455SOL    HW246320   8.114   2.367   2.180 -1.6449  1.3306 -0.7710
14456SOL     OW46321   6.755   4.657   6.488 -0.0513 -0.1303  0.1474
14456SOL    HW146322   6.680   4.616   6.531  0.3535 -1.4940 -0.3693
14456SOL    HW246323   6.753   4.748   6.516 -0.3650 -0.7370  2.2484
14457SOL     OW46324   2.359   1.725   6.901 -0.2433 -0.6041 -0.1486
14457SOL    HW146325   2.398   1.741   6.988  0.8502  1.3127 -0.9301
14457SOL    HW246326   2.277   1.680   6.920 -0.1254 -0.0720  1.9015
14458SOL     OW46327   4.425   5.886   5.516  0.6823 -0.3399  0.1322
14458SOL    HW146328   4.363   5.942   5.563  0.9683 -1.1692  1.5534
14458SOL    HW246329   4.415   5.912   5.424 -1.1455  0.1431  0.4164
14459SOL     OW46330   3.086   5.606   2.012  0.0626  0.8559 -0.0485
14459SOL    HW146331   3.139   5.527   2.027  0.8296  1.6282  1.5108
14459SOL    HW246332   3.131   5.651   1.940  0.1453  0.3242 -0.3368
14460SOL     OW46333   4.493   2.294   0.490  0.1238 -0.2336  0.2943
14460SOL    HW146334   4.403   2.324   0.499  0.2815  0.0373  1.0344
14460SOL    HW246335   4.490   2.202   0.516 -0.1639 -0.6006 -0.9469
14461SOL     OW46336   4.640   6.887   4.398  0.1864  0.3114  0.7100
14461SOL    HW146337   4.639   6.968   4.346  0.6440 -0.7886 -1.0826
14461SOL    HW246338   4.586   6.826   4.348 -1.5925 -0.0419  2.8968
14462SOL     OW46339   0.298   5.946   1.159 -0.2746 -0.1504 -0.7800
14462SOL    HW146340   0.312   6.009   1.230 -1.4286 -1.1042  0.3335
14462SOL    HW246341   0.382   5.943   1.113 -0.0461  1.8315 -0.5729
14463SOL     OW46342   0.793   6.514   6.811 -0.4724 -0.0699  0.7361
14463SOL    HW146343   0.698   6.528   6.809 -0.6295 -1.0495 -1.2904
14463SOL    HW246344   0.830   6.602   6.818 -1.5374  0.5598 -0.9446
14464SOL     OW46345   4.466   3.035   1.801 -0.2429 -0.2107  0.2166
14464SOL    HW146346   4.443   3.118   1.758  0.0885  0.2959  0.9880
14464SOL    HW246347   4.520   3.062   1.876 -0.8232 -1.0693  0.9560
14465SOL     OW46348   1.907   5.044   3.199  0.3409  0.4301  0.0130
14465SOL    HW146349   1.923   5.121   3.253 -1.2388  1.2006 -0.5698
14465SOL    HW246350   1.873   4.978   3.260  0.8074  0.4819  0.3406
14466SOL     OW46351   0.334   7.407   1.802 -0.0513 -0.1907  0.1544
14466SOL    HW146352   0.269   7.363   1.856 -0.0116 -0.8073 -0.2991
14466SOL    HW246353   0.374   7.471   1.861 -0.0733 -0.7890  0.8303
14467SOL     OW46354   1.770   3.899   4.734  0.1449  0.1329 -0.5414
14467SOL    HW146355   1.685   3.855   4.733 -0.5200  1.3695 -0.5201
14467SOL    HW246356   1.822   3.851   4.799 -0.2448 -1.1396 -1.1519
14468SOL     OW46357   5.192   0.412   0.295 -0.4041 -0.2327 -0.4289
14468SOL    HW146358   5.286   0.415   0.312 -0.4345 -2.1252  0.3303
14468SOL    HW246359   5.185   0.388   0.203 -0.0729 -2.1768  0.0076
14469SOL     OW46360   1.910   0.815   6.310 -0.0919  0.3326  0.4080
14469SOL    HW146361   1.886   0.741   6.255 -0.1697  0.9437 -0.3973
14469SOL    HW246362   1.828   0.844   6.349 -0.0107 -0.2114  0.9999
14470SOL     OW46363   2.516   2.314   7.873 -0.7907 -0.3955 -0.6970
14470SOL    HW146364   2.558   2.230   7.890  3.6659  0.9935 -3.2922
14470SOL    HW246365   2.441   2.293   7.817  0.9865 -2.6429 -2.4041
14471SOL     OW46366   3.804   0.947   6.927  0.7521 -0.3620  0.6204
14471SOL    HW146367   3.836   1.017   6.871 -1.3865  0.2774  0.1066
14471SOL    HW246368   3.847   0.868   6.893 -0.0686  0.0784 -1.6073
14472SOL     OW46369   0.299   1.112   6.881  0.9414  0.3248  0.1396
14472SOL    HW146370   0.318   1.098   6.789 -0.8642 -0.5122 -0.1457
14472SOL    HW246371   0.296   1.207   6.891  1.6399  0.4288 -0.5328
14473SOL     OW46372   2.157   7.626   5.600 -0.0174 -0.4530  0.4055
14473SOL    HW146373   2.076   7.574   5.600  0.2970 -1.0487 -1.5111
14473SOL    HW246374   2.148   7.683   5.523  0.9813  0.1512  0.7232
14474SOL     OW46375   2.667   4.391   7.699 -0.3880  0.1005  0.5052
14474SOL    HW146376   2.586   4.426   7.736 -1.0099 -0.1637 -0.5768
14474SOL    HW246377   2.721   4.468   7.682 -0.1779  0.2438  1.7175
14475SOL     OW46378   1.625   3.591   3.548  0.0774  0.1563 -0.0888
14475SOL    HW146379   1.698   3.569   3.490 -1.1963  0.7730 -2.0581
14475SOL    HW246380   1.596   3.677   3.518 -0.1223  0.9155  2.0909
14476SOL     OW46381   0.387   6.924   6.163 -0.0045 -0.3023 -0.0267
14476SOL    HW146382   0.397   7.015   6.136 -1.1294 -0.1189  0.1440
14476SOL    HW246383   0.344   6.881   6.090  1.5337 -0.9851 -0.5802
14477SOL     OW46384   4.947   6.014   1.509 -0.1950  0.0151 -0.5583
14477SOL    HW146385   4.899   6.081   1.461  0.5268  0.0998 -1.1841
14477SOL    HW246386   4.881   5.972   1.565 -1.0077  0.0627 -1.4541
14478SOL     OW46387   1.616   6.949   6.490  0.3947  0.2846  0.3576
14478SOL    HW146388   1.618   6.889   6.415 -0.4086 -0.1592  0.6860
14478SOL    HW246389   1.573   7.027   6.456 -0.7169 -0.2209  0.5587
14479SOL     OW46390   4.757   2.919   0.799 -0.0777  0.0461 -0.1959
14479SOL    HW146391   4.699   2.864   0.747 -0.3864  0.1723  0.0112
14479SOL    HW246392   4.757   3.004   0.755  1.0226 -0.3267 -0.9699
14480SOL     OW46393   3.428   3.212   4.544 -0.0943  0.1996  0.2393
14480SOL    HW146394   3.523   3.216   4.539  0.1067 -1.1566  1.9836
14480SOL    HW246395   3.398   3.235   4.456  1.8983 -1.1152 -0.8611
14481SOL     OW46396   5.316   7.127   7.008 -0.0150 -0.5404  0.4415
14481SOL    HW146397   5.305   7.129   6.913  0.2959 -0.2284  0.4078
14481SOL    HW246398   5.286   7.213   7.037  2.6960  0.5621  0.2830
14482SOL     OW46399   6.820   7.153   1.352 -0.5863 -0.2181  0.7001
14482SOL    HW146400   6.888   7.124   1.413  2.1597  1.0223 -1.5576
14482SOL    HW246401   6.804   7.244   1.375  0.2010  0.1491 -0.1410
14483SOL     OW46402   3.640   0.770   7.951 -0.1073  0.2134  0.8390
14483SOL    HW146403   3.725   0.727   7.940  0.5357  1.8312 -1.3023
14483SOL    HW246404   3.592   0.713   8.011  1.9531 -1.5220  0.9815
14484SOL     OW46405   3.743   2.223   3.316 -0.2396  0.2481 -0.1033
14484SOL    HW146406   3.787   2.150   3.360 -2.4865 -0.0745  1.8157
14484SOL    HW246407   3.766   2.300   3.368 -1.3210  0.1692  0.5405
14485SOL     OW46408   0.180   7.757   3.931 -0.2131  0.1702  0.0573
14485SOL    HW146409   0.263   7.728   3.970 -1.3192 -0.5763  2.0227
14485SOL    HW246410   0.203   7.835   3.881  1.5730  0.3931  1.1112
14486SOL     OW46411   6.112   5.690   8.119 -0.1929  0.5481  0.3065
14486SOL    HW146412   6.046   5.648   8.064 -0.0994 -2.5282  2.2740
14486SOL    HW246413   6.125   5.776   8.080 -0.9363 -0.9510 -3.7327
14487SOL     OW46414   5.864   3.772   7.562  0.5852  0.4538 -0.4452
14487SOL    HW146415   5.895   3.844   7.508 -2.0279  1.2342 -1.0758
14487SOL    HW246416   5.838   3.704   7.500 -2.2467  1.2770 -0.3124
14488SOL     OW46417   3.125   7.624   3.592  0.4088  0.2767  0.2029
14488SOL    HW146418   3.090   7.700   3.639  2.0550  1.2019  0.0197
14488SOL    HW246419   3.215   7.616   3.623  0.6918 -0.7554 -0.8055
14489SOL     OW46420   6.913   6.432   5.776  0.3282 -0.0806  0.4032
14489SOL    HW146421   6.847   6.499   5.760  0.6277 -0.4486 -3.3014
14489SOL    HW246422   6.864   6.350   5.785  0.1473 -0.2404 -1.5900
14490SOL     OW46423   4.836   1.209   1.137 -0.4109 -1.0140  0.0978
14490SOL    HW146424   4.799   1.292   1.106 -0.5929 -2.0226 -2.6705
14490SOL    HW246425   4.916   1.234   1.182 -0.0524  0.6726 -1.3586
14491SOL     OW46426   6.517   2.722   3.851 -0.2218  0.0124  0.1683
14491SOL    HW146427   6.547   2.632   3.859  1.6410  0.5372 -0.4833
14491SOL    HW246428   6.462   2.723   3.773  0.0755 -0.4671 -0.0446
14492SOL     OW46429   7.440   1.286   6.352 -0.0520  0.7798  0.2373
14492SOL    HW146430   7.390   1.364   6.326 -1.3274  0.8436  2.5810
14492SOL    HW246431   7.521   1.322   6.388 -0.5874  1.0593  1.2079
14493SOL     OW46432   1.064   6.841   5.270 -0.0242 -0.4165 -0.5914
14493SOL    HW146433   1.100   6.829   5.358  1.2764  0.2443 -1.0209
14493SOL    HW246434   1.134   6.883   5.220 -0.5658 -1.2226 -2.0878
14494SOL     OW46435   7.039   7.004   2.998 -0.1362 -0.7901 -0.3213
14494SOL    HW146436   6.953   7.046   3.001 -0.5783 -1.6561 -0.4960
14494SOL    HW246437   7.099   7.068   3.036 -0.7660  0.0480 -0.7123
14495SOL     OW46438   7.480   3.180   0.472 -0.2441 -0.1549  0.1149
14495SOL    HW146439   7.433   3.264   0.478  0.4624  0.2383  0.2248
14495SOL    HW246440   7.413   3.118   0.442 -0.3080  0.8689 -2.0910
14496SOL     OW46441   6.396   3.428   2.553 -0.4235  0.0095  0.1530
14496SOL    HW146442   6.356   3.390   2.475 -1.8758  3.3277 -0.8802
14496SOL    HW246443   6.356   3.382   2.626  0.0690 -2.3481 -0.9729
14497SOL     OW46444   1.760   6.637   4.609  0.3184  0.6103 -0.1341
14497SOL    HW146445   1.732   6.587   4.685  1.5492  0.3147  0.1444
14497SOL    HW246446   1.679   6.655   4.561 -0.4054  0.3543  0.9649
14498SOL     OW46447   3.062   4.230   5.684 -0.1085 -0.2221  0.3439
14498SOL    HW146448   2.985   4.222   5.627 -0.5830  1.1373  0.7554
14498SOL    HW246449   3.133   4.254   5.624 -0.0472 -1.2278 -0.0028
14499SOL     OW46450   5.214   2.170   5.698 -0.0034 -0.0453  0.2042
14499SOL    HW146451   5.211   2.078   5.670 -0.7247 -0.0547  0.2850
14499SOL    HW246452   5.280   2.172   5.767  1.0778 -0.2181 -0.7877
14500SOL     OW46453   2.215   1.547   8.094  0.0950  0.3649 -0.2433
14500SOL    HW146454   2.226   1.470   8.039  0.1315  1.0575 -1.2339
14500SOL    HW246455   2.158   1.605   8.044 -0.8221  0.5389  0.9629
14501SOL     OW46456   7.384   5.870   3.917 -0.3821 -0.2986 -0.1153
14501SOL    HW146457   7.451   5.807   3.942 -1.4963 -1.0531  1.1407
14501SOL    HW246458   7.414   5.907   3.834  0.5090 -2.1658 -0.6599
14502SOL     OW46459   5.145   1.900   3.381 -0.8631  0.5291  0.3871
14502SOL    HW146460   5.051   1.888   3.391 -1.3493  3.6812  0.5474
14502SOL    HW246461   5.157   1.920   3.288 -0.6832  2.1567  0.7316
14503SOL     OW46462   3.179   5.733   4.116 -0.1388  0.6900 -0.5565
14503SOL    HW146463   3.237   5.715   4.191 -1.3184  1.0138  0.4760
14503SOL    HW246464   3.093   5.704   4.146 -0.4715 -0.1642 -2.2069
14504SOL     OW46465   6.531   4.025   4.579  0.1620  0.3028 -0.7024
14504SOL    HW146466   6.514   4.013   4.672 -1.8088 -3.6626 -1.3642
14504SOL    HW246467   6.585   4.104   4.574 -0.7408  1.4145  3.6195
14505SOL     OW46468   6.143   7.888   6.493 -0.4949  0.3775  0.1498
14505SOL    HW146469   6.218   7.889   6.433  0.2093 -0.0101  1.0053
14505SOL    HW246470   6.069   7.914   6.438  0.2450  0.7029 -0.7316
14506SOL     OW46471   2.064   0.308   7.384  0.1382  0.0349 -0.4001
14506SOL    HW146472   1.984   0.353   7.358  0.6482  0.2005 -1.7667
14506SOL    HW246473   2.096   0.358   7.459 -0.9106  0.0855  0.0395
14507SOL     OW46474   4.310   1.762   4.622  0.4478 -0.1342  0.1472
14507SOL    HW146475   4.355   1.679   4.637  1.0773 -0.2289 -1.9811
14507SOL    HW246476   4.288   1.762   4.529  0.3436  2.0151  0.1111
14508SOL     OW46477   8.055   4.167   3.863 -0.7709  0.4510 -0.0202
14508SOL    HW146478   8.091   4.255   3.856  0.2206  0.1095  0.6208
14508SOL    HW246479   8.113   4.121   3.924 -0.9711 -0.7923 -0.7186
14509SOL     OW46480   1.131   0.358   6.744 -0.0114  0.0056 -0.6622
14509SOL    HW146481   1.217   0.318   6.760 -0.4068 -0.8613 -0.6607
14509SOL    HW246482   1.091   0.364   6.830 -1.2354 -2.5940 -0.9535
14510SOL     OW46483   2.169   7.358   2.245 -0.5203 -0.2644 -0.8132
14510SOL    HW146484   2.100   7.326   2.188 -0.2286  1.2102 -2.0377
14510SOL    HW246485   2.247   7.361   2.190 -0.3048  1.5102 -0.4794
14511SOL     OW46486   5.787   2.955   7.704  0.3037  0.5326 -0.0651
14511SOL    HW146487   5.745   2.953   7.617  0.3323  0.4717 -0.0768
14511SOL    HW246488   5.830   2.871   7.712 -0.5736  0.1239  0.4426
14512SOL     OW46489   4.479   4.244   8.025 -0.2708  0.2299  0.2053
14512SOL    HW146490   4.432   4.163   8.044 -0.2468 -0.0097 -0.7189
14512SOL    HW246491   4.452   4.267   7.935  0.3877  0.7766  0.1424
14513SOL     OW46492   3.931   1.398   4.286 -0.2211 -0.2977  0.8862
14513SOL    HW146493   3.914   1.313   4.328 -0.5090 -0.8161 -0.2504
14513SOL    HW246494   4.027   1.406   4.286 -0.0760 -1.5252 -0.6813
14514SOL     OW46495   6.036   4.788   7.853 -0.8936 -0.2392 -0.0401
14514SOL    HW146496   6.074   4.747   7.931 -1.2985 -1.3967 -0.4374
14514SOL    HW246497   5.941   4.781   7.866 -0.9673 -1.2329 -1.0318
14515SOL     OW46498   2.442   2.368   6.688  0.4911  0.2719  0.1047
14515SOL    HW146499   2.532   2.338   6.673  0.8333  1.9439 -1.4993
14515SOL    HW246500   2.452   2.443   6.746  0.2083  0.8528 -0.5860
14516SOL     OW46501   7.026   6.257   1.649 -0.0921 -0.6178 -0.0438
14516SOL    HW146502   7.119   6.279   1.658  0.0519 -1.1552 -0.2016
14516SOL    HW246503   7.013   6.245   1.555 -0.0554 -1.6795  0.0790
14517SOL     OW46504   0.256   0.294   3.648  0.3835  0.3267  0.6183
14517SOL    HW146505   0.244   0.362   3.582 -1.2864  0.8758  1.4398
14517SOL    HW246506   0.236   0.336   3.731  2.0778 -0.4575  1.4876
14518SOL     OW46507   6.106   4.234   2.463 -0.1704  0.3688  0.0628
14518SOL    HW146508   6.032   4.255   2.521 -0.8731  0.3783 -0.8085
14518SOL    HW246509   6.066   4.187   2.390  0.7157  0.2448 -0.3499
14519SOL     OW46510   6.521   7.732   7.313  0.0445  0.0488 -0.3931
14519SOL    HW146511   6.461   7.800   7.282  0.3913  0.3043 -0.5169
14519SOL    HW246512   6.513   7.734   7.408 -0.3777 -0.1341 -0.4247
14520SOL     OW46513   0.042   4.720   5.261 -0.2326  0.3258 -0.5504
14520SOL    HW146514  -0.028   4.659   5.235 -1.2428  1.1334  0.1984
14520SOL    HW246515   0.116   4.695   5.206 -0.6172 -1.5674 -0.2768
14521SOL     OW46516   1.140   2.096   1.029  0.1568  0.1894  0.2567
14521SOL    HW146517   1.120   2.009   1.063 -0.2837  0.2895  0.2544
14521SOL    HW246518   1.179   2.143   1.104 -0.3583  0.2521  0.4879
14522SOL     OW46519   5.507   7.752   7.288  0.0040 -0.4081  0.5504
14522SOL    HW146520   5.447   7.827   7.289 -0.4186 -0.7245 -0.1608
14522SOL    HW246521   5.579   7.781   7.233  0.6075  0.0371  1.5502
14523SOL     OW46522   5.589   0.930   3.426 -0.5081  0.1687  0.1495
14523SOL    HW146523   5.566   0.929   3.519 -1.6356  0.5752 -0.1162
14523SOL    HW246524   5.608   1.022   3.407  2.5012 -0.2438  0.5999
14524SOL     OW46525   2.143   7.065   2.963  0.0117  0.2599 -0.0454
14524SOL    HW146526   2.130   7.064   3.058  2.3391 -3.3612  0.4457
14524SOL    HW246527   2.232   7.031   2.951 -1.2867 -2.5735 -3.5083
14525SOL     OW46528   2.363   7.509   0.431  0.0054 -0.4491 -0.0620
14525SOL    HW146529   2.329   7.584   0.481  1.8003  0.5986 -0.3157
14525SOL    HW246530   2.448   7.491   0.471  0.4827 -1.0505 -1.3026
14526SOL     OW46531   0.166   4.453   3.135 -0.0860 -0.1377 -0.1137
14526SOL    HW146532   0.206   4.472   3.220  2.4860 -0.0360 -1.2832
14526SOL    HW246533   0.081   4.497   3.140  0.2076  0.3256  2.1872
14527SOL     OW46534   2.146   5.109   3.736 -0.2862 -0.0951  0.4525
14527SOL    HW146535   2.133   5.159   3.817  2.2481 -2.0179  2.1643
14527SOL    HW246536   2.220   5.151   3.694 -0.1732 -0.4742  0.2727
14528SOL     OW46537   2.354   6.182   0.932  0.3218 -0.1192 -0.3552
14528SOL    HW146538   2.439   6.171   0.889  0.5322  2.2504 -0.6680
14528SOL    HW246539   2.348   6.108   0.993  2.6814 -0.2487 -0.2011
14529SOL     OW46540   6.042   4.884   0.127  0.3526 -0.1350  0.2024
14529SOL    HW146541   6.039   4.925   0.041 -0.2558 -0.5652  0.0156
14529SOL    HW246542   6.131   4.902   0.159  0.1667  1.1543  0.0519
14530SOL     OW46543   3.913   3.391   0.407  0.4179  0.0049 -0.4298
14530SOL    HW146544   3.920   3.306   0.362  0.4984  0.2431 -0.8667
14530SOL    HW246545   3.991   3.439   0.381 -0.0471  0.5383 -0.8569
14531SOL     OW46546   4.534   5.636   6.662 -0.0361 -0.3291 -0.2821
14531SOL    HW146547   4.546   5.541   6.656  1.9619 -0.0871 -1.4215
14531SOL    HW246548   4.620   5.672   6.637 -0.0144  1.7638  2.3422
14532SOL     OW46549   4.744   5.579   7.340  0.6277  0.2773 -0.5858
14532SOL    HW146550   4.764   5.554   7.250 -0.0776 -0.0171 -0.6672
14532SOL    HW246551   4.666   5.634   7.333 -0.0234 -0.5572 -0.0754
14533SOL     OW46552   2.424   0.289   6.576 -0.3765  0.3024  0.0915
14533SOL    HW146553   2.449   0.319   6.664 -1.3916  0.1995  0.4177
14533SOL    HW246554   2.507   0.259   6.538 -0.4245 -3.4308  2.4518
14534SOL     OW46555   7.557   2.612   3.407  0.0282  0.0225  0.4134
14534SOL    HW146556   7.623   2.543   3.417 -2.6912 -2.8334  0.2354
14534SOL    HW246557   7.504   2.606   3.486  0.2371  2.6676  0.8378
14535SOL     OW46558   3.878   2.716   5.223  0.0707  0.1130 -0.4955
14535SOL    HW146559   3.964   2.688   5.191  0.7501  1.3278  0.1718
14535SOL    HW246560   3.876   2.687   5.314  1.0049  2.5175  0.3702
14536SOL     OW46561   6.472   2.531   4.743  0.5917  0.0630  0.0711
14536SOL    HW146562   6.549   2.584   4.761  1.9397 -1.4378 -0.9927
14536SOL    HW246563   6.420   2.583   4.682  1.9295  0.1405 -1.0371
14537SOL     OW46564   2.162   5.461   4.109 -0.0598  0.2874  0.0923
14537SOL    HW146565   2.145   5.542   4.157  0.0020 -0.6868  1.8277
14537SOL    HW246566   2.257   5.460   4.095 -0.3638  2.0493 -2.8771
14538SOL     OW46567   7.312   0.344   6.775  0.1772  0.0528 -0.5920
14538SOL    HW146568   7.325   0.430   6.735 -1.1414  0.1125 -0.9308
14538SOL    HW246569   7.321   0.282   6.703 -0.6817  0.0479 -0.7013
14539SOL     OW46570   5.114   6.881   5.432  0.4766 -0.1061 -0.3376
14539SOL    HW146571   5.127   6.806   5.374  0.0045 -1.2098  0.9306
14539SOL    HW246572   5.030   6.918   5.405  0.4131 -0.4082 -0.5577
14540SOL     OW46573   3.882   1.847   6.078 -0.3388 -0.2170  0.2266
14540SOL    HW146574   3.913   1.781   6.140 -0.8746  0.6927  1.5065
14540SOL    HW246575   3.789   1.827   6.066 -0.7097  0.7839  1.2865
14541SOL     OW46576   1.144   5.426   7.064  0.3320 -0.1386  0.0280
14541SOL    HW146577   1.164   5.423   7.158  0.0341  0.6297  0.1160
14541SOL    HW246578   1.212   5.372   7.024 -0.7160 -2.2083  0.8727
14542SOL     OW46579   6.164   4.235   7.010  0.4082 -0.1729 -0.0428
14542SOL    HW146580   6.232   4.177   7.047  0.8722  1.3852  1.7267
14542SOL    HW246581   6.124   4.275   7.087  1.0215  2.8669 -1.1825
14543SOL     OW46582   6.592   5.176   4.119  0.2586 -0.2882  0.2004
14543SOL    HW146583   6.686   5.158   4.110  0.4885  0.2700  1.4004
14543SOL    HW246584   6.584   5.223   4.201 -0.9922  0.3465 -0.2592
14544SOL     OW46585   2.716   6.287   8.056 -0.1545 -0.1645  0.0975
14544SOL    HW146586   2.712   6.214   8.118  0.0094 -0.9331 -0.7675
14544SOL    HW246587   2.804   6.283   8.020  0.9555  2.4099  2.2653
14545SOL     OW46588   0.472   5.313   1.572 -0.0486  0.5030  0.0501
14545SOL    HW146589   0.414   5.237   1.581 -1.9335  1.6142 -1.8565
14545SOL    HW246590   0.542   5.284   1.514  0.3413 -0.3149  0.9051
14546SOL     OW46591   6.358   2.058   3.129 -0.3173  0.4416  0.6242
14546SOL    HW146592   6.433   2.021   3.175  1.8740  0.3398 -2.6684
14546SOL    HW246593   6.323   1.985   3.078  0.7740  1.5387 -1.8922
14547SOL     OW46594   6.723   4.651   3.399 -0.1602  0.9291  0.2070
14547SOL    HW146595   6.719   4.610   3.486  0.0926 -0.7869 -0.5451
14547SOL    HW246596   6.637   4.692   3.388 -0.8492 -0.3619  0.5747
14548SOL     OW46597   0.297   7.766   2.386  0.3098 -0.1553  0.5246
14548SOL    HW146598   0.380   7.813   2.398 -0.3639  1.1397  0.3226
14548SOL    HW246599   0.251   7.777   2.470 -0.6495  1.2455 -0.1322
14549SOL     OW46600   0.561   5.519   4.946 -0.2959 -0.0529 -0.2015
14549SOL    HW146601   0.482   5.552   4.990 -0.4033 -0.7762  0.1716
14549SOL    HW246602   0.622   5.499   5.017 -0.3298 -0.8830 -0.3921
14550SOL     OW46603   4.421   3.731   4.921  0.0620  0.0921  0.0496
14550SOL    HW146604   4.404   3.637   4.922  0.0060  0.0701  2.0207
14550SOL    HW246605   4.351   3.768   4.868 -0.3788 -0.9153 -0.0779
14551SOL     OW46606   2.686   5.661   4.855  0.1726 -0.0947  0.2677
14551SOL    HW146607   2.624   5.623   4.793  0.8829 -0.3954 -0.2729
14551SOL    HW246608   2.632   5.690   4.928 -0.9020  1.7315 -1.1665
14552SOL     OW46609   7.305   6.523   5.022 -0.0568  0.2035 -0.1520
14552SOL    HW146610   7.214   6.499   5.003 -0.0968  0.6893 -0.5576
14552SOL    HW246611   7.315   6.503   5.116 -0.1736 -1.1366 -0.4017
14553SOL     OW46612   2.300   4.672   4.760  0.3221 -0.0445 -0.3780
14553SOL    HW146613   2.355   4.622   4.700  0.3255 -0.1953 -0.2502
14553SOL    HW246614   2.260   4.740   4.706  2.4867  1.5967 -0.0507
14554SOL     OW46615   4.731   4.374   1.223 -0.0903  0.4835 -0.1398
14554SOL    HW146616   4.682   4.441   1.270 -0.2728  1.1285 -1.2235
14554SOL    HW246617   4.739   4.407   1.134 -0.6023 -1.1419 -0.8396
14555SOL     OW46618   3.958   2.423   6.162  0.1794 -0.8026 -0.0102
14555SOL    HW146619   3.870   2.454   6.140 -0.0408 -1.0328  0.5239
14555SOL    HW246620   4.015   2.497   6.142 -0.2367 -0.3603  0.4129
14556SOL     OW46621   2.555   4.923   5.964 -0.0442  0.2772  0.2891
14556SOL    HW146622   2.516   4.858   6.022  0.1998 -2.0810 -1.9772
14556SOL    HW246623   2.493   4.996   5.965 -0.6467 -0.1887  2.4745
14557SOL     OW46624   3.639   5.378   7.483 -0.3283 -0.1351 -0.1488
14557SOL    HW146625   3.552   5.345   7.460 -0.5609  0.4552 -0.1318
14557SOL    HW246626   3.636   5.389   7.578 -0.0855 -0.5262 -0.0926
14558SOL     OW46627   7.619   4.757   0.465 -0.2667  0.4810 -0.0355
14558SOL    HW146628   7.655   4.720   0.385 -0.7611 -0.8976  0.3534
14558SOL    HW246629   7.524   4.756   0.451 -0.4832 -1.3909  1.1965
14559SOL     OW46630   0.993   2.601   1.299 -0.3134 -0.1416 -0.0057
14559SOL    HW146631   0.942   2.651   1.235  0.9440 -0.1070 -1.0067
14559SOL    HW246632   1.049   2.667   1.342  0.2270 -0.4521 -0.2306
14560SOL     OW46633   3.352   2.399   6.398 -0.3836  0.3548  0.3458
14560SOL    HW146634   3.311   2.461   6.338  1.9304  2.3897  0.6860
14560SOL    HW246635   3.306   2.410   6.481 -1.0307  0.4369 -0.0237
14561SOL     OW46636   6.662   1.085   5.714 -0.0626 -0.0016  0.0738
14561SOL    HW146637   6.672   1.181   5.711  0.2670 -0.0321  0.1720
14561SOL    HW246638   6.719   1.058   5.787 -0.4006 -0.2397  0.2503
14562SOL     OW46639   1.433   7.933   3.689 -0.6670 -0.7165 -0.2956
14562SOL    HW146640   1.386   8.009   3.725 -3.0342 -2.4023  0.4747
14562SOL    HW246641   1.412   7.933   3.596  0.6802  0.4290 -0.6239
14563SOL     OW46642   5.121   0.119   2.014  0.2867 -0.3627 -0.4455
14563SOL    HW146643   5.206   0.160   2.030 -0.0194  0.0350  0.1608
14563SOL    HW246644   5.142   0.040   1.963  1.1150 -0.7630  0.4732
14564SOL     OW46645   4.320   4.637   7.140 -0.1703  0.3829  0.2616
14564SOL    HW146646   4.325   4.703   7.209 -2.9300 -0.1623  1.1028
14564SOL    HW246647   4.230   4.605   7.144  0.6612 -2.4120 -1.0765
14565SOL     OW46648   5.374   6.060   1.361  0.7852  0.6599  0.1618
14565SOL    HW146649   5.318   5.989   1.394  0.8085  0.0915 -0.9880
14565SOL    HW246650   5.315   6.135   1.354  0.6832  0.6739  1.0724
14566SOL     OW46651   4.292   2.127   5.476 -0.0894  0.4423  0.2943
14566SOL    HW146652   4.222   2.077   5.517  1.4619 -1.0353  1.2927
14566SOL    HW246653   4.275   2.218   5.499 -1.0919 -0.0093  1.3895
14567SOL     OW46654   0.819   1.936   5.883 -0.2672  0.3523 -0.1196
14567SOL    HW146655   0.781   1.849   5.898 -0.0173 -0.3498 -2.9837
14567SOL    HW246656   0.772   1.993   5.943  1.6648 -2.1069  4.2477
14568SOL     OW46657   4.470   6.303   6.094  0.1555  0.3095  0.1182
14568SOL    HW146658   4.408   6.230   6.096  0.2866  0.2042  0.3242
14568SOL    HW246659   4.550   6.266   6.056  0.3136  0.2747  0.4820
14569SOL     OW46660   1.104   2.998   7.138  0.5307 -0.7504 -0.0097
14569SOL    HW146661   1.096   3.005   7.233 -1.2426  0.7438 -0.2149
14569SOL    HW246662   1.094   3.088   7.106 -1.8528 -1.5295 -1.7370
14570SOL     OW46663   5.805   6.566   1.265  0.5238 -0.1548  0.4056
14570SOL    HW146664   5.785   6.655   1.296 -0.7511 -0.8002  1.5198
14570SOL    HW246665   5.745   6.510   1.313  1.5594 -1.6806 -0.0222
14571SOL     OW46666   5.734   7.677   1.255 -0.0985  0.8817 -0.1040
14571SOL    HW146667   5.819   7.641   1.278 -0.6635 -1.8618 -1.8116
14571SOL    HW246668   5.753   7.756   1.205  1.4583  0.1257 -0.7582
14572SOL     OW46669   3.613   7.291   4.278 -0.4175 -0.2407  0.1234
14572SOL    HW146670   3.627   7.289   4.183  0.2305  0.9236  0.1783
14572SOL    HW246671   3.526   7.328   4.289 -0.5630 -0.5362 -0.0161
14573SOL     OW46672   6.223   1.301   1.056 -0.2607  0.3066  0.7557
14573SOL    HW146673   6.309   1.277   1.092  1.1381 -0.3406 -2.6561
14573SOL    HW246674   6.218   1.396   1.069  0.2016  0.1349  2.4183
14574SOL     OW46675   4.219   2.320   7.014  0.5818 -0.4380  0.2967
14574SOL    HW146676   4.300   2.275   6.988  1.5394  0.6139  1.3109
14574SOL    HW246677   4.233   2.342   7.106 -0.1379  1.2797  0.0253
14575SOL     OW46678   1.504   7.727   2.894 -0.2810 -0.3057  0.1397
14575SOL    HW146679   1.503   7.748   2.800 -1.7375  0.5569  0.3201
14575SOL    HW246680   1.576   7.665   2.903 -0.0273 -0.3223 -1.5326
14576SOL     OW46681   1.868   3.515   4.789  0.0016 -0.0511  0.2241
14576SOL    HW146682   1.864   3.537   4.696 -0.8754  0.0199  0.2751
14576SOL    HW246683   1.900   3.595   4.831  0.4682 -0.1058 -0.0154
14577SOL     OW46684   2.578   7.377   0.548 -0.0567  0.1211 -0.2373
14577SOL    HW146685   2.526   7.302   0.520 -1.3045  1.3606 -1.3798
14577SOL    HW246686   2.579   7.370   0.644 -1.0655 -0.7593 -0.2695
14578SOL     OW46687   6.822   7.131   3.094 -0.3390  0.4228 -0.5594
14578SOL    HW146688   6.822   7.226   3.086  1.6604  0.4959 -0.2551
14578SOL    HW246689   6.804   7.114   3.187  0.9460  0.6096 -0.2527
14579SOL     OW46690   1.796   5.870   5.368  0.1057 -0.4274 -0.1956
14579SOL    HW146691   1.867   5.830   5.316  0.2377 -0.3570 -0.0713
14579SOL    HW246692   1.787   5.812   5.443  1.6187  0.7691  0.9987
14580SOL     OW46693   4.519   3.352   4.366 -0.2910  0.3391  0.7978
14580SOL    HW146694   4.454   3.286   4.393 -0.8806 -0.2941 -1.9072
14580SOL    HW246695   4.603   3.310   4.384 -0.5782  0.4080  2.5562
14581SOL     OW46696   3.451   4.466   7.462  0.0592  0.4906  0.3426
14581SOL    HW146697   3.532   4.417   7.474 -0.2114 -0.7525 -2.3126
14581SOL    HW246698   3.465   4.520   7.384 -0.7083  2.4867  1.4981
14582SOL     OW46699   7.202   5.254   7.123  0.0217 -0.0856 -0.3475
14582SOL    HW146700   7.283   5.253   7.073  0.1468 -0.4918 -0.1388
14582SOL    HW246701   7.203   5.173   7.174 -0.3945  0.0246 -0.1520
14583SOL     OW46702   3.567   0.349   3.057 -0.1138 -0.4825  0.2789
14583SOL    HW146703   3.570   0.360   3.152  0.9753 -0.1114  0.2263
14583SOL    HW246704   3.607   0.263   3.041 -0.3703 -0.5799  0.1662
14584SOL     OW46705   0.643   0.055   2.817  0.0484 -1.0080  0.1094
14584SOL    HW146706   0.558   0.044   2.858  0.3897  0.1069  1.1697
14584SOL    HW246707   0.624   0.073   2.725 -1.1406  3.0151  0.9512
14585SOL     OW46708   1.488   0.655   3.055 -0.6696 -0.3283 -0.4118
14585SOL    HW146709   1.554   0.710   3.097 -0.6857 -0.6644  0.0738
14585SOL    HW246710   1.527   0.568   3.054 -1.0568 -0.5071 -0.2245
14586SOL     OW46711   7.605   0.237   2.243 -0.6695 -0.5345 -0.5134
14586SOL    HW146712   7.660   0.277   2.310  0.2172  0.2494 -1.6673
14586SOL    HW246713   7.639   0.271   2.160 -2.0143 -1.1165 -1.3480
14587SOL     OW46714   3.464   5.939   6.305 -0.4212 -0.2209 -0.9197
14587SOL    HW146715   3.474   6.031   6.328  0.1758 -0.3411 -0.6702
14587SOL    HW246716   3.377   5.933   6.265  0.0495  0.6862 -2.1378
14588SOL     OW46717   4.962   1.638   5.077 -0.1397 -0.5042 -0.6445
14588SOL    HW146718   4.935   1.618   5.166 -0.4184  1.6858 -0.1866
14588SOL    HW246719   4.888   1.687   5.040  0.7070  0.1826 -1.4655
14589SOL     OW46720   5.832   1.640   2.740  0.0330  0.6243 -0.5781
14589SOL    HW146721   5.820   1.726   2.781 -0.7787 -0.2627  1.1546
14589SOL    HW246722   5.898   1.597   2.795 -0.9607 -0.5415 -0.2627
14590SOL     OW46723   0.513   3.688   3.658 -0.2901  0.5634  0.1679
14590SOL    HW146724   0.547   3.630   3.726  0.5453  1.1340  0.2600
14590SOL    HW246725   0.515   3.775   3.698 -0.6298  0.7828 -0.2854
14591SOL     OW46726   3.841   5.160   6.753  0.0149 -0.5073  0.3362
14591SOL    HW146727   3.854   5.253   6.772 -1.4931  0.2289 -1.8247
14591SOL    HW246728   3.856   5.117   6.837 -0.8902  1.8542  1.8331
14592SOL     OW46729   1.932   6.829   2.516  0.6218 -0.2826  0.3765
14592SOL    HW146730   1.895   6.864   2.596 -0.8371 -0.8696 -0.0029
14592SOL    HW246731   1.931   6.734   2.528 -1.5954 -0.5310 -1.0825
14593SOL     OW46732   5.956   0.781   5.347  0.6593 -0.4516  0.0739
14593SOL    HW146733   5.947   0.686   5.336 -1.7347 -0.1733 -1.1773
14593SOL    HW246734   5.989   0.811   5.262  2.0535 -0.2073  0.6892
14594SOL     OW46735   4.698   3.543   4.292 -0.4703 -0.0321 -0.0379
14594SOL    HW146736   4.637   3.470   4.299 -0.2671 -0.1690  0.3795
14594SOL    HW246737   4.759   3.530   4.365 -1.2817  1.3286  0.9345
14595SOL     OW46738   2.523   3.602   7.294 -0.2761  0.2006 -0.0561
14595SOL    HW146739   2.573   3.546   7.353 -0.2283  0.0514 -0.2374
14595SOL    HW246740   2.502   3.546   7.219  0.9847  0.8294 -0.9049
14596SOL     OW46741   7.066   0.093   5.666 -0.1119  0.4308 -0.4990
14596SOL    HW146742   7.091   0.183   5.649 -0.2470  0.2157 -1.9653
14596SOL    HW246743   6.992   0.077   5.608  0.9860 -1.1304 -1.5622
14597SOL     OW46744   3.214   4.029   4.551  0.3390  0.0729 -0.5256
14597SOL    HW146745   3.221   4.092   4.480  2.8800 -0.9954 -1.3388
14597SOL    HW246746   3.245   4.075   4.629  1.6763  0.0266 -1.0096
14598SOL     OW46747   6.421   3.415   0.841 -0.0604  0.1188 -0.2096
14598SOL    HW146748   6.514   3.400   0.823  0.2022  0.8254  0.5418
14598SOL    HW246749   6.393   3.477   0.774  0.0565  0.0641 -0.3091
14599SOL     OW46750   4.279   1.697   6.242  0.2347 -0.5041  0.0719
14599SOL    HW146751   4.346   1.763   6.259 -1.3527  1.3238 -0.4097
14599SOL    HW246752   4.266   1.700   6.147 -0.5861 -0.7814  0.1690
14600SOL     OW46753   2.302   3.362   6.111  0.3570 -0.1135 -0.0567
14600SOL    HW146754   2.389   3.360   6.071 -0.0929 -0.8009 -1.0832
14600SOL    HW246755   2.311   3.418   6.188  1.1564  1.7347 -1.4174
14601SOL     OW46756   4.522   0.116   0.948 -0.0670  0.0850 -0.3601
14601SOL    HW146757   4.545   0.105   1.040  0.7083 -0.4629 -0.6135
14601SOL    HW246758   4.485   0.205   0.944  0.9181  0.5501  0.2767
14602SOL     OW46759   5.463   5.360   7.402 -0.2303  0.1338  0.2121
14602SOL    HW146760   5.382   5.328   7.443 -0.7365 -0.8727 -1.4793
14602SOL    HW246761   5.433   5.421   7.334  0.2382 -1.6455 -1.7031
14603SOL     OW46762   6.248   8.043   0.399  0.3234 -0.1700  0.2080
14603SOL    HW146763   6.314   8.068   0.335 -1.9007  2.7851 -1.1316
14603SOL    HW246764   6.165   8.047   0.352 -1.1428 -0.8802  2.5398
14604SOL     OW46765   4.732   7.385   6.933 -0.0937  0.0772  0.6846
14604SOL    HW146766   4.656   7.442   6.945  0.7576  1.4109 -0.1247
14604SOL    HW246767   4.808   7.443   6.939  0.7742 -0.8422 -0.7630
14605SOL     OW46768   1.852   6.614   4.006 -0.1530  0.1998 -0.2820
14605SOL    HW146769   1.904   6.547   3.961  0.2009  0.8643 -0.8719
14605SOL    HW246770   1.762   6.596   3.981 -0.0584 -0.0475 -0.4445
14606SOL     OW46771   1.242   2.330   0.345 -0.3543 -0.3387  0.5654
14606SOL    HW146772   1.188   2.264   0.301 -1.1050  0.3340  0.4686
14606SOL    HW246773   1.330   2.316   0.308 -0.6324 -0.8623  0.0757
14607SOL     OW46774   5.381   2.797   4.764  0.4237  0.3214 -0.6890
14607SOL    HW146775   5.302   2.744   4.755  0.4854  0.2434 -0.7701
14607SOL    HW246776   5.453   2.733   4.767  0.4046  0.3277  0.4309
14608SOL     OW46777   6.163   2.126   6.966  0.1269 -0.3495 -0.0925
14608SOL    HW146778   6.132   2.072   7.039 -1.4239  1.0036  0.3171
14608SOL    HW246779   6.210   2.198   7.008 -1.6028  0.9638 -0.3150
14609SOL     OW46780   0.283   5.018   4.496  0.1811 -0.3251 -0.6521
14609SOL    HW146781   0.375   5.037   4.479  0.4843 -0.3181  0.8279
14609SOL    HW246782   0.263   4.944   4.439  1.5056 -1.1990 -0.0431
14610SOL     OW46783   7.619   3.257   4.678 -0.6204 -0.1850  0.3438
14610SOL    HW146784   7.529   3.281   4.658 -0.3725  0.7843  0.3197
14610SOL    HW246785   7.612   3.176   4.729 -1.5186  0.0669  0.6366
14611SOL     OW46786   2.126   2.074   1.272  0.5260  0.2067  0.1328
14611SOL    HW146787   2.193   2.019   1.312 -1.1695 -2.5496 -0.4931
14611SOL    HW246788   2.113   2.036   1.185 -0.7496  1.6329 -0.3432
14612SOL     OW46789   5.283   2.431   4.572  0.2589  0.3670 -0.0737
14612SOL    HW146790   5.273   2.336   4.568  3.2708 -0.0066 -2.0179
14612SOL    HW246791   5.211   2.465   4.520 -0.6090 -0.8616  0.2878
14613SOL     OW46792   3.839   5.276   6.428  0.4495  0.1781 -0.0341
14613SOL    HW146793   3.807   5.298   6.340 -0.0353  2.4477  0.6483
14613SOL    HW246794   3.761   5.283   6.484  1.1097  0.5196  0.8520
14614SOL     OW46795   3.343   5.655   4.331  0.1969 -0.3485 -0.5800
14614SOL    HW146796   3.413   5.710   4.369  0.7618 -1.4061 -0.0480
14614SOL    HW246797   3.267   5.673   4.386  0.6028 -0.7103  0.1142
14615SOL     OW46798   2.097   3.888   1.361 -0.1949  0.2324  0.2922
14615SOL    HW146799   2.022   3.853   1.409 -2.0072  2.0353 -1.0636
14615SOL    HW246800   2.122   3.817   1.302 -0.5904 -0.5378  1.0340
14616SOL     OW46801   4.196   7.575   7.734  0.2312 -0.0490  0.1816
14616SOL    HW146802   4.149   7.495   7.758  1.7142 -1.6888 -2.0415
14616SOL    HW246803   4.288   7.554   7.748  0.5784  1.9737  1.3228
14617SOL     OW46804   5.498   3.254   0.983  0.1246  0.2309  0.3619
14617SOL    HW146805   5.432   3.194   1.017  1.0484 -1.3236 -0.4787
14617SOL    HW246806   5.516   3.314   1.056 -2.2239  0.7558  0.5905
14618SOL     OW46807   1.179   5.389   4.206 -0.6689 -0.0461 -0.0583
14618SOL    HW146808   1.196   5.296   4.195 -1.7707 -0.1701 -0.8812
14618SOL    HW246809   1.256   5.423   4.251  0.3104 -1.1204 -0.8767
14619SOL     OW46810   3.916   6.946   7.440  0.5602 -0.8012 -0.4741
14619SOL    HW146811   3.830   6.936   7.481  0.6227 -0.5770 -0.2884
14619SOL    HW246812   3.938   6.858   7.408  0.1429 -0.8015 -0.7627
14620SOL     OW46813   1.527   4.816   0.719  0.0809 -0.4335 -0.3025
14620SOL    HW146814   1.477   4.880   0.669  2.9872  1.0599 -1.5174
14620SOL    HW246815   1.464   4.747   0.739 -2.7580  1.8965 -0.5139
14621SOL     OW46816   2.817   4.915   7.600 -0.4116  0.1506 -0.2636
14621SOL    HW146817   2.773   4.872   7.527 -0.5843 -0.4876  0.2055
14621SOL    HW246818   2.747   4.932   7.663  0.1106 -1.8131  0.9473
14622SOL     OW46819   3.624   6.879   3.678  0.5444  0.1583  0.5938
14622SOL    HW146820   3.585   6.840   3.600  1.2442 -0.9432  0.7588
14622SOL    HW246821   3.665   6.960   3.646  0.9788 -0.3670 -0.2262
14623SOL     OW46822   6.815   3.314   3.748 -0.1950  0.3183 -0.0558
14623SOL    HW146823   6.790   3.265   3.826 -1.2285  1.2453  0.2224
14623SOL    HW246824   6.902   3.348   3.767 -0.4580  0.5772  0.7245
14624SOL     OW46825   0.039   7.975   6.713  0.2800  0.2197 -0.3178
14624SOL    HW146826  -0.018   7.933   6.778 -0.2677  0.0411 -0.9058
14624SOL    HW246827   0.012   8.066   6.713  0.8509  0.4012  0.2980
14625SOL     OW46828   5.382   6.108   2.783 -0.1244 -0.2296 -0.6403
14625SOL    HW146829   5.394   6.102   2.878 -1.2750  0.3056 -0.4389
14625SOL    HW246830   5.378   6.202   2.766 -0.9186 -0.3330 -1.0742
14626SOL     OW46831   7.434   7.498   5.909  0.0616  0.0510  0.0599
14626SOL    HW146832   7.378   7.423   5.888  0.4550 -0.1885 -0.1394
14626SOL    HW246833   7.464   7.480   5.998  0.0802  0.0208  0.0477
14627SOL     OW46834   5.521   1.989   8.068  0.4913  0.5240  0.2388
14627SOL    HW146835   5.495   1.930   7.997 -0.8987  0.2143  0.9684
14627SOL    HW246836   5.500   1.940   8.148  0.8578  1.3628  0.8615
14628SOL     OW46837   4.569   7.492   6.180  0.6438  0.3450 -0.1241
14628SOL    HW146838   4.484   7.452   6.194  0.5809  0.3587 -0.4545
14628SOL    HW246839   4.597   7.460   6.095  1.6019 -0.7735  0.5903
14629SOL     OW46840   5.602   0.188   6.527 -0.1493  0.0107 -0.0400
14629SOL    HW146841   5.545   0.115   6.551  0.9261  0.1862  3.7225
14629SOL    HW246842   5.589   0.253   6.596  1.6955  1.7604 -1.2123
14630SOL     OW46843   5.835   5.711   5.206  0.6193 -0.0082 -0.1462
14630SOL    HW146844   5.786   5.760   5.272 -0.1442 -1.2175  0.2325
14630SOL    HW246845   5.808   5.749   5.122 -0.4908 -0.2250  0.0967
14631SOL     OW46846   7.629   5.321   4.151  0.1158 -0.1183  0.5025
14631SOL    HW146847   7.600   5.406   4.184 -0.0130 -0.0400  0.1909
14631SOL    HW246848   7.665   5.277   4.227  1.4961  0.7657  0.3881
14632SOL     OW46849   7.162   1.495   0.022 -0.1561 -0.1637  0.0912
14632SOL    HW146850   7.105   1.420   0.006 -0.1326 -0.4244  1.1635
14632SOL    HW246851   7.248   1.467  -0.010 -0.5448  0.1175 -1.2427
14633SOL     OW46852   5.557   2.154   7.701 -0.2751 -0.1215  0.6445
14633SOL    HW146853   5.651   2.158   7.718 -0.2852 -0.4915  0.8012
14633SOL    HW246854   5.551   2.110   7.616 -0.2348  1.5062 -0.2349
14634SOL     OW46855   0.392   0.512   3.801 -0.4224  0.1211  0.1433
14634SOL    HW146856   0.421   0.429   3.841  0.0747 -0.2285 -0.9068
14634SOL    HW246857   0.381   0.571   3.875 -3.5129 -1.6291  1.2441
14635SOL     OW46858   5.675   0.483   3.841 -0.0087 -0.4115 -0.0736
14635SOL    HW146859   5.627   0.417   3.890 -1.0299 -0.3547 -0.9476
14635SOL    HW246860   5.714   0.539   3.907  0.6036 -1.6830  0.6792
14636SOL     OW46861   0.479   1.338   3.146  0.4040  0.0670  0.3441
14636SOL    HW146862   0.442   1.251   3.127  0.5446  0.3429 -1.3212
14636SOL    HW246863   0.412   1.399   3.117  0.2592  0.5400  1.6157
14637SOL     OW46864   5.178   6.061   7.845  0.4142  0.0170  0.5666
14637SOL    HW146865   5.161   5.970   7.822  0.1441  0.6976 -2.3601
14637SOL    HW246866   5.268   6.062   7.877  0.3898 -1.2676  0.7042
14638SOL     OW46867   6.809   6.812   6.894 -0.2089 -0.2260 -1.0386
14638SOL    HW146868   6.887   6.788   6.844  0.7984 -1.7254  1.0523
14638SOL    HW246869   6.829   6.783   6.984 -3.3721 -1.2043 -0.5149
14639SOL     OW46870   2.526   6.322   2.869  0.0934  0.9350 -0.4691
14639SOL    HW146871   2.557   6.294   2.955  0.2433 -0.8481 -1.0580
14639SOL    HW246872   2.606   6.347   2.822  0.6519 -2.2947 -1.5031
14640SOL     OW46873   0.277   1.047   3.565  0.2202 -0.0378 -0.0077
14640SOL    HW146874   0.185   1.036   3.588 -0.1110 -0.5744 -1.5114
14640SOL    HW246875   0.322   0.976   3.611  0.0447  0.7170  1.4086
14641SOL     OW46876   2.335   4.814   1.401  0.0268 -0.0627  0.1393
14641SOL    HW146877   2.310   4.726   1.431 -1.7998  0.1446 -0.6386
14641SOL    HW246878   2.276   4.831   1.328  0.3903  1.8127  0.2541
14642SOL     OW46879   5.270   0.947   0.498 -0.0241  0.1879 -0.7596
14642SOL    HW146880   5.353   0.967   0.541  0.0155 -1.5972  0.0940
14642SOL    HW246881   5.294   0.903   0.417 -0.1198 -0.2197 -0.5711
14643SOL     OW46882   7.774   0.905   0.012  0.2897  0.2192  0.0503
14643SOL    HW146883   7.808   0.993   0.031 -0.3649  0.0446  2.2848
14643SOL    HW246884   7.819   0.879  -0.068  2.6453  1.4527  0.8959
14644SOL     OW46885   0.477   6.777   7.416 -0.8266  0.2326  0.0909
14644SOL    HW146886   0.569   6.805   7.407 -0.7575  0.4286  1.2641
14644SOL    HW246887   0.481   6.681   7.414 -0.8457  0.2303 -1.9258
14645SOL     OW46888   2.548   0.938   5.144  0.3327 -0.1805 -0.1124
14645SOL    HW146889   2.472   0.983   5.108 -0.4460 -1.6526 -0.4072
14645SOL    HW246890   2.512   0.860   5.187  1.5944 -0.4459  0.5262
14646SOL     OW46891   7.559   6.775   3.768 -0.1610 -0.4679  0.1913
14646SOL    HW146892   7.625   6.844   3.774  0.4181 -1.0952  1.6762
14646SOL    HW246893   7.567   6.740   3.679  0.3297  0.5980 -0.1921
14647SOL     OW46894   0.066   2.551   3.706 -0.0354  0.1450  0.1248
14647SOL    HW146895   0.069   2.645   3.685  0.6143  0.3645  1.1016
14647SOL    HW246896   0.027   2.510   3.629  0.2436  1.1461 -0.5702
14648SOL     OW46897   7.347   3.723   5.662  0.0465  0.3163 -0.1424
14648SOL    HW146898   7.382   3.801   5.617 -1.5388  0.3007 -1.4774
14648SOL    HW246899   7.345   3.655   5.595 -2.5854  0.3469 -0.1966
14649SOL     OW46900   6.357   3.159   7.673 -0.3813  0.3023 -0.5691
14649SOL    HW146901   6.320   3.217   7.740 -0.8978  0.2315 -0.7874
14649SOL    HW246902   6.441   3.198   7.650  0.2105 -0.1451  0.7481
14650SOL     OW46903   6.045   1.877   0.396 -0.0457  0.3103 -0.3859
14650SOL    HW146904   5.961   1.877   0.350 -0.5088 -1.5563  0.3228
14650SOL    HW246905   6.100   1.817   0.346  0.7514  1.2038 -0.6112
14651SOL     OW46906   7.766   3.960   3.603  0.4802 -0.0099 -0.8028
14651SOL    HW146907   7.726   3.960   3.690  3.4061 -2.0520  0.6991
14651SOL    HW246908   7.698   3.996   3.546 -1.7092  1.0896  2.2140
14652SOL     OW46909   3.408   2.523   5.256 -0.3336 -0.0396  0.2327
14652SOL    HW146910   3.404   2.611   5.293 -0.7212 -0.0060  0.1207
14652SOL    HW246911   3.338   2.475   5.300  0.1173 -0.3966  0.5576
14653SOL     OW46912   3.956   5.056   5.014  0.7003  0.1167  0.5170
14653SOL    HW146913   4.051   5.059   5.000  0.7554  0.4691  0.9516
14653SOL    HW246914   3.941   5.116   5.087  0.1666 -0.1015  0.5853
14654SOL     OW46915   3.580   2.399   6.681 -0.1587 -0.1976  0.0736
14654SOL    HW146916   3.636   2.359   6.747  0.1874  0.2015  0.0226
14654SOL    HW246917   3.493   2.360   6.697  0.1636 -0.9641  0.0232
14655SOL     OW46918   1.867   0.548   6.110 -0.1288 -0.1159 -0.4810
14655SOL    HW146919   1.789   0.540   6.165 -1.0664 -2.0099 -1.9526
14655SOL    HW246920   1.895   0.458   6.094  2.3049  0.5060 -0.1404
14656SOL     OW46921   4.083   4.377   3.548 -0.1527 -0.2518 -0.1715
14656SOL    HW146922   4.112   4.454   3.597 -0.4641  0.4155 -1.0062
14656SOL    HW246923   3.989   4.371   3.566  0.2449 -1.7462  1.6289
14657SOL     OW46924   6.258   4.657   7.735 -0.4346 -0.1598 -0.7201
14657SOL    HW146925   6.170   4.663   7.772  0.2129  0.5722  0.7878
14657SOL    HW246926   6.304   4.734   7.770  0.9544 -0.8045 -1.0639
14658SOL     OW46927   7.636   4.929   6.930 -0.0857 -0.1057 -0.0111
14658SOL    HW146928   7.623   4.883   6.846  0.5975  0.0895 -0.2234
14658SOL    HW246929   7.682   4.866   6.985  1.1191  0.4033 -0.3999
14659SOL     OW46930   0.436   5.046   0.914 -0.1768  0.3774 -0.2773
14659SOL    HW146931   0.486   4.969   0.888  2.0445  1.3522  0.8518
14659SOL    HW246932   0.429   5.038   1.009 -1.3830  0.7627 -0.3157
14660SOL     OW46933   0.600   4.436   6.521 -0.2126  0.0113 -0.4004
14660SOL    HW146934   0.690   4.468   6.519  0.0769 -0.4452  1.9858
14660SOL    HW246935   0.554   4.496   6.580 -1.3284 -0.1225 -1.1035
14661SOL     OW46936   2.743   2.193   3.000  0.0415 -0.5685  0.5880
14661SOL    HW146937   2.682   2.267   2.997  0.4702 -0.2292 -1.2024
14661SOL    HW246938   2.815   2.219   2.943 -0.0252 -2.5416 -0.4983
14662SOL     OW46939   5.364   6.771   8.074 -0.6343 -0.2254  0.1337
14662SOL    HW146940   5.421   6.838   8.035  0.5828 -1.4089 -0.1954
14662SOL    HW246941   5.318   6.732   7.999 -1.4400  0.3045  0.3380
14663SOL     OW46942   5.256   7.908   0.981  0.7032  0.1755  0.1237
14663SOL    HW146943   5.238   7.835   1.040  0.8560  0.0140 -0.0284
14663SOL    HW246944   5.285   7.867   0.899  0.5214  0.3991 -0.0544
14664SOL     OW46945   3.414   3.608   7.187 -0.0137 -0.0349 -0.0408
14664SOL    HW146946   3.446   3.518   7.177  1.4509  0.6246 -2.0455
14664SOL    HW246947   3.487   3.654   7.229  0.5246  0.8067 -1.7729
14665SOL     OW46948   4.382   7.715   6.266 -0.4004 -0.2861  0.0869
14665SOL    HW146949   4.373   7.709   6.361 -0.1373  0.2112  0.1440
14665SOL    HW246950   4.469   7.681   6.248 -0.0047  0.6675  0.1391
14666SOL     OW46951   7.753   8.053   5.952 -0.2348  0.0123 -0.4637
14666SOL    HW146952   7.695   8.060   5.876  1.2807 -1.4340 -1.8181
14666SOL    HW246953   7.823   7.994   5.924  0.0464 -1.1080  2.2737
14667SOL     OW46954   7.699   7.290   7.599 -0.3248 -0.0941  0.9734
14667SOL    HW146955   7.629   7.345   7.563  0.0599 -0.2972 -0.1278
14667SOL    HW246956   7.694   7.209   7.548  0.7419 -0.0913  0.8398
14668SOL     OW46957   6.921   4.018   0.565  0.3438  0.4568 -0.3643
14668SOL    HW146958   6.928   4.102   0.611 -0.6045  0.1198  0.4198
14668SOL    HW246959   6.853   4.032   0.500  0.3209  0.3565 -0.3619
14669SOL     OW46960   2.483   0.353   0.903 -0.1835  0.3383 -0.3023
14669SOL    HW146961   2.519   0.423   0.849  0.2705  0.0340 -0.4011
14669SOL    HW246962   2.392   0.344   0.874 -0.3479  1.1134 -0.0492
14670SOL     OW46963   4.421   5.239   6.314  0.2214  0.0158  0.0705
14670SOL    HW146964   4.476   5.250   6.236  0.8841  2.2826  0.7541
14670SOL    HW246965   4.336   5.212   6.280  0.9462 -0.6930 -1.2722
14671SOL     OW46966   0.387   1.914   7.148 -0.0111  0.4489 -0.1419
14671SOL    HW146967   0.386   1.828   7.190 -0.3856  0.6737  0.3191
14671SOL    HW246968   0.406   1.896   7.056 -2.8633 -0.4023 -0.6626
14672SOL     OW46969   7.244   4.588   3.416 -0.0699 -0.6250  0.1811
14672SOL    HW146970   7.212   4.598   3.505 -0.2596  0.4470  0.0055
14672SOL    HW246971   7.288   4.671   3.397  1.1381 -1.3308 -0.2612
14673SOL     OW46972   5.448   1.664   6.199 -0.1767 -0.1117 -0.5041
14673SOL    HW146973   5.408   1.692   6.116 -2.1574  1.2701  0.8305
14673SOL    HW246974   5.453   1.743   6.252  2.9716 -0.5589  0.0565
14674SOL     OW46975   7.070   1.751   5.539 -0.7315  0.1243  0.0210
14674SOL    HW146976   7.120   1.751   5.457 -0.7213 -2.1660 -0.0471
14674SOL    HW246977   7.085   1.838   5.576  0.8243  0.5632 -1.4803
14675SOL     OW46978   3.545   5.994   3.163 -0.0605 -0.9825  0.2695
14675SOL    HW146979   3.624   5.955   3.200  1.0716  0.3874 -0.5771
14675SOL    HW246980   3.578   6.054   3.096 -1.5618  2.4667  2.4005
14676SOL     OW46981   3.199   3.039   0.860 -0.4850 -0.1366  0.0643
14676SOL    HW146982   3.270   3.085   0.905 -1.2545  0.6536  0.5016
14676SOL    HW246983   3.244   2.985   0.794  0.4756  0.9566 -0.2150
14677SOL     OW46984   1.729   2.802   6.546 -0.2947 -0.4178 -0.6081
14677SOL    HW146985   1.659   2.737   6.555  0.6848 -1.4687 -0.3287
14677SOL    HW246986   1.728   2.826   6.454  0.0624 -1.7028 -0.9682
14678SOL     OW46987   5.967   5.267   7.866 -0.3493  0.3353 -0.0847
14678SOL    HW146988   5.932   5.314   7.942  1.0796  0.9162  0.2553
14678SOL    HW246989   5.976   5.334   7.799  0.4665  0.2813 -0.0321
14679SOL     OW46990   4.636   5.195   0.552  0.0637 -0.8248  0.1913
14679SOL    HW146991   4.555   5.177   0.600 -0.2220 -1.3721 -0.4825
14679SOL    HW246992   4.706   5.178   0.615 -0.3486  0.6183  1.0953
14680SOL     OW46993   1.648   6.609   0.496  0.4307  0.2926 -0.2544
14680SOL    HW146994   1.735   6.570   0.502 -0.1491 -0.9602  0.6203
14680SOL    HW246995   1.616   6.610   0.586 -0.4366  0.7821 -0.5555
14681SOL     OW46996   6.172   5.341   7.234 -0.1404 -0.1154  0.3644
14681SOL    HW146997   6.148   5.285   7.308  0.9719 -0.7308  0.2802
14681SOL    HW246998   6.266   5.357   7.246  0.2174 -0.7892 -1.2748
14682SOL     OW46999   6.657   7.981   0.804  0.0232  0.0550 -0.1636
14682SOL    HW147000   6.561   7.976   0.801 -0.0088 -0.4445  1.0714
14682SOL    HW247001   6.684   7.892   0.829  0.6730  0.7530  1.7500
14683SOL     OW47002   1.829   3.181   7.004 -0.3988  0.0600 -0.2309
14683SOL    HW147003   1.793   3.266   7.029 -1.5619 -0.2103 -0.9179
14683SOL    HW247004   1.825   3.128   7.084 -1.1276  0.1744 -0.1878
14684SOL     OW47005   7.294   1.709   5.374  0.1468  0.6176  0.5604
14684SOL    HW147006   7.297   1.762   5.295  1.7720  0.9363  0.8160
14684SOL    HW247007   7.327   1.623   5.348 -0.3972  0.3711  0.6529
14685SOL     OW47008   7.756   2.081   6.470  0.2421 -0.5498 -0.2954
14685SOL    HW147009   7.823   2.149   6.459  0.0508 -0.1582  0.8647
14685SOL    HW247010   7.780   2.013   6.407  1.0672  0.1023 -0.6982
14686SOL     OW47011   2.325   0.294   2.149 -0.6418 -0.3533  0.0359
14686SOL    HW147012   2.283   0.320   2.231  0.4751 -0.5865  0.7048
14686SOL    HW247013   2.341   0.200   2.159  2.0917  0.1053  0.8152
14687SOL     OW47014   2.455   1.328   3.059  0.1148  0.0740  0.0149
14687SOL    HW147015   2.518   1.264   3.026  0.1413 -0.3525  0.8561
14687SOL    HW247016   2.372   1.280   3.060 -0.1119  0.4490 -0.5290
14688SOL     OW47017   0.708   3.266   2.372 -0.3443 -0.2612  0.7437
14688SOL    HW147018   0.790   3.228   2.342 -1.3455 -1.0673 -1.1559
14688SOL    HW247019   0.718   3.360   2.355  0.1920 -0.3499  0.5361
14689SOL     OW47020   5.127   3.590   0.437 -0.2553  0.4136 -0.6984
14689SOL    HW147021   5.196   3.529   0.463 -0.2642  1.1795  1.3423
14689SOL    HW247022   5.104   3.564   0.348  0.2177 -2.1214 -0.1819
14690SOL     OW47023   1.270   5.117   7.954 -0.2805 -0.0074  0.5344
14690SOL    HW147024   1.224   5.191   7.993 -0.0284 -0.4125  1.6198
14690SOL    HW247025   1.303   5.151   7.871 -0.4294  1.0008  0.8767
14691SOL     OW47026   1.264   1.724   6.814 -0.2004 -0.4292 -0.2172
14691SOL    HW147027   1.266   1.662   6.887  0.5216  0.0547  0.1971
14691SOL    HW247028   1.276   1.810   6.856 -0.7731 -0.0449 -0.8144
14692SOL     OW47029   4.443   5.971   3.487 -0.4426  0.4065  0.0603
14692SOL    HW147030   4.533   5.941   3.503  0.0986  1.3285 -1.0833
14692SOL    HW247031   4.395   5.944   3.565  0.8370 -0.0628  0.7276
14693SOL     OW47032   3.488   1.837   7.308 -0.4711  0.1933 -0.5369
14693SOL    HW147033   3.578   1.852   7.280  0.1090 -2.7389 -0.5417
14693SOL    HW247034   3.480   1.882   7.392  1.0034  0.4713 -0.5278
14694SOL     OW47035   0.802   6.573   5.550 -0.2096  0.0115  0.0852
14694SOL    HW147036   0.896   6.570   5.569 -0.1525  1.8679  0.3109
14694SOL    HW247037   0.768   6.492   5.588  1.3485 -0.9012 -0.3708
14695SOL     OW47038   6.714   8.050   1.092 -0.1737  0.0232  0.1391
14695SOL    HW147039   6.764   8.000   1.157  0.2356  0.1133 -0.1037
14695SOL    HW247040   6.705   7.990   1.018  0.6244  0.4358 -0.2898
14696SOL     OW47041   0.620   6.993   6.869  0.0642  0.5228  0.6186
14696SOL    HW147042   0.583   6.950   6.946  0.3813 -3.4330 -1.2309
14696SOL    HW247043   0.544   7.025   6.821 -0.3638  0.0298  0.9504
14697SOL     OW47044   0.891   1.354   6.833  0.4484  0.5585  0.7361
14697SOL    HW147045   0.897   1.323   6.924  1.8222  0.6758  0.7124
14697SOL    HW247046   0.818   1.305   6.795 -0.5318  0.9254  2.0529
14698SOL     OW47047   7.399   3.707   1.101  0.2769 -0.2100 -1.0250
14698SOL    HW147048   7.433   3.773   1.162  0.6008 -1.1083 -0.2071
14698SOL    HW247049   7.306   3.701   1.122  0.5015 -0.9715 -0.1372
14699SOL     OW47050   6.608   7.790   1.742  0.1482  0.1604 -0.3357
14699SOL    HW147051   6.587   7.843   1.818  1.5115  1.2176 -0.6600
14699SOL    HW247052   6.571   7.704   1.761  1.2784  0.1075  1.9477
14700SOL     OW47053   8.132   5.587   6.011 -0.1002  0.0944  0.2249
14700SOL    HW147054   8.148   5.676   6.042 -0.0337  0.5190 -0.9437
14700SOL    HW247055   8.207   5.568   5.954  0.8274 -1.4245  1.8814
14701SOL     OW47056   1.647   1.980   0.454  0.2371 -0.3311  0.2717
14701SOL    HW147057   1.644   2.076   0.447 -0.8315 -0.2560  1.5260
14701SOL    HW247058   1.711   1.954   0.388  0.0376  1.1941 -0.5718
14702SOL     OW47059   3.657   1.695   3.063 -1.2203 -0.2827  0.7516
14702SOL    HW147060   3.631   1.656   3.146 -1.1027  1.4250  1.6311
14702SOL    HW247061   3.578   1.741   3.032 -0.5422  1.2763  1.2561
14703SOL     OW47062   5.119   0.434   2.472 -0.0505  0.6720 -0.0200
14703SOL    HW147063   5.088   0.399   2.388 -0.1390 -0.9630  0.6593
14703SOL    HW247064   5.205   0.394   2.485  1.4590  3.3810 -0.7858
14704SOL     OW47065   4.982   0.264   5.786  0.4645  0.3671 -0.0380
14704SOL    HW147066   4.899   0.244   5.830  0.3051  1.9156  0.4620
14704SOL    HW247067   4.986   0.360   5.789  3.4848  0.3089  2.2829
14705SOL     OW47068   0.529   0.155   1.160 -0.4114  0.0532  0.4688
14705SOL    HW147069   0.448   0.207   1.163  0.1969  1.0147  0.5621
14705SOL    HW247070   0.499   0.067   1.137 -1.2818  0.8940 -2.0041
14706SOL     OW47071   2.195   2.260   4.201  1.0157  0.3394  0.0579
14706SOL    HW147072   2.144   2.336   4.230  1.3765  0.6380 -0.0813
14706SOL    HW247073   2.250   2.238   4.276 -0.0565 -0.6403  0.5878
14707SOL     OW47074   0.823   4.123   5.846 -0.2664  0.3506  0.2862
14707SOL    HW147075   0.894   4.140   5.783 -0.9550  1.3813 -0.2433
14707SOL    HW247076   0.759   4.193   5.829 -2.2130 -1.5130 -0.4146
14708SOL     OW47077   2.311   4.574   0.257 -0.4712  0.3515 -0.1436
14708SOL    HW147078   2.378   4.637   0.283 -0.6603  0.3852  0.2541
14708SOL    HW247079   2.345   4.490   0.287 -0.9406  0.4580  0.6922
14709SOL     OW47080   6.197   5.759   6.863 -0.4455  0.0743 -0.1286
14709SOL    HW147081   6.258   5.705   6.914  1.8594  2.4282 -0.1424
14709SOL    HW247082   6.112   5.740   6.901  0.8401 -0.1748  2.9750
14710SOL     OW47083   1.926   5.605   7.971 -0.4126 -0.6749 -0.4346
14710SOL    HW147084   1.899   5.515   7.993  1.4697 -0.8871  1.2847
14710SOL    HW247085   2.022   5.600   7.965 -0.3639  0.9818 -1.5709
14711SOL     OW47086   0.141   0.432   0.297 -0.3318  0.3579 -0.0977
14711SOL    HW147087   0.189   0.514   0.294 -0.8063  0.6355 -0.2448
14711SOL    HW247088   0.110   0.418   0.208  0.9911 -0.7463 -0.4089
14712SOL     OW47089   0.406   1.376   4.389 -0.2501 -0.6669  0.3080
14712SOL    HW147090   0.380   1.347   4.302 -1.2425  1.1405 -0.0507
14712SOL    HW247091   0.324   1.385   4.437  0.1751 -0.3686  0.9991
14713SOL     OW47092   4.279   3.913   7.145 -0.2700  0.0333  0.2805
14713SOL    HW147093   4.336   3.844   7.179 -0.6916  0.0627  1.0510
14713SOL    HW247094   4.326   3.947   7.068  0.7855  0.0941  0.9355
14714SOL     OW47095   5.240   1.442   1.089  0.4145 -0.0890 -0.0833
14714SOL    HW147096   5.258   1.367   1.146  3.9513 -0.3601 -1.3361
14714SOL    HW247097   5.199   1.507   1.147  0.7473 -1.5560  1.9159
14715SOL     OW47098   0.664   4.701   1.165 -0.7622  0.0557  0.2529
14715SOL    HW147099   0.727   4.768   1.194 -0.6133  0.4981 -1.0318
14715SOL    HW247100   0.692   4.622   1.211  0.8756  0.1962 -0.4191
14716SOL     OW47101   5.817   4.192   7.435 -0.1423  0.1131  0.4288
14716SOL    HW147102   5.844   4.281   7.458 -0.0876 -0.2048  1.6900
14716SOL    HW247103   5.735   4.204   7.387  1.4172  1.0068 -2.2316
14717SOL     OW47104   4.142   4.914   1.863 -0.2009 -0.5612  0.0038
14717SOL    HW147105   4.088   4.835   1.872 -0.4560 -0.3649  0.2277
14717SOL    HW247106   4.232   4.881   1.862 -0.2848 -0.8218  0.5329
14718SOL     OW47107   7.540   2.287   4.275 -0.2387 -0.6713 -0.1503
14718SOL    HW147108   7.558   2.204   4.320 -3.3355 -1.9543 -1.0355
14718SOL    HW247109   7.451   2.309   4.300 -0.4187  0.9986 -2.0290
14719SOL     OW47110   6.698   2.921   0.155 -0.3760 -0.4994  0.1235
14719SOL    HW147111   6.619   2.867   0.155 -0.6398 -0.1285 -0.2830
14719SOL    HW247112   6.735   2.908   0.068 -0.2242 -0.3374  0.1640
14720SOL     OW47113   0.250   5.306   6.176  0.4610 -0.1332 -0.0927
14720SOL    HW147114   0.309   5.374   6.144  0.9010  1.4308  3.4602
14720SOL    HW247115   0.308   5.244   6.221 -0.3345  0.5632  2.0309
14721SOL     OW47116   8.013   1.212   1.008  0.1017  0.4238 -0.3810
14721SOL    HW147117   8.087   1.184   1.062 -1.1003  1.1704  1.8057
14721SOL    HW247118   7.963   1.133   0.993 -0.6232  0.4917  1.4389
14722SOL     OW47119   6.936   1.310   7.363 -0.4132  0.0988  0.0007
14722SOL    HW147120   6.938   1.375   7.292 -1.5961  0.3677  0.2004
14722SOL    HW247121   6.959   1.228   7.319 -0.3742  0.3891 -0.5405
14723SOL     OW47122   1.052   0.550   7.211  0.0387 -0.1317 -0.4958
14723SOL    HW147123   1.028   0.511   7.294  1.2448  0.2364  0.0542
14723SOL    HW247124   0.995   0.627   7.203  0.3721  0.2140  0.3265
14724SOL     OW47125   1.657   2.159   3.627  0.0197  0.2322 -0.6198
14724SOL    HW147126   1.632   2.128   3.540 -0.0237  1.1907 -0.9561
14724SOL    HW247127   1.660   2.080   3.680 -2.2690 -0.1076 -0.9162
14725SOL     OW47128   0.544   7.396   3.119 -0.5806  0.1739  0.4804
14725SOL    HW147129   0.540   7.352   3.204 -3.4049  0.4349  0.5682
14725SOL    HW247130   0.602   7.470   3.133 -1.1814  0.3522  2.2786
14726SOL     OW47131   2.369   3.592   0.981  0.3410 -0.3357  0.2201
14726SOL    HW147132   2.295   3.606   0.922 -0.0941  1.3158  1.1108
14726SOL    HW247133   2.425   3.669   0.967  0.9845 -0.6808  0.8638
14727SOL     OW47134   7.759   6.544   5.019 -0.7676  0.0774 -0.4235
14727SOL    HW147135   7.686   6.499   4.978  0.3613 -2.0031 -0.2624
14727SOL    HW247136   7.817   6.474   5.050  1.2612  1.6269 -0.4888
14728SOL     OW47137   3.621   5.249   3.497 -0.1730 -0.2971 -0.2278
14728SOL    HW147138   3.660   5.188   3.434  0.9984 -0.5773  0.7258
14728SOL    HW247139   3.681   5.323   3.498 -0.0669 -0.3887  0.7044
14729SOL     OW47140   4.661   3.599   5.408 -0.8918 -0.6800 -0.1848
14729SOL    HW147141   4.757   3.605   5.418 -1.0801  1.9517  0.8266
14729SOL    HW247142   4.646   3.606   5.314 -0.1155  0.5634 -0.2472
14730SOL     OW47143   2.789   5.544   0.977 -0.2445  0.7418 -0.0950
14730SOL    HW147144   2.882   5.532   0.958  0.3555  3.2731  0.8654
14730SOL    HW247145   2.746   5.470   0.934  2.3746 -1.7206  1.1796
14731SOL     OW47146   6.435   3.716   3.983  0.1648  0.7751  0.1878
14731SOL    HW147147   6.399   3.677   4.063 -0.8461 -1.2468 -1.1637
14731SOL    HW247148   6.466   3.641   3.932  0.1974  1.9485 -1.5872
14732SOL     OW47149   4.487   4.931   1.610  0.3933 -0.3206 -0.1175
14732SOL    HW147150   4.461   4.887   1.528  0.6860  1.0276 -0.9695
14732SOL    HW247151   4.570   4.974   1.588  0.4573  0.0974  0.8995
14733SOL     OW47152   2.782   3.096   3.112  0.4608 -0.9011  0.0929
14733SOL    HW147153   2.863   3.117   3.066 -1.5454  1.2444 -2.8295
14733SOL    HW247154   2.764   3.175   3.164 -0.7058 -0.5228 -0.8511
14734SOL     OW47155   6.077   0.591   0.681  0.4206  0.4896  0.3705
14734SOL    HW147156   6.056   0.660   0.745  0.1704  1.3141 -0.5777
14734SOL    HW247157   6.072   0.635   0.596  0.6299 -0.6222 -0.2309
14735SOL     OW47158   4.210   5.112   4.974 -0.0950  0.0356  0.0661
14735SOL    HW147159   4.226   5.176   5.044  3.8992  0.9041 -1.4159
14735SOL    HW247160   4.167   5.163   4.905 -0.6723  0.0614  0.4307
14736SOL     OW47161   4.722   1.447   1.060  0.0968  0.5702  0.1682
14736SOL    HW147162   4.650   1.510   1.065 -0.3415 -0.0035  2.0150
14736SOL    HW247163   4.779   1.480   0.991 -1.6700  1.3203 -0.9888
14737SOL     OW47164   1.599   6.231   4.201  0.1578  0.2049  0.3141
14737SOL    HW147165   1.625   6.251   4.111  0.8656 -3.1324 -0.3587
14737SOL    HW247166   1.507   6.207   4.195  0.6943 -2.0033  0.0082
14738SOL     OW47167   7.750   0.226   5.955  0.0389 -0.2070  0.0537
14738SOL    HW147168   7.764   0.293   5.887  0.6899 -1.5207 -1.1730
14738SOL    HW247169   7.739   0.145   5.905 -2.9729 -0.7217  1.3731
14739SOL     OW47170   4.121   6.346   5.491 -0.0689  0.4884 -0.2283
14739SOL    HW147171   4.030   6.368   5.471 -0.0592  0.1212 -0.6690
14739SOL    HW247172   4.116   6.270   5.549 -0.1511  2.3205  2.3224
14740SOL     OW47173   3.159   4.978   2.085  0.1629 -0.1001  0.0545
14740SOL    HW147174   3.226   4.933   2.136  0.1571  1.8059  1.9334
14740SOL    HW247175   3.208   5.031   2.022  0.1986 -1.9577 -1.5399
14741SOL     OW47176   4.193   6.687   7.176 -0.3069 -0.5327  0.5668
14741SOL    HW147177   4.247   6.765   7.166  1.1247 -1.5017  0.5011
14741SOL    HW247178   4.136   6.687   7.099  0.1951  0.0351  0.1869
14742SOL     OW47179   2.300   2.440   7.360 -0.2277  0.3135 -0.2429
14742SOL    HW147180   2.386   2.443   7.319  0.2733 -3.4666  0.2197
14742SOL    HW247181   2.247   2.386   7.302 -1.2739 -0.2003  1.1223
14743SOL     OW47182   8.134   7.904   5.775  0.3752  0.0528  0.0700
14743SOL    HW147183   8.203   7.837   5.778  1.0811  0.7679  0.0522
14743SOL    HW247184   8.177   7.982   5.740 -0.8786  0.0188 -1.6448
14744SOL     OW47185   4.483   4.255   5.186  0.5754  0.2515 -0.0247
14744SOL    HW147186   4.486   4.219   5.275 -1.0316 -1.0329 -0.4415
14744SOL    HW247187   4.557   4.316   5.182  0.5652  0.4880  2.2454
14745SOL     OW47188   4.154   6.920   1.652 -0.0507 -0.1494  0.3334
14745SOL    HW147189   4.140   7.013   1.674 -1.0987  0.1250 -1.3034
14745SOL    HW247190   4.067   6.888   1.629  0.4413 -1.3065  0.0321
14746SOL     OW47191   1.049   7.314   7.805  0.3254  0.0549 -0.4774
14746SOL    HW147192   1.004   7.384   7.759 -0.3724 -1.2590 -1.9114
14746SOL    HW247193   1.009   7.312   7.891 -0.2325  0.8618 -0.7089
14747SOL     OW47194   6.053   8.108   3.323  0.6489  0.2068  0.4549
14747SOL    HW147195   6.021   8.127   3.411 -0.9162  0.1204 -0.0617
14747SOL    HW247196   6.026   8.185   3.272 -0.2325 -0.6060 -0.3443
14748SOL     OW47197   3.046   3.015   4.319  0.5023  0.6939 -0.2242
14748SOL    HW147198   3.122   2.980   4.366  0.4121 -1.6043 -1.6453
14748SOL    HW247199   2.995   2.938   4.295 -2.0710  2.1293  0.2188
14749SOL     OW47200   3.551   2.134   4.670 -0.0477  0.0378  0.1722
14749SOL    HW147201   3.607   2.147   4.747  0.1593 -0.6100  0.1365
14749SOL    HW247202   3.611   2.142   4.596 -0.4051  1.5801  0.0145
14750SOL     OW47203   4.866   0.305   4.825  0.1719 -0.2266 -0.4057
14750SOL    HW147204   4.820   0.302   4.741 -0.7313  0.6960  0.0248
14750SOL    HW247205   4.857   0.217   4.861 -1.9902  0.1004  0.0098
14751SOL     OW47206   2.508   6.426   0.048 -0.2042 -0.4165  0.1222
14751SOL    HW147207   2.524   6.373   0.126 -0.4677 -1.3144 -0.4158
14751SOL    HW247208   2.588   6.415  -0.005  0.7170  1.5728  0.9971
14752SOL     OW47209   1.309   0.850   3.001  0.2627 -0.0223  0.1561
14752SOL    HW147210   1.372   0.781   3.021  1.0827  0.4743 -0.6325
14752SOL    HW247211   1.253   0.854   3.078  2.4957  0.9682  1.8589
14753SOL     OW47212   0.420   7.873   1.948 -0.0362  0.0413  0.4079
14753SOL    HW147213   0.475   7.925   1.890  0.7786  0.2635  1.3391
14753SOL    HW247214   0.407   7.929   2.025 -2.1068  0.2451 -0.0297
14754SOL     OW47215   1.405   3.102   5.220  0.2230 -0.0296  0.1675
14754SOL    HW147216   1.343   3.058   5.162  0.8412 -1.5768  0.6134
14754SOL    HW247217   1.354   3.124   5.298 -0.0941 -0.0104 -0.0455
14755SOL     OW47218   5.466   8.074   1.056 -0.0072  0.1403  0.1008
14755SOL    HW147219   5.429   7.997   1.014  0.8817 -0.6918  0.7928
14755SOL    HW247220   5.463   8.054   1.150 -0.3310  1.2081  0.3298
14756SOL     OW47221   2.227   1.233   6.905 -0.5785 -0.1181  0.0075
14756SOL    HW147222   2.185   1.273   6.981  2.4297 -1.0433  2.3468
14756SOL    HW247223   2.264   1.307   6.857 -0.5967  0.3634  0.7176
14757SOL     OW47224   1.089   0.835   2.392 -0.0219  0.4782  0.7063
14757SOL    HW147225   1.181   0.848   2.416  0.5228 -0.7079 -0.6342
14757SOL    HW247226   1.047   0.805   2.473  0.7437  1.0446  1.3357
14758SOL     OW47227   3.203   0.969   3.797 -0.1539 -0.3650  0.2955
14758SOL    HW147228   3.292   0.991   3.826  0.1114  2.4829 -2.2587
14758SOL    HW247229   3.212   0.948   3.704 -1.9526 -1.8779  0.4002
14759SOL     OW47230   6.209   1.191   4.916 -0.5996 -0.3438 -0.2650
14759SOL    HW147231   6.241   1.281   4.926 -0.7588 -0.1436 -1.4773
14759SOL    HW247232   6.219   1.172   4.823 -1.0355 -1.4074 -0.1003
14760SOL     OW47233   7.325   4.077   2.027 -0.2175 -0.2605 -0.0060
14760SOL    HW147234   7.336   4.097   1.934  0.3437  2.0477  0.4950
14760SOL    HW247235   7.383   4.002   2.042 -0.7634 -1.0506 -1.6007
14761SOL     OW47236   2.272   7.244   5.710  0.3055 -0.2019 -0.1571
14761SOL    HW147237   2.195   7.247   5.766  1.5349 -3.9516  2.1465
14761SOL    HW247238   2.243   7.196   5.633 -0.2514  0.7421 -0.5494
14762SOL     OW47239   1.469   5.974   5.555  0.2975  0.4032 -0.0067
14762SOL    HW147240   1.453   5.960   5.649  1.4882  0.0643  0.1723
14762SOL    HW247241   1.555   6.017   5.552  0.3083  0.3329 -0.9461
14763SOL     OW47242   3.531   2.008   0.053  0.7335 -0.1519  0.2484
14763SOL    HW147243   3.486   1.952  -0.011 -2.1396  2.2406 -0.0717
14763SOL    HW247244   3.504   1.973   0.138 -0.5945  0.3178  0.0545
14764SOL     OW47245   0.382   2.970   6.374 -0.0678 -0.1697 -0.0771
14764SOL    HW147246   0.451   3.036   6.364  1.9005 -2.1144 -0.0520
14764SOL    HW247247   0.384   2.946   6.467 -0.7193 -0.3113 -0.0936
14765SOL     OW47248   0.320   7.942   4.757  0.2569  0.3149  0.4871
14765SOL    HW147249   0.374   8.015   4.727 -0.0194  0.1061 -0.5510
14765SOL    HW247250   0.382   7.870   4.769  0.2495  0.1283 -0.5221
14766SOL     OW47251   0.989   1.518   6.411 -0.5990 -0.1603 -0.4000
14766SOL    HW147252   1.028   1.599   6.381  1.8257 -0.2976  2.0317
14766SOL    HW247253   0.928   1.544   6.481 -1.0584 -0.3412 -0.7227
14767SOL     OW47254   3.403   1.814   1.158 -0.5843  0.2731  0.1597
14767SOL    HW147255   3.317   1.814   1.200 -0.4332 -2.0568  0.5892
14767SOL    HW247256   3.458   1.762   1.216  0.0576 -1.6851 -2.0660
14768SOL     OW47257   6.609   0.573   3.120  0.4368 -0.6790  0.0450
14768SOL    HW147258   6.522   0.552   3.087 -0.3771  0.9702  0.9653
14768SOL    HW247259   6.605   0.550   3.213  1.4805 -1.8965 -0.1816
14769SOL     OW47260   4.034   6.801   1.975  0.1337  0.2882 -0.3625
14769SOL    HW147261   4.113   6.784   1.924  0.5001  0.5023  0.1229
14769SOL    HW247262   4.021   6.721   2.027  0.9770  0.8622  0.7738
14770SOL     OW47263   1.519   3.215   7.120 -0.7528 -0.4119  0.0925
14770SOL    HW147264   1.471   3.266   7.184 -0.9082  0.6192 -0.8272
14770SOL    HW247265   1.474   3.130   7.117 -1.5701  0.0088  0.3538
14771SOL     OW47266   0.012   4.729   3.816 -0.0211 -0.0528  0.6150
14771SOL    HW147267   0.050   4.758   3.899  0.4646  0.5715  0.1837
14771SOL    HW247268   0.065   4.772   3.749 -2.1956  1.8922 -0.0094
14772SOL     OW47269   3.150   3.332   5.242 -0.4731  0.0094 -0.2584
14772SOL    HW147270   3.163   3.329   5.147  0.1416 -0.1692 -0.1772
14772SOL    HW247271   3.238   3.320   5.278 -0.7856 -0.5418  0.3443
14773SOL     OW47272   5.597   2.591   0.959 -0.5810  0.1110 -0.1297
14773SOL    HW147273   5.640   2.676   0.960 -1.3498  0.5085 -0.3328
14773SOL    HW247274   5.613   2.555   1.047  1.3121 -0.3586 -0.6206
14774SOL     OW47275   5.803   5.041   1.481  0.3291 -0.0527  0.0031
14774SOL    HW147276   5.779   4.954   1.511 -3.0429  0.7670  0.0832
14774SOL    HW247277   5.807   5.094   1.561  0.5215  0.2483 -0.2019
14775SOL     OW47278   1.212   7.332   5.963 -0.1660 -0.0412  0.6118
14775SOL    HW147279   1.127   7.312   5.924 -0.0798  2.4786 -1.1272
14775SOL    HW247280   1.274   7.323   5.891  0.9354 -1.0649  1.6668
14776SOL     OW47281   7.847   0.514   4.792 -0.3790  0.5695 -0.7649
14776SOL    HW147282   7.836   0.442   4.731  2.7385 -1.5343  0.8969
14776SOL    HW247283   7.922   0.563   4.759 -0.9278  1.6063 -0.5299
14777SOL     OW47284   6.223   1.598   2.056  0.0129 -0.0036 -0.6451
14777SOL    HW147285   6.220   1.694   2.054  0.7982  0.0051 -1.6507
14777SOL    HW247286   6.219   1.571   1.965  2.0227 -0.8410 -0.5440
14778SOL     OW47287   4.699   0.580   2.312 -0.3611  0.3391 -0.5106
14778SOL    HW147288   4.762   0.582   2.240 -1.1903  0.1078 -1.2640
14778SOL    HW247289   4.751   0.597   2.390  0.2838  2.6224 -1.3573
14779SOL     OW47290   0.766   7.067   1.843  0.0756  0.3574 -0.1157
14779SOL    HW147291   0.767   7.114   1.760 -0.0176 -0.3692 -0.5446
14779SOL    HW247292   0.678   7.079   1.877 -0.4004 -0.6618 -0.9209
14780SOL     OW47293   3.851   7.697   1.804  0.0428 -0.4187  0.7188
14780SOL    HW147294   3.903   7.741   1.737 -0.0556 -2.4836 -0.8070
14780SOL    HW247295   3.763   7.731   1.792  0.0546 -0.6543 -0.1383
14781SOL     OW47296   1.619   1.690   8.050  0.2221 -0.1677 -0.4095
14781SOL    HW147297   1.579   1.651   8.128 -1.3417  1.7283 -0.2081
14781SOL    HW247298   1.676   1.759   8.085  0.4375 -0.0971 -0.8990
14782SOL     OW47299   3.332   5.119   4.861  0.4729  0.4440  0.0458
14782SOL    HW147300   3.426   5.126   4.872  0.4621  0.8113 -0.0809
14782SOL    HW247301   3.300   5.090   4.946  0.6965  0.3418  0.0948
14783SOL     OW47302   5.079   1.092   4.305  0.3819 -0.2749 -0.7337
14783SOL    HW147303   5.087   1.042   4.223 -2.1587 -1.4510 -0.3680
14783SOL    HW247304   4.998   1.060   4.344  0.4093  1.8104  1.2150
14784SOL     OW47305   6.614   1.359   5.747  0.0024  1.0184  0.1453
14784SOL    HW147306   6.523   1.383   5.731 -0.2352 -0.7324 -1.5794
14784SOL    HW247307   6.661   1.387   5.668  0.5561  0.1199  0.1402
14785SOL     OW47308   5.648   3.874   4.110 -0.6824 -0.0693 -1.0070
14785SOL    HW147309   5.720   3.847   4.166 -0.4934  1.0335 -0.6922
14785SOL    HW247310   5.569   3.849   4.158 -0.5271  1.0680 -0.1168
14786SOL     OW47311   5.270   5.359   6.633 -0.0242 -0.6112  0.0612
14786SOL    HW147312   5.281   5.330   6.542  0.2309 -0.4506  0.0399
14786SOL    HW247313   5.325   5.299   6.684  0.0853 -0.5004  0.0741
14787SOL     OW47314   3.327   3.178   7.998  0.0166 -0.0322 -0.8443
14787SOL    HW147315   3.338   3.085   8.014  2.3229 -0.0313 -1.9772
14787SOL    HW247316   3.401   3.219   8.042 -1.5481  1.4360  0.5677
14788SOL     OW47317   8.103   5.049   7.290  0.1426  0.0179 -0.5590
14788SOL    HW147318   8.090   5.139   7.321  0.6337 -0.3630  0.8347
14788SOL    HW247319   8.106   4.997   7.370  0.3917 -1.1758 -1.3279
14789SOL     OW47320   3.377   3.183   1.662 -0.3517 -0.1709  0.2782
14789SOL    HW147321   3.437   3.115   1.632 -1.4686 -2.6188  3.0735
14789SOL    HW247322   3.433   3.247   1.706  0.5637 -0.0987 -0.9418
14790SOL     OW47323   2.857   7.445   7.680 -0.2057 -0.3523  0.3173
14790SOL    HW147324   2.791   7.511   7.662 -1.1717 -1.5043 -0.5402
14790SOL    HW247325   2.933   7.494   7.711 -0.5151  1.2448 -1.3192
14791SOL     OW47326   3.872   5.055   4.466  0.0390 -0.1340  0.1165
14791SOL    HW147327   3.949   5.110   4.471  0.5737 -0.9948  2.0970
14791SOL    HW247328   3.877   4.998   4.543 -1.6051 -1.4727 -0.6913
14792SOL     OW47329   1.141   3.034   6.730 -0.2475 -0.5963  0.2372
14792SOL    HW147330   1.059   3.028   6.778 -0.2788 -0.3565  0.2109
14792SOL    HW247331   1.134   3.113   6.677 -1.1582 -1.9874 -1.9072
14793SOL     OW47332   5.571   0.956   2.379 -0.4087  0.3210 -0.0765
14793SOL    HW147333   5.566   0.950   2.475 -2.1464  0.8401 -0.1061
14793SOL    HW247334   5.537   0.872   2.349 -0.6284  0.4728 -0.2492
14794SOL     OW47335   0.033   3.727   1.836  0.2761  0.1772  0.0829
14794SOL    HW147336   0.074   3.641   1.825 -0.1485  0.0393 -0.4795
14794SOL    HW247337   0.054   3.774   1.756  0.4374  0.5687  0.3545
14795SOL     OW47338   5.773   5.189   4.654  0.6546 -0.0019 -0.2051
14795SOL    HW147339   5.752   5.113   4.708 -0.2363  0.0096 -0.5213
14795SOL    HW247340   5.772   5.156   4.565  0.3864  0.3556 -0.3348
14796SOL     OW47341   6.196   1.531   7.519 -0.5073 -0.3091 -0.5520
14796SOL    HW147342   6.223   1.443   7.493 -1.6372  0.2266 -4.1585
14796SOL    HW247343   6.135   1.558   7.450 -1.9741  2.4619  1.6430
14797SOL     OW47344   5.141   5.762   7.795  0.3323 -0.7390  0.2400
14797SOL    HW147345   5.121   5.760   7.888  1.4889 -1.1665  0.4925
14797SOL    HW247346   5.071   5.710   7.754  0.6598 -1.8450  1.0390
14798SOL     OW47347   2.208   0.245   4.818 -0.3556 -0.5856  0.3263
14798SOL    HW147348   2.127   0.204   4.787 -1.6495  2.3452 -0.4270
14798SOL    HW247349   2.192   0.263   4.911 -0.1522 -0.8705  0.4208
14799SOL     OW47350   2.852   2.894   7.082 -0.2913 -0.3972 -0.1991
14799SOL    HW147351   2.757   2.897   7.067 -0.3323  1.3594  0.1710
14799SOL    HW247352   2.891   2.900   6.995 -0.5350  0.6090 -0.2491
14800SOL     OW47353   1.622   5.901   4.344  0.3229 -0.5399 -0.9477
14800SOL    HW147354   1.703   5.947   4.323 -0.3144  0.5419 -1.0951
14800SOL    HW247355   1.649   5.831   4.404  1.3316 -0.0771 -0.8378
14801SOL     OW47356   1.464   3.776   1.541 -0.6734  0.4980  0.3169
14801SOL    HW147357   1.397   3.748   1.479  1.3226  0.5001 -1.9455
14801SOL    HW247358   1.467   3.706   1.606 -2.8110  0.4961  0.4811
14802SOL     OW47359   6.355   3.182   4.056 -0.2310 -0.4261  0.3103
14802SOL    HW147360   6.278   3.127   4.071 -0.7811  0.3678  0.5390
14802SOL    HW247361   6.325   3.247   3.991  1.1483 -1.8860 -1.9398
14803SOL     OW47362   6.848   0.869   7.215 -0.0854 -0.3505  0.0495
14803SOL    HW147363   6.769   0.902   7.258  0.3519 -0.0247  0.6200
14803SOL    HW247364   6.863   0.784   7.256  1.9653  1.1414  2.7789
14804SOL     OW47365   4.812   7.480   4.671 -0.1112  0.4202  0.1784
14804SOL    HW147366   4.799   7.510   4.761  0.8538  1.7792 -0.1030
14804SOL    HW247367   4.848   7.556   4.625 -1.4305  0.0617 -1.5862
14805SOL     OW47368   6.169   1.889   1.090  0.5069 -0.3619  0.3023
14805SOL    HW147369   6.124   1.859   1.011 -1.5841  2.9558  0.0310
14805SOL    HW247370   6.106   1.876   1.160  0.2038  1.4955  0.4463
14806SOL     OW47371   6.738   7.552   5.253  0.3168  0.4438 -0.5370
14806SOL    HW147372   6.803   7.612   5.216 -0.1419  0.4576 -1.3574
14806SOL    HW247373   6.664   7.608   5.275  1.1688  0.6910  1.9667
14807SOL     OW47374   0.921   1.733   7.704 -0.8195  0.6538 -0.2436
14807SOL    HW147375   0.933   1.667   7.771  2.9401  0.3348 -1.0200
14807SOL    HW247376   0.924   1.684   7.621 -0.0722  1.5335 -0.7591
14808SOL     OW47377   3.837   4.607   3.475 -0.4543 -0.3657  0.1502
14808SOL    HW147378   3.750   4.590   3.438 -0.6527 -0.2430  0.5621
14808SOL    HW247379   3.838   4.560   3.558 -0.5994  0.6937  0.7623
14809SOL     OW47380   4.150   0.187   5.896 -0.0196  0.3352  0.2413
14809SOL    HW147381   4.100   0.108   5.879  1.3530 -0.1748 -1.6018
14809SOL    HW247382   4.146   0.237   5.815 -0.4695  1.9900  1.2111
14810SOL     OW47383   4.971   3.327   0.054  0.1088  0.0891 -0.1561
14810SOL    HW147384   5.024   3.402   0.079  2.0732 -1.4770  0.7313
14810SOL    HW247385   4.925   3.355  -0.025  0.2835  2.3942  0.4990
14811SOL     OW47386   2.435   2.507   5.162 -0.0118 -0.3668 -0.6105
14811SOL    HW147387   2.493   2.581   5.144 -0.6269  0.8072  1.7136
14811SOL    HW247388   2.359   2.522   5.106 -0.2117  0.9089 -0.0271
14812SOL     OW47389   5.201   6.835   4.216 -0.3155  0.2457 -0.3331
14812SOL    HW147390   5.217   6.910   4.158 -0.7646  0.7863  0.2237
14812SOL    HW247391   5.175   6.764   4.157  0.4732  0.4186 -0.9021
14813SOL     OW47392   0.535   6.570   6.901 -0.1000 -0.1283 -0.0676
14813SOL    HW147393   0.468   6.637   6.888  0.4734  0.6631  0.8186
14813SOL    HW247394   0.488   6.487   6.897 -0.9956  0.3766 -0.2540
14814SOL     OW47395   4.609   0.123   2.375  0.1281 -0.1079 -0.0200
14814SOL    HW147396   4.527   0.128   2.424  0.0020 -2.6775  0.1757
14814SOL    HW247397   4.677   0.127   2.442  0.1419  0.6571 -0.0654
14815SOL     OW47398   5.461   0.405   0.232 -0.0738  0.1513 -0.0370
14815SOL    HW147399   5.470   0.449   0.148  0.7731  0.0933  0.0196
14815SOL    HW247400   5.521   0.452   0.291 -0.5284  0.0834  0.4932
14816SOL     OW47401   0.567   3.471   1.455 -0.1979 -0.3904  0.2699
14816SOL    HW147402   0.632   3.415   1.413 -0.4666 -0.2809 -0.3029
14816SOL    HW247403   0.577   3.556   1.412  0.6215  0.1902  1.5472
14817SOL     OW47404   7.072   1.545   1.160 -0.2772 -0.2023 -0.2084
14817SOL    HW147405   7.075   1.623   1.104 -0.5720 -0.7222 -0.9643
14817SOL    HW247406   6.996   1.559   1.217 -0.6742 -0.2023 -0.7355
14818SOL     OW47407   6.397   0.493   4.096 -0.5335 -0.1917  0.0103
14818SOL    HW147408   6.363   0.404   4.101 -0.8529 -0.0826 -0.1213
14818SOL    HW247409   6.355   0.530   4.018 -0.6149  0.1588  0.2166
14819SOL     OW47410   3.301   2.029   4.074 -0.0639  0.0499  0.4834
14819SOL    HW147411   3.229   2.092   4.080 -0.2782 -0.2813  1.5790
14819SOL    HW247412   3.265   1.948   4.108  0.6701 -0.2585  0.5436
14820SOL     OW47413   1.024   3.241   7.036 -0.3663  0.0302 -0.3861
14820SOL    HW147414   1.053   3.322   7.077 -0.5358  0.3353 -0.8588
14820SOL    HW247415   0.966   3.269   6.965 -2.1324 -0.5607  0.7657
14821SOL     OW47416   2.130   6.811   4.059 -0.1936  0.0245 -0.0417
14821SOL    HW147417   2.219   6.849   4.057  0.0920 -0.5743  0.7398
14821SOL    HW247418   2.132   6.743   3.992 -0.8483  1.6104 -1.7861
14822SOL     OW47419   6.924   5.705   3.687  0.4436 -0.5224 -0.3083
14822SOL    HW147420   6.900   5.643   3.756  2.3584 -1.6131 -0.5468
14822SOL    HW247421   7.015   5.728   3.707  0.8187 -0.3495 -2.0975
14823SOL     OW47422   7.027   2.979   0.281  0.2585 -0.2623 -0.0960
14823SOL    HW147423   7.019   3.053   0.221 -1.4718 -2.4477 -2.7748
14823SOL    HW247424   7.097   2.925   0.244 -0.0570 -1.1173  0.5195
14824SOL     OW47425   4.319   0.020   6.327  0.2684  0.0260 -0.2007
14824SOL    HW147426   4.341  -0.051   6.387 -0.7980 -0.7410 -0.6793
14824SOL    HW247427   4.390   0.083   6.337  0.1928 -0.1452  1.7390
14825SOL     OW47428   5.937   0.386   0.361  0.3135  0.4787  0.0768
14825SOL    HW147429   5.916   0.312   0.303  1.0879 -0.2255  0.6822
14825SOL    HW247430   6.023   0.416   0.330 -0.1642  1.3879 -0.4120
14826SOL     OW47431   7.211   5.911   4.865 -0.0291  0.0535  0.0722
14826SOL    HW147432   7.201   6.002   4.840  0.3705  0.4129  1.1402
14826SOL    HW247433   7.306   5.896   4.864  0.2622  0.7636  3.3824
14827SOL     OW47434   1.689   1.821   7.586  0.4753 -0.1696 -0.1071
14827SOL    HW147435   1.721   1.911   7.600  0.1935 -0.2915  1.4926
14827SOL    HW247436   1.768   1.767   7.591  0.7552  0.0324 -1.8456
14828SOL     OW47437   3.151   6.744   3.919 -0.4012 -0.3251  0.3627
14828SOL    HW147438   3.134   6.813   3.983 -1.3554  0.0128 -0.2162
14828SOL    HW247439   3.083   6.679   3.936 -0.6125 -0.2733 -0.2197
14829SOL     OW47440   3.319   0.206   0.206  0.0684 -0.7630 -0.2542
14829SOL    HW147441   3.353   0.206   0.116 -0.1209  0.0324 -0.3372
14829SOL    HW247442   3.236   0.159   0.200 -1.0432  1.1618 -0.9664
14830SOL     OW47443   7.760   3.559   0.161  0.4139  0.2488 -0.4499
14830SOL    HW147444   7.740   3.494   0.229 -0.3448  0.2499 -0.6717
14830SOL    HW247445   7.680   3.565   0.109 -0.1515  2.6222  0.5801
14831SOL     OW47446   2.078   7.710   4.902 -0.3245 -0.2336  0.0037
14831SOL    HW147447   2.075   7.646   4.831 -0.9642  0.7652 -0.9009
14831SOL    HW247448   2.011   7.775   4.879 -0.0657  0.4801  1.1694
14832SOL     OW47449   7.434   6.198   3.837  0.3773 -0.4587 -0.7428
14832SOL    HW147450   7.519   6.200   3.882 -0.3566  1.7078  0.7153
14832SOL    HW247451   7.442   6.127   3.773  2.1721 -2.4153  1.4860
14833SOL     OW47452   4.975   2.932   6.041 -0.0017 -0.0392 -0.3758
14833SOL    HW147453   4.993   3.021   6.071  0.2305 -0.0517 -0.4757
14833SOL    HW247454   5.056   2.884   6.059 -0.0813 -0.2001 -0.4415
14834SOL     OW47455   6.356   6.738   1.447 -0.1384 -0.4328 -0.2131
14834SOL    HW147456   6.383   6.746   1.355  0.4601  0.7123  0.0455
14834SOL    HW247457   6.261   6.722   1.442 -0.4445  1.3642 -1.0227
14835SOL     OW47458   6.292   3.372   7.836 -0.2886  0.1900 -0.5109
14835SOL    HW147459   6.268   3.446   7.891 -0.6808  1.1066 -1.8476
14835SOL    HW247460   6.352   3.409   7.770  0.5680 -0.9666 -0.4211
14836SOL     OW47461   7.225   0.405   6.146  0.7660 -0.3507 -0.1349
14836SOL    HW147462   7.254   0.473   6.206 -0.2683  0.4644 -0.5342
14836SOL    HW247463   7.305   0.357   6.123  1.2732 -0.2895  1.3840
14837SOL     OW47464   4.779   0.979   7.023  0.4452 -0.1905 -0.1016
14837SOL    HW147465   4.847   1.030   7.066  2.4006 -3.2157  0.7304
14837SOL    HW247466   4.808   0.973   6.932 -0.5449  1.2745 -0.5425
14838SOL     OW47467   1.116   1.201   1.021  0.9704 -0.4855  0.6026
14838SOL    HW147468   1.120   1.295   1.039  0.5416 -0.3450 -0.0162
14838SOL    HW247469   1.043   1.190   0.960 -0.9559 -1.6186  2.9777
14839SOL     OW47470   4.633   5.252   2.676 -0.0815  0.1535  0.0403
14839SOL    HW147471   4.647   5.191   2.749  1.9233 -0.2199 -0.5734
14839SOL    HW247472   4.707   5.313   2.682  0.5138 -0.2673 -1.9991
14840SOL     OW47473   2.365   0.011   6.775  0.3543  0.5875 -0.3957
14840SOL    HW147474   2.432   0.067   6.814  0.1162 -0.8108  2.2405
14840SOL    HW247475   2.410  -0.071   6.756  0.0505  0.6628 -1.5098
14841SOL     OW47476   4.706   4.697   3.859 -0.0561 -0.2957  0.2369
14841SOL    HW147477   4.753   4.704   3.942  0.9513 -0.3325 -0.3134
14841SOL    HW247478   4.755   4.752   3.798 -1.0392  0.0940 -0.2411
14842SOL     OW47479   0.891   0.102   5.471 -0.1590 -0.0356 -0.0318
14842SOL    HW147480   0.803   0.113   5.506 -1.2815 -1.6730 -2.0857
14842SOL    HW247481   0.944   0.077   5.547 -1.8706 -0.8395  0.9654
14843SOL     OW47482   0.629   0.125   7.513  0.1087  0.7677  0.4064
14843SOL    HW147483   0.617   0.134   7.608  0.6359 -0.6107  0.6194
14843SOL    HW247484   0.692   0.054   7.503  0.0398  0.8742 -0.9889
14844SOL     OW47485   1.284   0.357   3.322  0.6826 -0.2468 -0.3367
14844SOL    HW147486   1.245   0.313   3.246 -0.4139  0.4446 -0.2033
14844SOL    HW247487   1.268   0.297   3.395 -2.2045  0.9296  0.1482
14845SOL     OW47488   4.868   1.063   3.935  0.0474  0.0340 -0.1885
14845SOL    HW147489   4.941   1.081   3.995 -0.3346 -0.1501  0.3451
14845SOL    HW247490   4.892   0.981   3.892  1.0291  0.9367 -1.4152
14846SOL     OW47491   7.714   2.488   4.410  0.4436 -0.4504 -0.0524
14846SOL    HW147492   7.696   2.545   4.486  0.1114 -2.0166  1.0930
14846SOL    HW247493   7.648   2.419   4.417  0.4123 -0.6220 -1.8035
14847SOL     OW47494   1.795   7.235   7.929 -0.5620 -0.5860  0.3684
14847SOL    HW147495   1.764   7.307   7.984 -4.3902 -0.8190 -1.1658
14847SOL    HW247496   1.797   7.272   7.841 -0.0290 -1.6980 -0.1012
14848SOL     OW47497   3.953   7.108   3.819  0.4904  0.1605  0.3000
14848SOL    HW147498   3.920   7.023   3.850 -0.0141 -0.1949 -1.1388
14848SOL    HW247499   3.992   7.148   3.897 -1.2697 -0.4068  1.5408
14849SOL     OW47500   6.352   1.654   6.812 -0.5118 -0.1910 -0.5845
14849SOL    HW147501   6.280   1.713   6.837  0.4980  0.7510  0.2121
14849SOL    HW247502   6.309   1.577   6.776 -1.8935  1.0588 -1.7198
14850SOL     OW47503   2.057   3.708   3.961  0.5553  0.0279  0.2155
14850SOL    HW147504   2.129   3.711   3.897 -0.1789 -1.0218 -0.6894
14850SOL    HW247505   2.098   3.734   4.043  2.3151 -1.7897  0.0031
14851SOL     OW47506   4.043   2.035   6.183 -0.2824  0.1497  0.6424
14851SOL    HW147507   3.996   1.972   6.128  1.3358 -1.9596  1.5140
14851SOL    HW247508   3.995   2.035   6.266 -0.9675  1.0199  0.2633
14852SOL     OW47509   0.003   7.799   1.577  0.1130 -0.2235 -0.5820
14852SOL    HW147510  -0.044   7.867   1.626 -0.4183  0.9687 -2.6108
14852SOL    HW247511   0.082   7.783   1.628 -0.3292  1.0670  0.5681
14853SOL     OW47512   5.621   4.027   6.257 -0.1613 -0.4956 -0.4834
14853SOL    HW147513   5.545   3.970   6.242 -2.4657  1.9864  0.8789
14853SOL    HW247514   5.618   4.090   6.185 -0.5910  0.7131  0.5405
14854SOL     OW47515   6.210   1.123   1.471 -0.4294 -0.0810 -0.5091
14854SOL    HW147516   6.250   1.135   1.557  1.0285 -0.0707 -1.1637
14854SOL    HW247517   6.195   1.029   1.464 -1.1725 -0.0119  0.0047
14855SOL     OW47518   7.103   7.243   6.391  0.3666 -0.2095 -0.2051
14855SOL    HW147519   7.031   7.284   6.438  0.9886  0.4116  0.2253
14855SOL    HW247520   7.138   7.312   6.334  0.4395 -0.5892 -0.6365
14856SOL     OW47521   4.690   7.920   1.047  0.1600  0.2332 -0.0694
14856SOL    HW147522   4.776   7.884   1.068 -0.3111 -0.1546  1.2828
14856SOL    HW247523   4.697   8.013   1.070  0.0313  0.0699  0.6459
14857SOL     OW47524   4.207   4.396   2.680 -0.0647  0.2199 -0.1849
14857SOL    HW147525   4.158   4.475   2.701  0.4049  0.5144 -0.1880
14857SOL    HW247526   4.189   4.336   2.753  2.0896  1.4701  1.5196
14858SOL     OW47527   5.845   1.505   5.779 -0.3158 -0.6085 -0.5264
14858SOL    HW147528   5.937   1.497   5.752 -0.3875 -1.3300 -0.5849
14858SOL    HW247529   5.800   1.435   5.731 -1.0010  0.1169 -0.9510
14859SOL     OW47530   3.751   1.861   7.214  0.2499 -0.2924 -0.0838
14859SOL    HW147531   3.787   1.931   7.268 -0.6901  0.3756 -0.2853
14859SOL    HW247532   3.825   1.829   7.162  0.4910  1.2918 -0.7692
14860SOL     OW47533   4.611   6.226   0.735 -0.2189 -0.0012 -0.0372
14860SOL    HW147534   4.682   6.290   0.741  0.9351 -1.0530 -1.6390
14860SOL    HW247535   4.642   6.160   0.672 -2.1962 -1.0562 -0.0205
14861SOL     OW47536   1.180   5.493   0.714 -0.0611  0.1184 -0.2244
14861SOL    HW147537   1.120   5.561   0.744  1.6407  2.0216 -0.9569
14861SOL    HW247538   1.165   5.487   0.620 -1.5489 -1.9867  0.0593
14862SOL     OW47539   4.928   5.344   1.845 -0.0059  0.0818  0.0227
14862SOL    HW147540   4.924   5.304   1.931 -1.9399  0.9404  0.3842
14862SOL    HW247541   5.000   5.406   1.850  1.6328 -1.7524  0.1299
14863SOL     OW47542   0.334   3.669   6.420  0.3642  0.0506 -0.1872
14863SOL    HW147543   0.267   3.686   6.354 -1.2647 -1.4436  0.9649
14863SOL    HW247544   0.391   3.603   6.381  1.0908  1.1807 -1.0996
14864SOL     OW47545   6.566   4.801   0.701 -0.0218  0.3014  0.3015
14864SOL    HW147546   6.486   4.750   0.684 -0.0820  0.1553  0.9955
14864SOL    HW247547   6.597   4.826   0.614 -1.0697  0.7396  0.0343
14865SOL     OW47548   2.885   3.911   2.616  0.2658  0.1938 -0.2221
14865SOL    HW147549   2.897   3.949   2.703 -1.3830 -0.7711  0.4793
14865SOL    HW247550   2.851   3.823   2.633 -0.5699  0.1625 -1.8433
14866SOL     OW47551   4.198   6.388   0.325  0.5357  0.0167  0.4337
14866SOL    HW147552   4.249   6.450   0.273  1.1938 -0.9296 -0.0866
14866SOL    HW247553   4.154   6.334   0.259  0.8029 -0.7297  0.8611
14867SOL     OW47554   1.942   1.233   7.589  0.2878  0.1994 -0.3630
14867SOL    HW147555   1.888   1.312   7.593 -2.0446 -1.3213 -0.3682
14867SOL    HW247556   1.934   1.194   7.675  1.4236 -0.0871 -0.3676
14868SOL     OW47557   3.179   0.156   0.932  0.1963 -0.7678  0.4051
14868SOL    HW147558   3.212   0.154   0.842  1.4041 -1.5953  0.8420
14868SOL    HW247559   3.105   0.095   0.932  0.0021 -0.5395 -0.0899
14869SOL     OW47560   3.121   7.860   0.135  0.5081 -0.5023 -0.1608
14869SOL    HW147561   3.209   7.825   0.150  0.3475 -0.4951  0.8379
14869SOL    HW247562   3.062   7.789   0.162  0.1845  0.4305  1.7501
14870SOL     OW47563   3.312   0.097   4.977  0.3130  0.1707  0.1821
14870SOL    HW147564   3.309   0.002   4.964  0.3737  0.3491 -1.2983
14870SOL    HW247565   3.402   0.114   5.005  0.5064 -0.1442 -0.2296
14871SOL     OW47566   3.512   6.959   1.444 -0.1700 -0.0616  0.4436
14871SOL    HW147567   3.522   6.950   1.539  0.3296 -1.3606  0.2883
14871SOL    HW247568   3.582   6.905   1.407 -0.8461 -0.2139 -0.6685
14872SOL     OW47569   6.181   1.461   6.481  0.1236 -0.0191  0.0324
14872SOL    HW147570   6.236   1.457   6.559 -1.5630 -0.7054  1.2615
14872SOL    HW247571   6.202   1.381   6.432  0.2806 -0.2364  0.4500
14873SOL     OW47572   0.589   4.972   2.986 -0.0924 -0.1976  0.6083
14873SOL    HW147573   0.630   4.893   3.020  0.5896  0.1619  0.6403
14873SOL    HW247574   0.663   5.028   2.960 -0.5217 -0.7930 -2.3216
14874SOL     OW47575   3.329   2.018   4.926 -0.1182 -0.0760 -0.0213
14874SOL    HW147576   3.371   1.978   5.003  1.4738  2.4700  0.5381
14874SOL    HW247577   3.259   2.072   4.962  1.0717  1.6722 -0.2249
14875SOL     OW47578   1.530   1.588   3.387 -0.4208 -0.0746  0.0248
14875SOL    HW147579   1.610   1.556   3.429 -0.0987  0.1739 -0.3911
14875SOL    HW247580   1.561   1.652   3.323 -0.7542 -1.7665 -1.9273
14876SOL     OW47581   6.226   3.519   3.145 -0.3236 -0.1404  0.3092
14876SOL    HW147582   6.219   3.591   3.208 -0.0308  0.3497 -0.2110
14876SOL    HW247583   6.319   3.511   3.127 -0.2599 -1.2496  1.0301
14877SOL     OW47584   7.159   4.946   6.079  0.0183 -0.2502 -0.2650
14877SOL    HW147585   7.162   4.958   6.174 -0.4119  1.5011 -0.4468
14877SOL    HW247586   7.132   4.855   6.067  1.1902 -0.8497  1.2754
14878SOL     OW47587   2.180   5.258   5.604  0.1338 -0.4339  0.0959
14878SOL    HW147588   2.240   5.184   5.589  1.3740  0.6755 -0.5903
14878SOL    HW247589   2.212   5.327   5.547 -0.8469  0.7462  0.9219
14879SOL     OW47590   4.018   5.547   7.383  0.5911 -0.2457 -0.5689
14879SOL    HW147591   3.968   5.466   7.371  2.1095 -1.0685 -1.6990
14879SOL    HW247592   3.983   5.585   7.464 -2.7406 -0.0622 -1.9556
14880SOL     OW47593   0.703   4.840   7.203 -0.1971  0.1324  0.2541
14880SOL    HW147594   0.764   4.863   7.133  1.1369 -1.4210  0.8588
14880SOL    HW247595   0.622   4.886   7.180  1.1405  2.1834 -0.6200
14881SOL     OW47596   2.864   1.606   7.549  0.4644  0.4913  0.2809
14881SOL    HW147597   2.787   1.609   7.493  0.5756 -0.2736  0.0693
14881SOL    HW247598   2.893   1.515   7.545  1.5352  0.8193  0.1443
14882SOL     OW47599   4.927   7.916   6.743  0.2413 -0.0975 -0.5857
14882SOL    HW147600   4.848   7.927   6.796  0.7027  2.0698 -0.2766
14882SOL    HW247601   4.894   7.889   6.657 -0.9610  1.7121 -0.7409
14883SOL     OW47602   5.505   4.837   6.215 -0.2174  0.3381 -0.6603
14883SOL    HW147603   5.494   4.929   6.240 -3.1327  0.6935 -2.7696
14883SOL    HW247604   5.468   4.831   6.127  0.6919 -2.7166 -0.9555
14884SOL     OW47605   3.435   2.150   7.345 -0.3407  0.6064 -0.3793
14884SOL    HW147606   3.418   2.201   7.424 -1.3953 -0.5868  0.2074
14884SOL    HW247607   3.473   2.068   7.377 -0.5022  0.2239 -1.1362
14885SOL     OW47608   1.954   8.013   7.637 -0.2950 -0.2877  0.3203
14885SOL    HW147609   1.972   8.105   7.618 -1.4727  0.1890  1.3491
14885SOL    HW247610   2.037   7.969   7.624  0.1568  0.8207 -0.7693
14886SOL     OW47611   2.507   6.258   3.610  0.1199  0.4589  0.1993
14886SOL    HW147612   2.440   6.262   3.542 -0.5005 -0.6341  0.7168
14886SOL    HW247613   2.470   6.310   3.682 -0.0450  0.1281  0.3598
14887SOL     OW47614   0.941   3.101   7.937 -0.4195 -0.0159 -0.6511
14887SOL    HW147615   0.880   3.037   7.900 -0.3074 -0.5404  0.0287
14887SOL    HW247616   0.980   3.055   8.012 -0.7481  1.0400  0.1902
14888SOL     OW47617   3.572   5.794   5.517 -0.3679  0.0339  0.1787
14888SOL    HW147618   3.618   5.799   5.601 -0.2578  0.2690  0.1046
14888SOL    HW247619   3.639   5.815   5.452  0.1476 -2.3769 -0.1659
14889SOL     OW47620   8.013   7.076   5.646  0.1655  0.0290  0.2618
14889SOL    HW147621   8.038   7.068   5.554 -0.1808 -0.2676  0.1895
14889SOL    HW247622   8.044   7.163   5.672  0.7603 -0.1095  0.0272
14890SOL     OW47623   1.677   7.740   6.634 -0.3611 -0.2365 -0.3652
14890SOL    HW147624   1.587   7.711   6.650 -0.2079 -1.5435 -1.5991
14890SOL    HW247625   1.728   7.700   6.704 -0.6559 -0.0225 -0.0293
14891SOL     OW47626   0.245   6.386   7.827  0.9741 -0.1429  0.2969
14891SOL    HW147627   0.292   6.429   7.755 -2.2044 -0.0182 -1.9162
14891SOL    HW247628   0.269   6.293   7.818  0.0210 -0.2507 -1.5015
14892SOL     OW47629   5.912   5.959   6.984  0.5006  0.3193  0.0954
14892SOL    HW147630   5.836   5.995   7.030 -0.8476 -1.2093 -0.8091
14892SOL    HW247631   5.916   6.009   6.902 -0.2391 -0.2919 -0.3364
14893SOL     OW47632   3.326   6.032   7.532  0.0164 -0.6319  0.5017
14893SOL    HW147633   3.329   6.062   7.441  0.7594  0.3959  0.8368
14893SOL    HW247634   3.316   5.937   7.527  1.2432 -0.7227 -0.6807
14894SOL     OW47635   4.148   0.149   1.521 -0.1486  0.1571 -0.5714
14894SOL    HW147636   4.069   0.190   1.556  1.0540 -0.1663  2.8940
14894SOL    HW247637   4.117   0.095   1.449 -3.0214  0.3218  0.4023
14895SOL     OW47638   6.331   6.301   7.188  0.1699 -0.4161  0.5323
14895SOL    HW147639   6.332   6.387   7.146  1.5726 -0.7642 -0.2193
14895SOL    HW247640   6.243   6.293   7.224  0.2966  1.7876  1.5502
14896SOL     OW47641   1.516   2.101   0.155 -0.0438  0.4482  0.5545
14896SOL    HW147642   1.547   2.189   0.171 -0.1910  0.7473 -0.6838
14896SOL    HW247643   1.444   2.112   0.092  0.5378 -0.6072 -0.3327
14897SOL     OW47644   3.356   7.518   6.688  0.2467 -0.4827 -0.4314
14897SOL    HW147645   3.438   7.564   6.671 -0.2360  0.9085  0.7680
14897SOL    HW247646   3.300   7.541   6.614  0.1227  0.6235 -0.0062
14898SOL     OW47647   0.389   0.398   5.110  0.0111 -0.6220 -0.4268
14898SOL    HW147648   0.412   0.438   5.026 -1.4257 -1.0294 -1.0480
14898SOL    HW247649   0.311   0.447   5.138  0.6506 -0.2983  0.8187
14899SOL     OW47650   6.640   6.934   6.531  0.2802 -0.2016 -0.4992
14899SOL    HW147651   6.625   7.028   6.526  0.6340 -0.0443  0.8754
14899SOL    HW247652   6.710   6.917   6.469  0.8318  0.5947 -0.1093
14900SOL     OW47653   2.127   0.488   6.245 -0.4472  0.9854  0.0865
14900SOL    HW147654   2.162   0.405   6.277  0.0279  0.8391 -0.7671
14900SOL    HW247655   2.044   0.465   6.204 -1.0517  1.1716  1.1810
14901SOL     OW47656   2.168   2.313   5.888 -0.3317  0.3411  0.3839
14901SOL    HW147657   2.187   2.221   5.900  2.5351  0.7274 -0.4170
14901SOL    HW247658   2.133   2.319   5.799  3.0151  0.2938 -1.1012
14902SOL     OW47659   0.788   7.585   3.716  0.2246  0.6712  0.2805
14902SOL    HW147660   0.858   7.647   3.694  1.1376 -0.5334 -0.3398
14902SOL    HW247661   0.834   7.503   3.735 -1.0464 -0.3351 -0.8216
14903SOL     OW47662   3.879   3.558   1.614 -0.4458 -0.1907  0.2679
14903SOL    HW147663   3.935   3.628   1.646 -0.1973  0.1101 -0.7807
14903SOL    HW247664   3.840   3.594   1.534 -0.4065 -1.2059 -0.2179
14904SOL     OW47665   2.176   5.893   0.122  0.0155  0.3271 -0.0465
14904SOL    HW147666   2.249   5.916   0.179  0.5231 -0.9000 -0.1791
14904SOL    HW247667   2.189   5.801   0.101 -1.4947  0.1228 -0.2060
14905SOL     OW47668   4.998   6.872   1.064 -0.3937 -0.2592  0.3433
14905SOL    HW147669   4.971   6.837   0.979 -0.2953 -2.3389  1.1206
14905SOL    HW247670   5.064   6.811   1.095  0.2565  0.9990  1.5231
14906SOL     OW47671   1.626   0.282   2.062  0.4745  0.8409 -0.4600
14906SOL    HW147672   1.718   0.266   2.042 -0.0611 -0.8969 -1.8068
14906SOL    HW247673   1.604   0.215   2.128  0.2093  1.3538 -0.0206
14907SOL     OW47674   1.014   4.364   7.016 -0.6489  0.6660 -0.0233
14907SOL    HW147675   1.004   4.299   7.086 -0.5052  0.9843  0.2892
14907SOL    HW247676   1.096   4.409   7.035 -1.3173  1.7385  0.4213
14908SOL     OW47677   7.110   0.088   6.530  0.1982  0.3949  0.4038
14908SOL    HW147678   7.151   0.046   6.454 -0.9763  1.5213 -0.9014
14908SOL    HW247679   7.036   0.136   6.494 -0.8746  0.3371  2.3820
14909SOL     OW47680   7.873   1.600   1.853  0.4493  0.2973 -1.1186
14909SOL    HW147681   7.944   1.607   1.917 -0.0824  1.1088 -0.6051
14909SOL    HW247682   7.908   1.642   1.774  0.2052  1.6076 -0.5590
14910SOL     OW47683   2.068   8.030   5.003 -0.1250  0.2396 -0.3339
14910SOL    HW147684   2.047   7.952   4.951 -1.1103 -1.7673  2.7677
14910SOL    HW247685   1.986   8.079   5.006  0.1229  0.7159 -1.1965
14911SOL     OW47686   7.743   2.057   3.037 -0.3743 -0.1288 -0.7083
14911SOL    HW147687   7.754   1.962   3.039 -1.7479 -0.3101  1.4460
14911SOL    HW247688   7.787   2.088   3.116  0.4354  1.1036 -1.6169
14912SOL     OW47689   8.073   7.100   3.849 -0.1561  0.1933  0.2948
14912SOL    HW147690   8.048   7.176   3.901 -0.5603  1.6476 -1.8576
14912SOL    HW247691   7.994   7.078   3.798  0.5527 -0.3386 -0.6164
14913SOL     OW47692   4.023   5.824   3.667  0.1523 -0.3411  0.9933
14913SOL    HW147693   4.032   5.794   3.757  2.0361 -2.1672  0.2620
14913SOL    HW247694   4.105   5.870   3.649 -0.3504  0.3045  0.2809
14914SOL     OW47695   0.781   7.302   3.438  0.3225 -0.4355 -0.4479
14914SOL    HW147696   0.847   7.349   3.387  0.7610 -1.0633 -0.4788
14914SOL    HW247697   0.726   7.370   3.477 -2.0347  0.1758 -4.2454
14915SOL     OW47698   7.512   7.447   7.466  0.3062  0.0661  0.3474
14915SOL    HW147699   7.479   7.461   7.377 -0.2786  0.3079  0.6022
14915SOL    HW247700   7.455   7.499   7.522  1.3539  0.8158  0.7598
14916SOL     OW47701   1.943   0.833   5.992 -0.2422 -0.0412  0.3123
14916SOL    HW147702   2.029   0.871   6.010 -0.1389  1.3013 -2.4596
14916SOL    HW247703   1.945   0.747   6.034  2.2135  0.1863  0.8035
14917SOL     OW47704   6.853   5.802   0.562 -0.2245 -0.6047 -0.7739
14917SOL    HW147705   6.790   5.758   0.619  0.1665 -0.5324 -0.2807
14917SOL    HW247706   6.874   5.884   0.607 -1.2038  0.2624 -1.8538
14918SOL     OW47707   2.143   6.201   4.494 -0.6233  0.0246  0.1552
14918SOL    HW147708   2.066   6.144   4.494 -0.6085 -0.1702 -3.0026
14918SOL    HW247709   2.109   6.289   4.504 -0.9600 -0.2200  1.4057
14919SOL     OW47710   0.336   7.528   2.946 -0.3173  0.2830 -0.1735
14919SOL    HW147711   0.317   7.475   2.869 -1.0014  3.2887 -2.2671
14919SOL    HW247712   0.424   7.500   2.974 -0.1100 -0.9964 -1.9654
14920SOL     OW47713   5.719   0.934   8.018 -0.0089 -0.1766 -0.4019
14920SOL    HW147714   5.669   0.856   7.994 -1.6423  0.6346  0.2473
14920SOL    HW247715   5.756   0.913   8.104 -1.8470  0.3403  0.5658
14921SOL     OW47716   4.194   3.592   7.208  0.2437  0.1850  0.7419
14921SOL    HW147717   4.287   3.617   7.202  0.0849  0.8601  1.0469
14921SOL    HW247718   4.159   3.613   7.121  0.5555 -0.8389  0.3574
14922SOL     OW47719   1.434   3.125   2.091 -0.0672 -0.0591 -0.2439
14922SOL    HW147720   1.423   3.044   2.141 -2.9425  0.9080  0.9310
14922SOL    HW247721   1.469   3.188   2.155  0.0159  0.1940 -0.5375
14923SOL     OW47722   3.216   3.105   7.154  0.6164  0.2188 -0.0373
14923SOL    HW147723   3.171   3.021   7.147  1.6750 -0.3728  0.0570
14923SOL    HW247724   3.301   3.091   7.111  1.1859  0.9452  0.7963
14924SOL     OW47725   0.964   3.606   6.818 -0.5103  1.1844 -0.5500
14924SOL    HW147726   0.918   3.676   6.863 -0.2194  0.2717  1.2283
14924SOL    HW247727   0.903   3.576   6.751 -0.9826  2.5102 -0.7364
14925SOL     OW47728   3.026   7.590   0.167  0.2949 -0.2282  0.1399
14925SOL    HW147729   3.005   7.596   0.074 -0.5677  2.1182  0.3998
14925SOL    HW247730   2.972   7.518   0.200 -1.4454  0.6385 -0.7143
14926SOL     OW47731   4.477   0.547   6.276 -0.0770 -0.2032 -0.1365
14926SOL    HW147732   4.388   0.581   6.263 -0.5827 -0.5185  2.1315
14926SOL    HW247733   4.534   0.614   6.238 -1.2350  0.3938 -0.8820
14927SOL     OW47734   4.410   3.714   7.825 -0.3530 -0.5802  0.3285
14927SOL    HW147735   4.384   3.622   7.827 -0.6132 -0.5124  0.1215
14927SOL    HW247736   4.383   3.748   7.910  1.8130 -1.2435  1.3560
14928SOL     OW47737   4.337   3.461   2.327 -0.0972  0.0424  0.1642
14928SOL    HW147738   4.401   3.446   2.396 -0.2757 -0.4531  0.2310
14928SOL    HW247739   4.262   3.499   2.371 -0.8611 -1.7894  0.5650
14929SOL     OW47740   0.245   5.021   3.769  0.4582  0.0128  0.1413
14929SOL    HW147741   0.229   4.947   3.710  0.1032 -0.3469  0.6786
14929SOL    HW247742   0.164   5.072   3.766  0.8301  0.6008 -0.5107
14930SOL     OW47743   4.847   0.650   2.523  0.7388 -0.4207  0.3083
14930SOL    HW147744   4.782   0.698   2.574  0.0226  0.7362 -1.5790
14930SOL    HW247745   4.925   0.706   2.525 -0.2643  1.2485 -2.3430
14931SOL     OW47746   1.441   2.276   1.462 -0.2044  0.3316 -0.1744
14931SOL    HW147747   1.524   2.292   1.418  0.0494  2.5478  0.9513
14931SOL    HW247748   1.393   2.358   1.453 -0.9944  0.1420  1.7793
14932SOL     OW47749   2.139   6.508   2.128 -0.2939 -0.1891 -0.1233
14932SOL    HW147750   2.178   6.582   2.082  0.3446 -1.0586 -1.0288
14932SOL    HW247751   2.164   6.521   2.220  2.0318 -0.5858 -0.6270
14933SOL     OW47752   1.629   1.704   2.844  0.1369 -0.4383  0.4305
14933SOL    HW147753   1.722   1.679   2.841  0.4867  0.6002  1.4362
14933SOL    HW247754   1.612   1.720   2.937 -1.2167 -1.1523  0.3255
14934SOL     OW47755   1.613   3.388   3.867  0.4928  0.2330 -0.2911
14934SOL    HW147756   1.691   3.349   3.906  0.5508  0.3845 -0.2550
14934SOL    HW247757   1.586   3.455   3.930 -0.3717 -0.6355  0.2851
14935SOL     OW47758   6.113   5.414   2.679 -0.0836 -0.5979  0.0945
14935SOL    HW147759   6.164   5.341   2.644  0.5823  0.4355 -1.2053
14935SOL    HW247760   6.058   5.442   2.606 -2.2667 -1.4155  1.3455
14936SOL     OW47761   0.067   5.767   1.145 -0.4301 -0.3621  0.7482
14936SOL    HW147762   0.122   5.844   1.156 -1.9266  0.4975  3.2089
14936SOL    HW247763   0.101   5.723   1.067  0.7720  2.5197 -0.4955
14937SOL     OW47764   5.423   4.473   6.243 -0.0956 -0.0059  0.4703
14937SOL    HW147765   5.474   4.435   6.171  1.7835  0.1081  1.6668
14937SOL    HW247766   5.359   4.529   6.199  1.6037  0.8194 -1.1233
14938SOL     OW47767   7.729   7.176   2.413  0.0819 -0.0387  0.0077
14938SOL    HW147768   7.668   7.162   2.340  1.5552 -0.1077 -1.2675
14938SOL    HW247769   7.674   7.206   2.485 -1.1657  2.3612 -1.8216
14939SOL     OW47770   6.214   5.593   3.205  0.1253 -0.2546 -0.2108
14939SOL    HW147771   6.299   5.633   3.191  0.0105 -0.1255 -0.5426
14939SOL    HW247772   6.162   5.661   3.247  0.3000 -0.4600  0.3501
14940SOL     OW47773   2.013   2.926   5.311 -0.3475 -0.0746 -0.0422
14940SOL    HW147774   1.932   2.877   5.300 -0.5029  0.1788 -0.0200
14940SOL    HW247775   2.075   2.862   5.346 -0.9038  0.0705  1.2252
14941SOL     OW47776   1.702   1.308   7.914 -0.4346 -0.3597 -0.6684
14941SOL    HW147777   1.695   1.400   7.891 -0.6456 -0.3025 -0.3826
14941SOL    HW247778   1.611   1.276   7.911 -0.8182  0.1977  2.2993
14942SOL     OW47779   1.470   2.290   1.854 -0.5512 -0.3915 -0.3745
14942SOL    HW147780   1.423   2.211   1.881 -0.5051 -0.4103 -0.3499
14942SOL    HW247781   1.402   2.345   1.815 -0.8746  0.2172  1.0122
14943SOL     OW47782   0.997   7.924   0.938 -0.3984 -0.1502  0.1037
14943SOL    HW147783   1.044   7.940   0.856  0.9799  1.0695  1.0865
14943SOL    HW247784   0.966   8.010   0.965  0.4454 -0.2875  1.6006
14944SOL     OW47785   7.970   3.772   7.220 -0.1070  0.6216 -0.0220
14944SOL    HW147786   7.994   3.831   7.291  0.3839  0.2400  0.1319
14944SOL    HW247787   7.974   3.827   7.141 -2.4959  1.5518  0.4189
14945SOL     OW47788   7.243   5.091   3.303 -0.4072  0.1001 -0.0953
14945SOL    HW147789   7.195   5.142   3.368 -1.1485 -0.1394 -0.4409
14945SOL    HW247790   7.194   5.105   3.222  0.8936  0.9734 -0.7780
14946SOL     OW47791   4.810   6.870   6.902 -0.5417 -0.0850 -0.4094
14946SOL    HW147792   4.808   6.856   6.997 -1.2523 -1.2269 -0.5789
14946SOL    HW247793   4.796   6.964   6.891 -1.1951 -0.0574  0.5817
14947SOL     OW47794   4.943   0.030   4.892 -0.0466 -0.1931 -0.3900
14947SOL    HW147795   4.946   0.080   4.974  2.5416 -0.3147 -0.3272
14947SOL    HW247796   5.035   0.010   4.873 -0.8425 -3.8092 -1.1222
14948SOL     OW47797   4.865   1.927   3.039  0.1798 -0.2362  0.2009
14948SOL    HW147798   4.862   1.834   3.019 -0.3602 -0.5684  1.7405
14948SOL    HW247799   4.944   1.938   3.091 -0.5169 -0.1072  1.2546
14949SOL     OW47800   6.823   1.376   6.238 -0.0327  0.6471 -0.3277
14949SOL    HW147801   6.733   1.379   6.205 -0.0032 -3.2612 -1.2004
14949SOL    HW247802   6.878   1.399   6.163 -0.2105  0.5066 -0.4987
14950SOL     OW47803   5.476   3.209   6.093 -0.6814 -0.0457 -0.1165
14950SOL    HW147804   5.564   3.174   6.078  0.2500  2.1031 -0.0468
14950SOL    HW247805   5.426   3.135   6.127  1.7263 -0.7892  2.1053
14951SOL     OW47806   4.855   6.112   1.886  0.2013 -0.4523  0.0667
14951SOL    HW147807   4.882   6.163   1.963 -0.7251  1.6517 -0.9237
14951SOL    HW247808   4.796   6.170   1.839 -1.5340 -2.7709 -0.7816
14952SOL     OW47809   0.961   1.953   1.173 -0.5541 -0.1789  0.5225
14952SOL    HW147810   0.897   1.910   1.117  0.5546 -0.0110 -0.9370
14952SOL    HW247811   0.909   2.002   1.236 -1.8424 -1.8390  0.8217
14953SOL     OW47812   0.418   1.830   1.884 -0.5724  0.0769  0.2849
14953SOL    HW147813   0.481   1.876   1.939 -1.8115  1.3926  0.6380
14953SOL    HW247814   0.426   1.738   1.912  1.5053  0.0957 -0.0293
14954SOL     OW47815   7.659   4.983   5.430 -0.4803 -0.0444 -0.1693
14954SOL    HW147816   7.628   4.979   5.520  2.0220  0.6630  0.8053
14954SOL    HW247817   7.720   4.910   5.422 -0.3240  0.1796 -1.1629
14955SOL     OW47818   5.915   5.212   3.584 -0.7600  0.0357  0.7193
14955SOL    HW147819   5.969   5.267   3.642 -1.8692  2.2254 -0.2039
14955SOL    HW247820   5.842   5.184   3.639 -0.7028  0.3338  0.9533
14956SOL     OW47821   3.645   0.724   2.441  0.1721 -0.0647  0.1039
14956SOL    HW147822   3.585   0.659   2.477  0.8124 -0.2059  0.9738
14956SOL    HW247823   3.732   0.690   2.463  0.5162  1.5300  1.4168
14957SOL     OW47824   0.023   5.710   5.476 -0.1352 -0.0907 -0.3486
14957SOL    HW147825  -0.046   5.747   5.531  0.1606  1.1690 -0.7865
14957SOL    HW247826   0.053   5.633   5.523 -0.8800  0.1372  0.5300
14958SOL     OW47827   3.795   2.447   3.128  0.1489 -0.0961 -0.3670
14958SOL    HW147828   3.796   2.363   3.173 -1.0074 -0.3071 -0.6995
14958SOL    HW247829   3.833   2.428   3.042 -1.5313 -0.6606 -1.0274
14959SOL     OW47830   0.452   7.109   7.233  0.2564 -0.0701  0.7524
14959SOL    HW147831   0.463   7.094   7.327  1.7169 -1.5827  0.4076
14959SOL    HW247832   0.495   7.033   7.192 -0.1459  0.6652 -1.1392
14960SOL     OW47833   7.574   7.927   7.554  0.1807  0.4565 -0.4730
14960SOL    HW147834   7.510   7.987   7.592 -2.0009 -0.3089 -2.6856
14960SOL    HW247835   7.553   7.926   7.461  3.6756  0.3809 -1.4024
14961SOL     OW47836   0.183   4.354   3.686 -0.1633 -0.2472 -0.0714
14961SOL    HW147837   0.235   4.423   3.728 -1.1052  0.8645 -0.6592
14961SOL    HW247838   0.096   4.361   3.727  0.2255 -2.3742  1.2299
14962SOL     OW47839   3.801   5.677   4.410  0.4491 -0.2243 -0.1200
14962SOL    HW147840   3.879   5.663   4.465 -0.5852 -1.1512  1.1590
14962SOL    HW247841   3.795   5.599   4.356 -1.9690 -2.2996  2.8482
14963SOL     OW47842   0.729   3.168   3.314 -0.0677  0.1241  0.6331
14963SOL    HW147843   0.710   3.230   3.243  2.1743  2.3335  1.7977
14963SOL    HW247844   0.817   3.191   3.342  0.5838 -3.1595  1.7142
14964SOL     OW47845   5.489   6.016   6.902  0.9112  0.2604  0.5801
14964SOL    HW147846   5.423   6.084   6.887  1.0687  0.1763 -0.6431
14964SOL    HW247847   5.536   6.011   6.818  0.1870 -2.1082  0.2674
14965SOL     OW47848   4.537   2.181   1.010 -0.2028 -0.2140 -0.2698
14965SOL    HW147849   4.506   2.116   0.947 -0.1516 -1.6853  1.1704
14965SOL    HW247850   4.604   2.136   1.061 -2.6092 -0.3506  3.1477
14966SOL     OW47851   4.021   7.321   0.846  0.6770  0.2689 -0.3586
14966SOL    HW147852   3.936   7.364   0.840  1.1030  1.3610  0.8599
14966SOL    HW247853   4.055   7.347   0.932  1.6542 -1.2429 -0.2463
14967SOL     OW47854   0.625   7.748   6.944  0.2216  0.2332  0.8162
14967SOL    HW147855   0.597   7.675   6.999  0.2579  0.2304  0.8304
14967SOL    HW247856   0.579   7.824   6.980  0.8783  0.3819  1.3625
14968SOL     OW47857   2.676   3.392   7.365 -0.3857  0.2631 -0.4254
14968SOL    HW147858   2.660   3.336   7.441 -1.5397  1.5312  0.2933
14968SOL    HW247859   2.708   3.331   7.297 -0.0581 -0.9976  0.8120
14969SOL     OW47860   3.287   4.972   0.429  0.5732 -0.4669 -0.5350
14969SOL    HW147861   3.244   4.894   0.465 -2.7830  2.0159  1.4016
14969SOL    HW247862   3.353   4.996   0.495 -0.9268  0.2921  0.7470
14970SOL     OW47863   6.420   4.482   4.238 -0.0170  0.4442 -0.1726
14970SOL    HW147864   6.345   4.424   4.251  1.3114 -1.9699 -2.2653
14970SOL    HW247865   6.467   4.480   4.321  0.0001 -1.6385 -0.1706
14971SOL     OW47866   4.435   3.788   6.299  0.0523 -0.3654 -0.0469
14971SOL    HW147867   4.399   3.868   6.335 -1.2799 -0.8179 -0.3118
14971SOL    HW247868   4.378   3.718   6.333  1.1038 -1.1884  0.0829
14972SOL     OW47869   1.054   3.090   3.752  0.0758 -0.8106  0.6936
14972SOL    HW147870   0.981   3.067   3.696  0.2762 -1.3414  0.6458
14972SOL    HW247871   1.047   3.031   3.827 -0.7389  0.4980  1.7158
14973SOL     OW47872   7.992   3.190   2.346 -0.5654  0.5717 -0.1892
14973SOL    HW147873   8.066   3.133   2.366 -0.4722  0.5998 -0.4499
14973SOL    HW247874   7.935   3.183   2.422 -1.0888 -0.7269 -0.6686
14974SOL     OW47875   3.900   5.478   1.717  0.0821  0.0465  0.3570
14974SOL    HW147876   3.912   5.450   1.808 -2.5304 -1.1535  0.4191
14974SOL    HW247877   3.986   5.464   1.676  0.8864 -0.8909  2.2312
14975SOL     OW47878   7.226   4.474   6.149 -0.1631  0.1195 -0.2570
14975SOL    HW147879   7.198   4.382   6.157 -0.7698  0.4517  1.9854
14975SOL    HW247880   7.145   4.524   6.150  0.2506  0.8192  1.4218
14976SOL     OW47881   6.786   3.981   6.411 -0.0665 -0.1342  0.5654
14976SOL    HW147882   6.876   3.963   6.383  0.1550  0.1690  1.0647
14976SOL    HW247883   6.796   4.031   6.492 -0.6333  2.0317 -0.5975
14977SOL     OW47884   5.417   6.126   2.491  0.2142 -0.2053  0.6406
14977SOL    HW147885   5.402   6.102   2.583 -0.0405 -0.1643  0.6096
14977SOL    HW247886   5.416   6.222   2.491 -0.2675 -0.2096  0.5147
14978SOL     OW47887   4.992   7.198   2.983 -0.1994 -0.0154  0.9574
14978SOL    HW147888   5.043   7.124   2.952 -0.7659  0.0069 -0.0961
14978SOL    HW247889   5.008   7.201   3.077  0.9276 -0.6110  0.7996
14979SOL     OW47890   7.833   1.580   3.263 -0.0842  0.0109 -0.1499
14979SOL    HW147891   7.755   1.557   3.315  1.6435  0.4396  2.8189
14979SOL    HW247892   7.895   1.510   3.282  1.7466  1.8686  1.0595
14980SOL     OW47893   3.205   6.365   4.713  0.2008 -0.3259  0.1738
14980SOL    HW147894   3.187   6.298   4.779 -0.7837 -1.3578 -1.0834
14980SOL    HW247895   3.118   6.399   4.689  0.6517  1.1766  0.5160
14981SOL     OW47896   1.289   0.846   6.359  0.0865  0.7437  0.4360
14981SOL    HW147897   1.341   0.772   6.326 -1.3863 -0.9152  1.6349
14981SOL    HW247898   1.258   0.890   6.280 -0.8119 -1.2633 -0.4098
14982SOL     OW47899   7.623   2.255   4.566  0.4300 -0.2381  0.0931
14982SOL    HW147900   7.687   2.230   4.632  2.2236 -1.6894 -2.0829
14982SOL    HW247901   7.575   2.174   4.546 -1.7572  0.6794  1.2183
14983SOL     OW47902   4.563   2.091   5.495 -0.0105 -0.4300  0.3146
14983SOL    HW147903   4.601   2.096   5.583  1.2140  3.4892 -0.2493
14983SOL    HW247904   4.476   2.131   5.504 -0.0768 -0.4624 -0.1399
14984SOL     OW47905   4.680   2.452   4.095  0.1682  0.7306  0.1573
14984SOL    HW147906   4.661   2.502   4.016  0.2917  1.1523  0.3922
14984SOL    HW247907   4.608   2.388   4.101  1.1591 -0.5915 -1.3314
14985SOL     OW47908   1.985   3.026   6.356  0.2812 -0.3472 -0.1650
14985SOL    HW147909   2.009   3.119   6.357 -0.9198  0.0450 -2.0024
14985SOL    HW247910   2.037   2.989   6.285  1.0335 -1.1891  0.8042
14986SOL     OW47911   6.353   5.144   1.597 -0.0736 -0.0766  0.5577
14986SOL    HW147912   6.395   5.228   1.581 -0.9428  0.0681 -1.2835
14986SOL    HW247913   6.392   5.112   1.678 -0.4038  2.5057  1.8341
14987SOL     OW47914   4.094   4.749   3.896 -0.3677  0.3237 -0.2254
14987SOL    HW147915   4.124   4.752   3.987 -1.0376  1.3290 -0.0162
14987SOL    HW247916   3.999   4.757   3.903 -0.5270 -0.7986 -0.9641
14988SOL     OW47917   5.753   4.785   1.559 -0.0393 -0.2471  0.0244
14988SOL    HW147918   5.788   4.702   1.592  1.0932 -0.1525 -0.8685
14988SOL    HW247919   5.681   4.759   1.500  0.4103 -0.6093 -0.3730
14989SOL     OW47920   3.701   0.101   5.844  0.0431  0.0784  0.3870
14989SOL    HW147921   3.666   0.027   5.893  0.1103  1.1876  2.2026
14989SOL    HW247922   3.796   0.088   5.844 -0.0824 -1.5833 -2.3185
14990SOL     OW47923   1.457   4.267   1.104  0.1253 -0.1334 -0.1201
14990SOL    HW147924   1.461   4.198   1.038  2.1223 -0.7150  0.5373
14990SOL    HW247925   1.501   4.230   1.181  2.2340  2.1601 -0.0714
14991SOL     OW47926   7.901   2.930   1.347 -0.0413 -0.6280  0.5122
14991SOL    HW147927   7.874   2.957   1.259 -0.0566 -0.3002  0.6174
14991SOL    HW247928   7.979   2.876   1.333  0.8690  0.6606  0.3968
14992SOL     OW47929   7.182   5.635   4.935  0.0652  0.3445 -0.1456
14992SOL    HW147930   7.201   5.725   4.909 -1.1438  1.0190  1.1898
14992SOL    HW247931   7.250   5.614   4.999 -0.0111  0.5182 -0.0071
14993SOL     OW47932   6.692   5.486   1.713 -0.7791 -0.2147  1.3493
14993SOL    HW147933   6.644   5.564   1.685  0.3070  0.0511  0.1637
14993SOL    HW247934   6.777   5.519   1.743  1.0149 -1.1181 -2.2518
14994SOL     OW47935   0.918   3.113   6.184 -0.4069 -0.3175 -0.1838
14994SOL    HW147936   0.931   3.151   6.097  0.5724  1.8133  0.8273
14994SOL    HW247937   1.005   3.110   6.223 -0.8487 -1.1099  0.7994
14995SOL     OW47938   6.459   1.536   0.583 -0.5520  0.2832  0.4425
14995SOL    HW147939   6.511   1.552   0.662  1.3297 -2.6164 -0.0394
14995SOL    HW247940   6.486   1.605   0.522 -0.4384  1.3034  1.6227
14996SOL     OW47941   1.102   7.634   5.372 -0.1800 -0.1711 -0.5030
14996SOL    HW147942   1.031   7.598   5.425 -0.1628  0.9049  0.2881
14996SOL    HW247943   1.177   7.636   5.432 -0.2832  1.5237 -0.3812
14997SOL     OW47944   4.616   6.030   4.325 -0.1320 -0.4564 -0.1163
14997SOL    HW147945   4.687   6.030   4.262 -0.1275 -0.7836 -0.1124
14997SOL    HW247946   4.581   5.941   4.322 -0.5065 -0.3099 -0.0810
14998SOL     OW47947   7.170   6.195   4.846  0.1483  0.8208 -0.8619
14998SOL    HW147948   7.146   6.173   4.936  1.1639 -0.1932 -0.8143
14998SOL    HW247949   7.116   6.271   4.824  1.0143  2.0774  1.1461
14999SOL     OW47950   4.815   0.194   2.978 -0.5363 -0.7438 -0.1542
14999SOL    HW147951   4.768   0.114   2.952 -1.3388 -0.2378 -0.2823
14999SOL    HW247952   4.774   0.220   3.060 -0.9365  0.0601 -0.5955
15000SOL     OW47953   7.211   6.659   2.165  0.1052 -1.0367  0.6486
15000SOL    HW147954   7.305   6.676   2.162 -0.2317  1.1522  0.7138
15000SOL    HW247955   7.190   6.626   2.077  0.4971  1.3660 -0.4207
15001SOL     OW47956   4.395   1.759   5.565 -0.1650 -0.4113  0.4820
15001SOL    HW147957   4.396   1.854   5.572 -0.7252 -0.4729  1.4339
15001SOL    HW247958   4.380   1.728   5.654  2.7753 -1.4796  0.7186
15002SOL     OW47959   1.806   1.525   1.088  0.0549  0.2864 -0.7459
15002SOL    HW147960   1.730   1.547   1.141  1.4566  1.4766  0.9103
15002SOL    HW247961   1.850   1.456   1.138  0.2301 -0.1682 -1.5203
15003SOL     OW47962   3.609   7.123   6.055  0.2616 -0.3610 -0.1035
15003SOL    HW147963   3.696   7.128   6.093 -0.5364 -0.4548  1.8549
15003SOL    HW247964   3.604   7.198   5.996  0.2853  2.2076  2.9084
15004SOL     OW47965   2.930   3.029   3.999  0.1093  0.1313  0.0137
15004SOL    HW147966   2.879   3.009   3.921 -0.1972 -0.6989  0.4108
15004SOL    HW247967   2.930   3.125   4.004 -3.1376  0.1927  1.1012
15005SOL     OW47968   2.682   2.635   1.718 -0.1275  0.0371  0.4094
15005SOL    HW147969   2.650   2.590   1.796 -1.0910  1.6013  0.9619
15005SOL    HW247970   2.767   2.595   1.700 -0.2957 -0.9626  1.7138
15006SOL     OW47971   7.974   3.938   6.957 -0.1231  0.7115  0.4997
15006SOL    HW147972   8.067   3.922   6.944 -0.2928  0.8174 -1.0599
15006SOL    HW247973   7.931   3.871   6.904 -1.0340 -1.3670  3.6159
15007SOL     OW47974   5.180   2.952   5.661 -0.6410 -0.1307 -0.4834
15007SOL    HW147975   5.111   2.889   5.640  0.7647 -0.9924 -2.9009
15007SOL    HW247976   5.227   2.913   5.735 -1.0302 -0.9316 -0.6491
15008SOL     OW47977   4.221   3.273   3.391 -0.3731 -0.4367 -0.5290
15008SOL    HW147978   4.231   3.356   3.437 -0.1045 -1.8273  2.1042
15008SOL    HW247979   4.305   3.259   3.348  0.0960 -0.0346  0.2376
15009SOL     OW47980   3.841   5.354   1.192  0.4024  0.9051 -0.5766
15009SOL    HW147981   3.746   5.355   1.191  0.3382  0.7659  1.4465
15009SOL    HW247982   3.866   5.445   1.210  0.6444  0.9055 -0.9037
15010SOL     OW47983   7.290   4.098   2.287  0.1973  0.0368 -0.1339
15010SOL    HW147984   7.321   4.109   2.197  1.7090 -2.7822 -0.0764
15010SOL    HW247985   7.272   4.005   2.294  0.2896  0.1633  2.5420
15011SOL     OW47986   2.345   6.147   7.403  0.4325  0.0141 -0.2533
15011SOL    HW147987   2.262   6.193   7.396 -0.1543 -1.0440 -0.4141
15011SOL    HW247988   2.334   6.088   7.478  0.5641 -1.0526 -1.0467
15012SOL     OW47989   3.790   7.688   6.854  0.0070 -0.2763 -0.4068
15012SOL    HW147990   3.734   7.685   6.777  1.2503  0.2603 -1.3624
15012SOL    HW247991   3.834   7.603   6.854 -0.5228 -0.5619  0.1480
15013SOL     OW47992   4.754   6.495   4.485  0.6477 -0.1998 -0.2362
15013SOL    HW147993   4.772   6.404   4.462  1.2385  0.1576 -1.2721
15013SOL    HW247994   4.840   6.536   4.492  0.3709  0.7944 -2.0576
15014SOL     OW47995   6.802   0.184   2.669 -0.1836 -0.3008  0.2015
15014SOL    HW147996   6.874   0.246   2.680 -0.5257 -0.3861  4.8058
15014SOL    HW247997   6.725   0.229   2.706 -0.7240 -2.8184  2.4724
15015SOL     OW47998   1.846   2.483   5.669 -0.6752 -0.3213  0.1372
15015SOL    HW147999   1.916   2.481   5.603  0.0812 -1.2667  0.9291
15015SOL    HW248000   1.766   2.501   5.619 -0.0133 -0.2140 -0.9247
15016SOL     OW48001   6.682   4.463   0.956  0.1409  0.6109  0.3798
15016SOL    HW148002   6.588   4.474   0.942 -0.0466 -0.9600  0.1996
15016SOL    HW248003   6.703   4.380   0.913  1.2128 -0.0398  2.0336
15017SOL     OW48004   6.087   6.292   6.864 -0.1094  0.3050 -0.4350
15017SOL    HW148005   6.118   6.377   6.833 -0.6979  0.0933 -1.6810
15017SOL    HW248006   6.053   6.249   6.785 -0.3000 -0.8742  0.2679
15018SOL     OW48007   4.118   1.344   6.823  0.4166 -0.1588  0.1238
15018SOL    HW148008   4.092   1.413   6.885  0.5555  0.6380 -0.6819
15018SOL    HW248009   4.211   1.361   6.807  0.3530 -0.2792 -0.3957
15019SOL     OW48010   1.734   6.145   3.591  0.1769  0.0831  0.6749
15019SOL    HW148011   1.701   6.055   3.597  1.4868 -0.3895  1.0721
15019SOL    HW248012   1.679   6.195   3.651 -2.9946  0.3724 -2.1466
15020SOL     OW48013   7.565   3.454   7.732  0.3760 -0.3305 -0.1497
15020SOL    HW148014   7.587   3.364   7.756  0.4272  0.4619  3.3038
15020SOL    HW248015   7.634   3.507   7.771 -0.7977  1.3477 -0.2217
15021SOL     OW48016   3.597   2.021   6.746 -0.1327 -0.3860  0.1625
15021SOL    HW148017   3.614   1.985   6.660 -0.7620 -0.2616 -0.0187
15021SOL    HW248018   3.504   2.003   6.762 -0.0546 -0.2886  0.7543
15022SOL     OW48019   2.999   6.610   3.611 -0.2458  0.0729  0.2680
15022SOL    HW148020   2.941   6.663   3.557 -2.9008 -0.6177  2.2337
15022SOL    HW248021   2.984   6.520   3.581 -0.0942 -0.0977  0.6890
15023SOL     OW48022   0.591   0.404   1.299  0.2367  0.3110  0.1089
15023SOL    HW148023   0.506   0.433   1.332  0.2229 -0.3864  0.7067
15023SOL    HW248024   0.654   0.459   1.346  0.1600  0.2041  0.3369
15024SOL     OW48025   0.747   1.602   1.326 -0.0075 -0.2503 -0.1362
15024SOL    HW148026   0.799   1.522   1.332 -1.3366 -1.1532 -0.2472
15024SOL    HW248027   0.799   1.668   1.372  0.4795 -1.5273  1.2177
15025SOL     OW48028   6.965   3.100   0.969 -0.1699 -0.2925  0.5273
15025SOL    HW148029   7.042   3.152   0.995  1.3845 -1.2457 -1.8332
15025SOL    HW248030   6.916   3.159   0.912  0.8519 -0.8601 -1.0049
15026SOL     OW48031   2.595   2.120   3.641 -0.1307 -0.6163  0.5525
15026SOL    HW148032   2.563   2.043   3.592 -0.3648 -0.0827 -0.1529
15026SOL    HW248033   2.558   2.195   3.594  1.2551 -0.0115  0.3846
15027SOL     OW48034   7.803   7.051   6.515  0.1359  0.6483 -0.6374
15027SOL    HW148035   7.842   7.055   6.427  1.2985 -0.2057 -0.1938
15027SOL    HW248036   7.709   7.041   6.500  0.1135  2.1972 -1.7600
15028SOL     OW48037   0.840   1.244   6.469  0.7269  0.2659 -0.0503
15028SOL    HW148038   0.770   1.260   6.532  1.8562 -0.3609  1.4075
15028SOL    HW248039   0.901   1.317   6.482  0.5568  0.6088 -1.0600
15029SOL     OW48040   3.047   1.456   3.046 -0.6101  0.7375 -0.3004
15029SOL    HW148041   3.128   1.425   3.006 -0.9486  1.2103 -1.3857
15029SOL    HW248042   3.020   1.385   3.105  1.3623  1.1936  1.2648
15030SOL     OW48043   1.634   2.253   0.402 -0.2463 -0.2181 -1.0071
15030SOL    HW148044   1.570   2.297   0.346 -0.2885 -3.3806 -3.8023
15030SOL    HW248045   1.717   2.260   0.354  0.0051 -1.9363 -0.8793
15031SOL     OW48046   4.081   0.692   2.134  0.2734 -0.2222 -0.2960
15031SOL    HW148047   4.133   0.670   2.057 -0.7311  0.0671 -1.0791
15031SOL    HW248048   4.125   0.648   2.206 -0.1927 -2.7072 -1.4124
15032SOL     OW48049   2.709   1.665   2.755 -0.0903 -0.2076  0.1970
15032SOL    HW148050   2.775   1.597   2.764 -0.6105 -0.5875  1.4515
15032SOL    HW248051   2.695   1.674   2.661  0.5590 -1.2662 -0.0128
15033SOL     OW48052   4.536   2.532   2.513 -0.2299  0.3679 -0.0144
15033SOL    HW148053   4.567   2.599   2.452 -1.0476  1.7210  1.0209
15033SOL    HW248054   4.616   2.489   2.543  0.2012 -0.1806 -1.8413
15034SOL     OW48055   4.321   4.187   7.278  0.6413  0.0467 -0.3340
15034SOL    HW148056   4.272   4.105   7.268  1.8191 -0.8696  0.9735
15034SOL    HW248057   4.379   4.190   7.202 -0.8591  0.7500 -1.4814
15035SOL     OW48058   1.398   3.315   4.136 -0.7388  0.0754 -0.0591
15035SOL    HW148059   1.306   3.299   4.156 -1.0406 -0.1529 -1.5593
15035SOL    HW248060   1.424   3.385   4.196 -2.2004  0.9353 -0.4052
15036SOL     OW48061   5.972   3.745   0.462  0.3932 -0.2974 -0.0407
15036SOL    HW148062   5.931   3.670   0.420 -1.9304  0.3833  0.8847
15036SOL    HW248063   5.900   3.791   0.506  2.2437  0.5655  2.3294
15037SOL     OW48064   7.994   0.028   0.298 -0.0094 -0.0682 -0.2204
15037SOL    HW148065   8.080   0.008   0.334 -0.5019 -0.4247  0.7861
15037SOL    HW248066   8.009   0.041   0.204  1.2052  0.3355  0.0202
15038SOL     OW48067   6.539   2.179   7.640  0.5848 -0.3271  0.0768
15038SOL    HW148068   6.606   2.241   7.613 -0.4403  0.7033 -0.1601
15038SOL    HW248069   6.528   2.121   7.565  1.1710 -0.4730  0.1001
15039SOL     OW48070   6.195   2.869   4.082  0.6269 -0.0710  0.6195
15039SOL    HW148071   6.274   2.849   4.132  1.5779  0.8713 -0.4565
15039SOL    HW248072   6.167   2.955   4.114  0.2285 -0.2489  0.7567
15040SOL     OW48073   5.082   4.526   7.731 -0.0222 -0.0362 -0.7390
15040SOL    HW148074   5.021   4.453   7.730 -2.8919  2.1781 -1.0076
15040SOL    HW248075   5.124   4.522   7.817 -1.3306 -1.0387 -0.1204
15041SOL     OW48076   7.463   0.587   5.942 -0.1467  0.7597  0.3008
15041SOL    HW148077   7.473   0.678   5.912  0.5554  0.9170  1.0039
15041SOL    HW248078   7.499   0.586   6.030  1.6547 -0.6229 -0.3792
15042SOL     OW48079   4.966   3.068   2.842 -1.0065  0.5633  0.3562
15042SOL    HW148080   5.018   3.107   2.912 -0.1003 -1.2838  0.7606
15042SOL    HW248081   4.993   3.115   2.763 -0.3555  1.1148  0.8960
15043SOL     OW48082   1.709   3.676   6.195 -0.1591  0.1898 -0.1384
15043SOL    HW148083   1.750   3.590   6.205 -0.6351 -0.0290 -0.0492
15043SOL    HW248084   1.747   3.711   6.114 -0.8344 -0.5985 -0.8087
15044SOL     OW48085   1.651   2.033   2.259 -0.2433  0.0442 -0.9418
15044SOL    HW148086   1.722   2.053   2.199  0.4577 -0.3898 -0.2839
15044SOL    HW248087   1.588   1.983   2.207 -0.2572  0.7534 -1.6265
15045SOL     OW48088   5.035   7.218   7.814 -0.4134 -0.5885  0.2595
15045SOL    HW148089   4.969   7.249   7.876 -1.1615 -0.3848 -0.6209
15045SOL    HW248090   5.042   7.124   7.833 -0.8295 -0.5799  0.4711
15046SOL     OW48091   5.355   4.451   1.195 -0.4198  0.0847 -0.0445
15046SOL    HW148092   5.444   4.471   1.165  0.7208 -1.8198  1.8258
15046SOL    HW248093   5.324   4.533   1.233  0.6423  0.6990 -0.4627
15047SOL     OW48094   6.551   2.948   4.004  0.2171 -0.1243  0.4982
15047SOL    HW148095   6.468   2.983   4.038 -0.5681 -1.5255  0.1065
15047SOL    HW248096   6.524   2.885   3.937  1.6579  0.4827 -0.6920
15048SOL     OW48097   4.209   7.002   4.874  0.4250 -0.2750 -0.4953
15048SOL    HW148098   4.128   7.046   4.846  0.3890  0.3302  0.5282
15048SOL    HW248099   4.236   6.952   4.797 -1.0653 -0.6988 -0.7736
15049SOL     OW48100   4.744   7.627   4.422  0.3161 -0.4573 -0.0797
15049SOL    HW148101   4.663   7.577   4.433  0.3161 -0.7706 -1.4222
15049SOL    HW248102   4.800   7.571   4.368  0.8867  0.3567 -0.3452
15050SOL     OW48103   1.599   6.529   5.641 -0.0202 -0.3292 -0.3882
15050SOL    HW148104   1.607   6.570   5.727 -1.4061  0.8091 -0.7582
15050SOL    HW248105   1.509   6.496   5.639 -0.6518  1.2866 -2.0269
15051SOL     OW48106   5.881   6.900   0.602 -0.2576 -0.2687  0.3513
15051SOL    HW148107   5.913   6.836   0.539 -2.0424 -2.0197  1.1086
15051SOL    HW248108   5.890   6.985   0.557 -0.2116 -1.3069 -1.7081
15052SOL     OW48109   2.483   4.193   7.557  0.1047 -0.2434  0.3194
15052SOL    HW148110   2.548   4.233   7.614 -0.3623  2.5369 -0.9472
15052SOL    HW248111   2.410   4.171   7.616  1.1992 -1.2099  1.3656
15053SOL     OW48112   4.230   4.969   3.265 -0.0140  0.5069 -0.0506
15053SOL    HW148113   4.294   4.986   3.195  1.4459 -1.1270  0.8152
15053SOL    HW248114   4.282   4.966   3.345 -1.4422  0.7832  0.9265
15054SOL     OW48115   8.112   0.968   1.612 -0.1532 -0.8224  0.3026
15054SOL    HW148116   8.040   0.907   1.622 -1.2347  0.0820 -1.5523
15054SOL    HW248117   8.109   1.022   1.692 -1.3358 -0.9801  0.3823
15055SOL     OW48118   2.248   0.069   3.404 -0.5327  0.1558  0.4803
15055SOL    HW148119   2.258   0.163   3.423 -1.2038  0.2515  0.4036
15055SOL    HW248120   2.267   0.062   3.310 -1.1368  0.3302  0.3380
15056SOL     OW48121   6.201   5.284   6.538  0.1101  0.0780 -0.1861
15056SOL    HW148122   6.279   5.289   6.593  0.7117 -1.3073 -0.8836
15056SOL    HW248123   6.170   5.194   6.548 -1.7423  0.7475  0.5126
15057SOL     OW48124   2.922   3.122   0.890  0.7539 -0.9461  0.7190
15057SOL    HW148125   2.876   3.141   0.972  0.2733 -2.4265  0.8257
15057SOL    HW248126   3.013   3.104   0.917  1.1207  0.6794  0.6560
15058SOL     OW48127   2.008   6.462   5.461  0.3104 -0.3513  0.0948
15058SOL    HW148128   1.956   6.411   5.524  0.3742  0.3929  0.7695
15058SOL    HW248129   2.099   6.451   5.491  0.1752  1.7058  1.4448
15059SOL     OW48130   5.610   3.837   6.757 -0.4407  0.3162 -0.0040
15059SOL    HW148131   5.678   3.787   6.712  0.3699  0.0682  1.4259
15059SOL    HW248132   5.655   3.878   6.831 -1.7634  0.4606  0.7526
15060SOL     OW48133   4.348   6.595   6.550  0.3043 -0.4447 -0.5313
15060SOL    HW148134   4.442   6.585   6.564  0.4309  0.2776 -0.8238
15060SOL    HW248135   4.333   6.561   6.461  0.2579 -0.7003 -0.4284
15061SOL     OW48136   1.369   1.641   2.860 -0.3498  0.4714 -0.0674
15061SOL    HW148137   1.446   1.694   2.839 -0.6095  0.2503 -1.7553
15061SOL    HW248138   1.375   1.626   2.954  1.0960  1.3412  0.0154
15062SOL     OW48139   7.033   2.179   5.801  0.3289  0.0635  0.4968
15062SOL    HW148140   7.068   2.243   5.739  1.4569 -1.0733 -0.0886
15062SOL    HW248141   6.943   2.163   5.771  0.1579  1.0772  0.4373
15063SOL     OW48142   5.762   2.225   4.229  0.4453 -0.1069 -0.6183
15063SOL    HW148143   5.788   2.228   4.321  0.5236  0.2802 -0.6523
15063SOL    HW248144   5.758   2.316   4.202 -0.2690 -0.1883 -0.8076
15064SOL     OW48145   0.394   4.200   6.445  0.0662 -0.3738  0.4849
15064SOL    HW148146   0.441   4.125   6.410  0.9258  0.1854  0.4271
15064SOL    HW248147   0.461   4.267   6.457 -0.8135  0.6488 -0.1784
15065SOL     OW48148   0.948   1.177   7.090  0.1686 -0.2834 -0.1109
15065SOL    HW148149   0.869   1.205   7.137  0.8158 -0.3776  1.0556
15065SOL    HW248150   0.929   1.088   7.062 -0.0471 -0.3861  0.3637
15066SOL     OW48151   7.270   1.206   7.393 -0.2631  0.2210  0.0861
15066SOL    HW148152   7.283   1.163   7.308  1.0823  0.2999  0.2428
15066SOL    HW248153   7.266   1.299   7.372  2.3084  0.4395  0.3013
15067SOL     OW48154   0.712   4.043   4.239  0.1579  0.0758  0.0630
15067SOL    HW148155   0.655   4.042   4.162  0.1120 -0.9834  0.1032
15067SOL    HW248156   0.798   4.070   4.206 -0.1127  0.6563 -0.1734
15068SOL     OW48157   6.263   6.705   7.982 -0.5042 -0.2560 -0.8423
15068SOL    HW148158   6.292   6.675   8.068  1.8860  0.3397 -1.3564
15068SOL    HW248159   6.181   6.659   7.967 -0.4280 -1.2153  1.2722
15069SOL     OW48160   3.748   5.064   0.878 -0.1911  0.0595 -1.1565
15069SOL    HW148161   3.754   5.126   0.806 -0.3688  0.1196 -1.1206
15069SOL    HW248162   3.663   5.082   0.918 -1.5466 -2.0950 -2.8712
15070SOL     OW48163   8.096   5.509   7.055 -0.0996 -0.0367  0.4855
15070SOL    HW148164   8.010   5.471   7.071  0.7487 -1.9785  0.8290
15070SOL    HW248165   8.146   5.486   7.134  0.5480  1.6678  0.6038
15071SOL     OW48166   2.940   1.229   0.769 -0.0971 -0.0186 -0.0049
15071SOL    HW148167   2.989   1.251   0.849  0.3639 -0.5313 -0.1458
15071SOL    HW248168   2.953   1.305   0.712 -1.1935  0.7624  0.7513
15072SOL     OW48169   6.929   1.448   6.014  0.0657  0.3950 -0.2041
15072SOL    HW148170   6.994   1.518   6.017  0.5712 -0.0929  0.9681
15072SOL    HW248171   6.957   1.392   5.943  2.8098 -1.5097  2.1364
15073SOL     OW48172   3.669   7.412   4.672  0.6479  0.0617 -0.1455
15073SOL    HW148173   3.630   7.329   4.643  0.9233 -0.5742  1.2538
15073SOL    HW248174   3.751   7.418   4.623  0.0196  0.1708 -1.2219
15074SOL     OW48175   7.823   7.754   6.575  0.2305 -0.5656 -0.3392
15074SOL    HW148176   7.728   7.744   6.568  0.0750 -1.4744  2.1074
15074SOL    HW248177   7.842   7.834   6.527 -1.5966 -0.9158 -1.7842
15075SOL     OW48178   4.477   5.622   0.145  0.3329  0.4084 -0.0484
15075SOL    HW148179   4.503   5.651   0.233 -2.1641 -1.1717  1.3626
15075SOL    HW248180   4.394   5.668   0.128  0.8289  0.7685 -1.6719
15076SOL     OW48181   2.977   4.023   3.058  0.3412  0.1043  0.6236
15076SOL    HW148182   2.980   3.930   3.035  0.5934  0.4276 -0.7886
15076SOL    HW248183   2.966   4.025   3.153  1.0185 -1.3633  0.7517
15077SOL     OW48184   6.067   6.037   3.711 -0.3082 -0.0579  0.3434
15077SOL    HW148185   6.143   6.077   3.754 -0.5263  1.2158 -0.3857
15077SOL    HW248186   6.101   5.957   3.672  0.6959  0.5177 -0.0268
15078SOL     OW48187   7.228   5.365   5.449 -0.7229  0.2231 -0.0635
15078SOL    HW148188   7.259   5.282   5.486 -1.4062 -0.4801 -1.0353
15078SOL    HW248189   7.214   5.346   5.356  2.2156  2.2932 -1.0477
15079SOL     OW48190   2.077   5.257   5.176 -0.4304 -0.2304  0.1702
15079SOL    HW148191   2.050   5.339   5.217 -0.8309 -0.0374 -0.4704
15079SOL    HW248192   2.172   5.254   5.186 -0.2269  1.0352 -1.1096
15080SOL     OW48193   5.947   4.249   1.729  0.8706  0.2707 -0.4826
15080SOL    HW148194   5.913   4.172   1.683  0.8206  0.4911 -0.8100
15080SOL    HW248195   6.042   4.240   1.722  0.9024 -0.3936  0.5124
15081SOL     OW48196   3.096   1.807   7.121 -0.0809  0.3934 -0.0970
15081SOL    HW148197   3.131   1.876   7.177  1.2703 -0.3915  0.0909
15081SOL    HW248198   3.173   1.774   7.073 -0.8475 -0.3518 -0.8626
15082SOL     OW48199   7.474   1.005   0.375 -0.7562 -0.2200  0.1080
15082SOL    HW148200   7.505   0.978   0.462  2.5760 -1.6677 -1.3334
15082SOL    HW248201   7.503   1.096   0.367 -0.6455 -0.2322  0.3523
15083SOL     OW48202   2.959   2.177   6.874 -0.2770  0.3912  0.1672
15083SOL    HW148203   2.995   2.123   6.803  0.4914  2.3242 -0.9914
15083SOL    HW248204   2.865   2.160   6.872 -0.0496 -0.9746 -0.0652
15084SOL     OW48205   6.096   2.073   5.777 -0.1343 -0.5154  0.1845
15084SOL    HW148206   6.052   1.997   5.739 -1.0899  0.5860 -0.9872
15084SOL    HW248207   6.030   2.112   5.834  0.3487 -0.5388  0.7677
15085SOL     OW48208   6.245   5.564   7.402  0.3684 -0.0414 -0.0140
15085SOL    HW148209   6.277   5.547   7.491  1.5960 -0.2538 -0.4769
15085SOL    HW248210   6.307   5.518   7.345  0.3996  1.2062 -1.0327
15086SOL     OW48211   3.056   1.541   0.339 -0.4891  0.2364 -0.3558
15086SOL    HW148212   3.038   1.509   0.251  1.5108  0.9445 -1.0717
15086SOL    HW248213   3.006   1.622   0.345 -1.3786 -0.2901 -0.4753
15087SOL     OW48214   5.728   5.470   2.095  0.5163  0.4403  0.4533
15087SOL    HW148215   5.679   5.478   2.177 -1.2308  2.2136 -0.6374
15087SOL    HW248216   5.715   5.380   2.068  2.1684 -0.5471  2.6614
15088SOL     OW48217   4.424   1.117   3.216 -0.9226 -0.2169  0.2656
15088SOL    HW148218   4.396   1.051   3.279 -3.1002 -0.1413 -0.5285
15088SOL    HW248219   4.417   1.200   3.264 -2.6924 -0.1468 -0.0227
15089SOL     OW48220   6.296   5.341   6.858 -0.0023  0.1294 -0.1283
15089SOL    HW148221   6.269   5.266   6.911  0.4400  0.7411  0.9984
15089SOL    HW248222   6.367   5.308   6.803  0.3260 -0.2203  0.5044
15090SOL     OW48223   2.468   6.353   5.267  0.0432  0.5689 -0.0231
15090SOL    HW148224   2.453   6.445   5.243 -1.7127  0.5395  0.7857
15090SOL    HW248225   2.522   6.318   5.196 -2.4481  1.2361 -2.4329
15091SOL     OW48226   0.885   0.218   2.938  0.0241 -0.4574 -0.4840
15091SOL    HW148227   0.905   0.286   3.003  1.5421 -0.2680 -1.1142
15091SOL    HW248228   0.790   0.224   2.927 -0.2671 -0.3606  1.5406
15092SOL     OW48229   5.865   1.256   6.461  0.5458  0.5325 -0.2406
15092SOL    HW148230   5.790   1.214   6.502  1.9823 -0.9902  0.9335
15092SOL    HW248231   5.877   1.209   6.378  0.0467  1.0000 -0.5915
15093SOL     OW48232   1.321   3.948   7.284  0.4353 -0.1280 -0.1926
15093SOL    HW148233   1.265   3.925   7.210 -1.4298  0.3846  0.9859
15093SOL    HW248234   1.298   4.039   7.303  0.9344 -0.2286  0.9609
15094SOL     OW48235   6.307   6.155   3.155  0.2341 -0.7585 -0.2253
15094SOL    HW148236   6.289   6.088   3.221 -1.8022 -0.8122 -0.7673
15094SOL    HW248237   6.319   6.235   3.206 -0.1321 -1.0196  0.2880
15095SOL     OW48238   7.832   1.428   1.032  0.1985  0.0019 -0.0232
15095SOL    HW148239   7.769   1.411   0.962 -1.0432  0.0037  1.0537
15095SOL    HW248240   7.905   1.369   1.013  0.8163  1.3827 -2.4060
15096SOL     OW48241   6.807   0.880   6.617  0.1303  0.4225  0.5129
15096SOL    HW148242   6.769   0.917   6.536 -1.4095 -0.7279  0.6716
15096SOL    HW248243   6.898   0.908   6.615  0.0610  0.6662 -1.4915
15097SOL     OW48244   5.409   6.199   1.859  0.8143  0.0433  0.3419
15097SOL    HW148245   5.325   6.153   1.856  1.3388 -0.9779  0.6950
15097SOL    HW248246   5.398   6.274   1.800 -0.2348 -0.2459  0.1489
15098SOL     OW48247   8.060   2.198   1.652  0.0583  0.4897  0.2410
15098SOL    HW148248   8.117   2.123   1.637 -0.8847 -0.4796  1.3119
15098SOL    HW248249   7.972   2.166   1.632 -0.2967  1.5126  0.0759
15099SOL     OW48250   7.085   2.039   4.041  0.2360  0.2562 -0.4812
15099SOL    HW148251   7.095   1.973   3.971  0.8256  0.5073 -0.6383
15099SOL    HW248252   7.072   1.987   4.120  0.6581 -0.0519 -0.6099
15100SOL     OW48253   4.297   1.064   7.567  0.2184  0.1554 -0.0255
15100SOL    HW148254   4.217   1.046   7.615  0.1272  0.4749 -0.0578
15100SOL    HW248255   4.352   1.113   7.628  1.0189 -1.3739  0.5396
15101SOL     OW48256   0.963   1.898   4.923  0.1366 -0.2307  0.4678
15101SOL    HW148257   1.028   1.911   4.993  1.2339  0.3509 -0.6158
15101SOL    HW248258   0.933   1.987   4.902 -1.5445 -0.5447  1.4079
15102SOL     OW48259   6.975   3.367   0.404  0.4653 -0.1817 -0.2557
15102SOL    HW148260   6.924   3.295   0.369  0.8991 -0.0254 -1.2478
15102SOL    HW248261   7.044   3.381   0.339  2.3501 -0.9957  1.4394
15103SOL     OW48262   2.757   1.327   2.230  0.1352 -0.2298 -0.1475
15103SOL    HW148263   2.669   1.361   2.242 -1.4445 -3.7195 -0.7228
15103SOL    HW248264   2.778   1.348   2.139 -1.6014 -2.2201 -1.0939
15104SOL     OW48265   2.601   3.269   3.992 -0.4875 -0.7244  0.2060
15104SOL    HW148266   2.594   3.181   3.956 -1.7744 -0.5385 -0.0257
15104SOL    HW248267   2.695   3.283   4.002 -0.2085 -1.6260 -0.9793
15105SOL     OW48268   2.076   6.467   6.948  0.1202 -0.0409  0.0929
15105SOL    HW148269   2.096   6.449   6.856  1.3748  0.2413  0.2983
15105SOL    HW248270   2.146   6.425   6.997  1.0741  2.2103  0.7631
15106SOL     OW48271   7.772   6.358   5.427 -0.2033 -0.2429 -0.1213
15106SOL    HW148272   7.774   6.340   5.333  1.3996 -2.3310  0.2271
15106SOL    HW248273   7.832   6.433   5.438  1.2385 -1.2744 -0.5998
15107SOL     OW48274   5.908   0.831   1.525 -0.5085 -0.2900 -0.4216
15107SOL    HW148275   6.001   0.841   1.505 -0.6947 -1.3910 -2.0020
15107SOL    HW248276   5.870   0.917   1.509  0.0323 -0.1653 -1.0877
15108SOL     OW48277   1.610   2.985   4.609 -0.4585  0.4862  0.3604
15108SOL    HW148278   1.626   2.987   4.703 -1.5506  0.4177  0.5628
15108SOL    HW248279   1.553   2.909   4.596  0.4934 -0.1021 -0.5019
15109SOL     OW48280   0.703   7.101   7.400 -0.1707  0.0432  0.2639
15109SOL    HW148281   0.797   7.117   7.400 -0.1276 -0.2073 -0.1097
15109SOL    HW248282   0.695   7.005   7.404 -0.4179  0.0970  1.5205
15110SOL     OW48283   3.121   3.493   0.725  0.1939  1.0042  0.2111
15110SOL    HW148284   3.040   3.446   0.707 -0.2307  1.9867 -0.5465
15110SOL    HW248285   3.187   3.449   0.671  0.8308 -1.5314  2.8163
15111SOL     OW48286   1.688   4.642   5.363  0.2817 -0.2930 -0.0752
15111SOL    HW148287   1.742   4.717   5.387  0.0069  0.3740 -1.4285
15111SOL    HW248288   1.743   4.566   5.382  1.4224  0.3360 -0.7357
15112SOL     OW48289   5.543   3.629   1.197  0.1002 -0.4433 -0.5720
15112SOL    HW148290   5.571   3.681   1.122 -1.2604  0.5935 -0.4012
15112SOL    HW248291   5.574   3.540   1.178 -1.6412 -0.6076 -3.2176
15113SOL     OW48292   2.970   4.485   4.585  0.3292  0.3719 -0.3548
15113SOL    HW148293   3.001   4.576   4.588  3.0414 -0.4522 -0.5284
15113SOL    HW248294   2.977   4.455   4.675  1.7484 -0.3144 -0.6695
15114SOL     OW48295   1.645   2.663   5.111 -0.3101 -0.6673  0.1529
15114SOL    HW148296   1.636   2.587   5.169 -0.4197 -0.4851  0.3805
15114SOL    HW248297   1.667   2.626   5.026  1.3938 -0.8728  0.6341
15115SOL     OW48298   3.615   2.506   2.312  0.1774 -0.2784  0.3999
15115SOL    HW148299   3.625   2.411   2.315 -1.0154 -0.4287  0.0416
15115SOL    HW248300   3.688   2.539   2.365  0.8924 -1.3626  0.1214
15116SOL     OW48301   1.541   0.557   2.630  0.3133  0.1994  0.1202
15116SOL    HW148302   1.536   0.537   2.537  1.4994 -1.0804  0.2869
15116SOL    HW248303   1.457   0.529   2.665 -0.4057  1.3307 -0.6600
15117SOL     OW48304   3.469   0.987   4.773 -0.3956 -0.3205  0.6087
15117SOL    HW148305   3.532   1.008   4.704 -0.9352  0.1126  0.2351
15117SOL    HW248306   3.475   0.892   4.784  0.6183 -0.2350  0.8742
15118SOL     OW48307   5.602   6.575   5.445 -0.2274 -0.0591 -0.1042
15118SOL    HW148308   5.632   6.663   5.467 -2.4238  0.0912  2.9105
15118SOL    HW248309   5.537   6.588   5.376 -2.0907  1.0921  1.7190
15119SOL     OW48310   2.655   1.995   5.088  0.3299  0.5654  0.6178
15119SOL    HW148311   2.659   2.089   5.068  1.9811  0.2477 -0.8474
15119SOL    HW248312   2.745   1.971   5.106  0.3667 -1.1734 -1.4318
15120SOL     OW48313   4.289   5.865   3.692 -0.5875 -0.0838  0.3530
15120SOL    HW148314   4.266   5.941   3.746 -0.1581 -0.5251  1.1896
15120SOL    HW248315   4.305   5.795   3.756 -1.6004 -1.0556 -0.4165
15121SOL     OW48316   2.077   7.713   7.892  0.4859  0.1751 -0.3870
15121SOL    HW148317   1.990   7.694   7.856 -0.6489 -2.0879  3.0429
15121SOL    HW248318   2.138   7.673   7.830 -1.1245 -0.9387 -1.3292
15122SOL     OW48319   3.840   4.547   1.848  0.4382  0.4674 -0.0905
15122SOL    HW148320   3.823   4.498   1.768 -1.6267 -1.0758  1.2077
15122SOL    HW248321   3.757   4.589   1.869  0.5764 -0.1075  1.8250
15123SOL     OW48322   6.942   6.904   5.727  0.2445  0.3548  0.4446
15123SOL    HW148323   7.000   6.964   5.680 -1.7789  2.0950  0.0423
15123SOL    HW248324   6.900   6.853   5.658 -0.5469  0.8654  0.5395
15124SOL     OW48325   2.403   1.394   6.715 -0.4141 -0.1248 -0.1691
15124SOL    HW148326   2.461   1.454   6.762  1.0665 -2.1945  0.8246
15124SOL    HW248327   2.378   1.441   6.636 -0.8482  2.4664  1.4062
15125SOL     OW48328   0.203   5.046   1.212  0.7723 -1.0314  0.0723
15125SOL    HW148329   0.184   4.963   1.255  0.3405 -1.2413 -0.5094
15125SOL    HW248330   0.297   5.045   1.196  0.8432 -1.1950  0.5098
15126SOL     OW48331   4.371   7.816   0.268 -0.1517  0.2356  0.0542
15126SOL    HW148332   4.450   7.762   0.273 -0.0239  0.3450 -0.6571
15126SOL    HW248333   4.332   7.810   0.355  0.7825  0.4010  0.4926
15127SOL     OW48334   5.759   0.958   0.854  0.0671 -0.7134 -0.0500
15127SOL    HW148335   5.741   0.952   0.948 -0.8307 -0.1958 -0.1721
15127SOL    HW248336   5.696   1.023   0.822  2.4408  1.5624 -0.4690
15128SOL     OW48337   1.312   1.558   7.650 -0.4165  0.1134 -0.2226
15128SOL    HW148338   1.217   1.566   7.637 -0.3380  1.2743 -0.2406
15128SOL    HW248339   1.326   1.590   7.739  0.2301  2.6326 -1.1474
15129SOL     OW48340   6.809   0.790   6.254  0.1681 -0.1390 -0.5304
15129SOL    HW148341   6.886   0.797   6.310  0.1568 -0.1027 -0.5193
15129SOL    HW248342   6.837   0.829   6.171  0.1820 -0.1855 -0.5473
15130SOL     OW48343   1.298   0.161   7.693  0.1058 -0.2257  0.3400
15130SOL    HW148344   1.348   0.116   7.761  0.1638  0.3438  0.6868
15130SOL    HW248345   1.364   0.213   7.647 -0.1640  0.5743  0.8343
15131SOL     OW48346   5.612   4.533   1.123 -0.0773 -0.8828 -0.6532
15131SOL    HW148347   5.696   4.556   1.083 -0.0134 -0.4743 -0.2846
15131SOL    HW248348   5.634   4.463   1.185 -0.3829 -2.5381 -2.3179
15132SOL     OW48349   1.299   3.062   7.829  0.0895  0.1170 -0.7842
15132SOL    HW148350   1.214   3.096   7.801 -1.0505 -1.5052  0.5060
15132SOL    HW248351   1.324   3.119   7.902  0.5085  1.0686 -1.6498
15133SOL     OW48352   2.195   7.139   4.562 -0.1638  0.0119 -0.5554
15133SOL    HW148353   2.196   7.119   4.656 -1.1996  0.0301 -0.5252
15133SOL    HW248354   2.235   7.225   4.555  1.0039 -0.4856 -0.2726
15134SOL     OW48355   1.122   4.977   5.788  0.5668 -0.0708 -0.1998
15134SOL    HW148356   1.116   4.902   5.846  0.6854  0.7890  0.9527
15134SOL    HW248357   1.212   4.975   5.754  0.3135 -0.9174 -0.8471
15135SOL     OW48358   2.721   0.678   4.697  0.6323 -0.1390  0.4997
15135SOL    HW148359   2.665   0.617   4.745 -0.2246  0.5542  0.4035
15135SOL    HW248360   2.803   0.631   4.685  0.6767 -0.5361  2.1642
15136SOL     OW48361   4.146   5.323   6.310  0.5735  0.1591 -0.5245
15136SOL    HW148362   4.136   5.309   6.404  0.4920  2.8253 -0.0796
15136SOL    HW248363   4.064   5.362   6.281 -0.3084 -2.6766 -2.2361
15137SOL     OW48364   6.197   1.434   1.526  0.2167  0.0892 -0.0144
15137SOL    HW148365   6.221   1.341   1.523 -0.5998 -0.1983  1.5026
15137SOL    HW248366   6.101   1.434   1.523  0.1197  0.7476  1.8538
15138SOL     OW48367   7.632   0.150   2.607  0.6123 -0.0170 -0.1231
15138SOL    HW148368   7.604   0.067   2.568  0.6756 -0.6343  1.0872
15138SOL    HW248369   7.727   0.153   2.591  1.1264 -1.5288  2.1021
15139SOL     OW48370   3.302   6.189   3.948 -0.3727 -0.1446 -0.1008
15139SOL    HW148371   3.298   6.105   3.902  0.2241  0.0567 -0.5446
15139SOL    HW248372   3.225   6.190   4.005 -0.1292 -1.1970  0.2664
15140SOL     OW48373   2.701   3.176   7.616 -0.1680 -0.6956  0.0371
15140SOL    HW148374   2.614   3.215   7.619 -0.2244 -0.5251 -2.1108
15140SOL    HW248375   2.689   3.093   7.571  0.7078 -0.8644  0.0843
15141SOL     OW48376   8.021   7.336   0.385  0.2126  0.3931  0.6636
15141SOL    HW148377   7.955   7.285   0.431 -0.0076 -0.4333 -0.4974
15141SOL    HW248378   8.046   7.405   0.446 -1.2233  0.3105  1.3797
15142SOL     OW48379   5.619   3.373   1.200  0.2925  0.2375  0.0807
15142SOL    HW148380   5.583   3.355   1.287 -0.3323 -0.2500 -0.2690
15142SOL    HW248381   5.708   3.338   1.203  0.4596  0.7014  0.6899
15143SOL     OW48382   4.539   8.045   3.845 -0.5235 -0.2125 -0.0509
15143SOL    HW148383   4.494   8.050   3.760  0.8421  1.6388 -0.7246
15143SOL    HW248384   4.616   7.990   3.828 -0.9581 -0.9780  0.3728
15144SOL     OW48385   4.585   4.288   1.567 -0.4582  0.3904 -0.1393
15144SOL    HW148386   4.528   4.215   1.542  2.5534 -1.1545 -3.3724
15144SOL    HW248387   4.596   4.338   1.486  0.7689  2.1258  1.0354
15145SOL     OW48388   2.378   7.977   7.945 -0.2268 -0.5221 -0.2629
15145SOL    HW148389   2.436   8.036   7.995 -0.8022  2.0903 -2.4328
15145SOL    HW248390   2.294   7.983   7.990 -0.3975  0.7298 -0.7089
15146SOL     OW48391   5.001   1.447   4.489 -0.0303 -0.3638  0.4388
15146SOL    HW148392   4.994   1.405   4.403  0.8241 -0.9527  0.6443
15146SOL    HW248393   5.057   1.523   4.475  0.2346 -0.5470  0.5063
15147SOL     OW48394   0.610   2.462   1.515  0.4451 -0.1261 -0.4147
15147SOL    HW148395   0.613   2.551   1.550 -1.3636  0.2028 -1.0130
15147SOL    HW248396   0.627   2.474   1.421  1.9767 -0.6469 -0.2426
15148SOL     OW48397   3.114   4.890   3.704  0.3223 -0.1010 -0.0161
15148SOL    HW148398   3.109   4.904   3.799 -1.7536  2.4669 -0.4032
15148SOL    HW248399   3.208   4.887   3.685  0.7878  0.5230  1.9553
15149SOL     OW48400   5.541   4.342   2.057 -0.3323  0.7274 -0.4909
15149SOL    HW148401   5.597   4.337   2.135  0.4516  2.1749 -0.9451
15149SOL    HW248402   5.455   4.366   2.091 -0.8190 -1.7202  0.2359
15150SOL     OW48403   6.280   3.965   0.053 -0.3053 -0.5558 -0.5634
15150SOL    HW148404   6.264   3.965  -0.042  1.5458 -0.6206 -0.9054
15150SOL    HW248405   6.366   4.005   0.063 -0.1849 -1.1541  1.0586
15151SOL     OW48406   1.749   5.088   4.437  0.2524  0.2254 -0.3676
15151SOL    HW148407   1.830   5.137   4.423  0.2515 -0.3651 -2.9557
15151SOL    HW248408   1.689   5.121   4.369 -1.0395 -0.6541  0.3132
15152SOL     OW48409   1.407   0.276   6.777 -0.3384  0.2312 -0.5047
15152SOL    HW148410   1.478   0.336   6.755  1.7957 -1.6263  0.8690
15152SOL    HW248411   1.427   0.247   6.866 -3.5165  0.4841  0.4236
15153SOL     OW48412   6.269   8.081   4.108 -0.5078 -0.2517 -0.2170
15153SOL    HW148413   6.246   8.019   4.038 -0.8150 -0.8327  0.3835
15153SOL    HW248414   6.187   8.123   4.131 -0.7822 -1.4079  1.0569
15154SOL     OW48415   0.868   0.848   4.150 -0.4581 -0.3712 -0.6330
15154SOL    HW148416   0.810   0.781   4.116 -2.1626  1.0319 -0.6516
15154SOL    HW248417   0.835   0.866   4.238 -1.1763  1.6156 -1.2412
15155SOL     OW48418   0.901   0.557   4.081 -0.3668 -0.0048  0.0337
15155SOL    HW148419   0.988   0.521   4.101  0.4608  2.0165  0.2434
15155SOL    HW248420   0.900   0.566   3.986 -0.6056 -0.5818 -0.0268
15156SOL     OW48421   4.211   0.976   6.053  0.4352 -0.0938 -0.4075
15156SOL    HW148422   4.130   1.013   6.087  0.5853  0.6192 -0.7972
15156SOL    HW248423   4.236   1.034   5.981  0.1127 -1.5640 -1.7683
15157SOL     OW48424   5.273   5.294   3.702  0.2631 -0.5185 -0.5076
15157SOL    HW148425   5.290   5.387   3.717  0.7538 -0.6029 -0.5329
15157SOL    HW248426   5.355   5.259   3.667 -0.0024 -0.9063 -0.7606
15158SOL     OW48427   7.582   0.523   0.258 -0.1856 -0.4376 -0.1019
15158SOL    HW148428   7.571   0.599   0.201  2.3695  0.5296  0.5884
15158SOL    HW248429   7.528   0.455   0.218 -1.4062  1.3001 -1.5406
15159SOL     OW48430   6.697   5.880   4.422  0.3711  0.0877 -0.0270
15159SOL    HW148431   6.753   5.879   4.499  0.0407 -0.6978  0.2173
15159SOL    HW248432   6.608   5.866   4.456  0.0776  0.8763 -0.4471
15160SOL     OW48433   2.738   2.955   1.233 -0.4786  0.1400  0.4058
15160SOL    HW148434   2.720   3.028   1.173 -0.7632 -0.7339 -0.6039
15160SOL    HW248435   2.805   2.903   1.188  0.1223  0.0600  1.3624
15161SOL     OW48436   7.072   6.379   6.396 -0.7384 -0.3366  0.1406
15161SOL    HW148437   7.073   6.332   6.313  0.1216 -1.6956  0.8816
15161SOL    HW248438   7.146   6.343   6.445 -1.1777  0.4863  1.4651
15162SOL     OW48439   4.000   3.239   7.892  0.4417 -0.0720  0.5306
15162SOL    HW148440   3.944   3.253   7.815  1.0869  1.6104  0.3132
15162SOL    HW248441   4.036   3.151   7.880  3.6402  1.4468 -3.2785
15163SOL     OW48442   5.644   6.474   1.057  0.7975 -0.3913 -0.1234
15163SOL    HW148443   5.692   6.530   1.118  0.2003 -0.7885  0.7354
15163SOL    HW248444   5.698   6.396   1.048  0.0983 -1.0896  1.2940
15164SOL     OW48445   5.000   6.293   6.987  1.1149 -0.3690  0.4656
15164SOL    HW148446   5.025   6.380   6.953  0.0470 -0.4973 -0.7173
15164SOL    HW248447   5.082   6.257   7.020  1.7816  0.6913  0.0543
15165SOL     OW48448   4.152   6.517   4.055 -0.0484 -0.6672  0.3916
15165SOL    HW148449   4.118   6.544   4.141 -1.2134 -0.8082 -0.0186
15165SOL    HW248450   4.075   6.514   3.998  0.9153  1.1662 -1.1400
15166SOL     OW48451   6.355   6.262   7.658  0.5315 -0.1552  0.1524
15166SOL    HW148452   6.268   6.237   7.627 -0.0816  2.0923 -0.0684
15166SOL    HW248453   6.398   6.300   7.582 -0.1268  3.2300  1.3244
15167SOL     OW48454   7.407   1.033   3.937  0.0950 -0.4411 -0.0676
15167SOL    HW148455   7.478   1.084   3.975 -0.6039  1.1214 -0.7774
15167SOL    HW248456   7.432   0.941   3.952  2.4628  0.0380 -0.6709
15168SOL     OW48457   2.137   1.400   4.057 -0.5925  0.1119  0.3744
15168SOL    HW148458   2.081   1.352   3.996 -0.7446  0.8608 -0.0832
15168SOL    HW248459   2.109   1.491   4.049  0.2747  0.4103  0.5889
15169SOL     OW48460   3.663   7.917   7.008  0.4684  0.6001  0.5985
15169SOL    HW148461   3.696   7.842   6.959 -0.6883  0.4505  0.0158
15169SOL    HW248462   3.672   7.991   6.948 -1.4013  0.3319 -0.0663
15170SOL     OW48463   3.026   4.869   2.869 -0.1092  0.2003  0.3872
15170SOL    HW148464   3.053   4.870   2.961  1.9446  0.9251 -0.1571
15170SOL    HW248465   3.021   4.776   2.847 -0.1262  0.0247  1.0844
15171SOL     OW48466   5.849   4.280   2.618 -0.4742 -0.1053  0.2577
15171SOL    HW148467   5.777   4.343   2.608  0.3529  1.0926  1.5236
15171SOL    HW248468   5.808   4.204   2.660 -1.2183  0.1114 -0.0552
15172SOL     OW48469   6.813   1.466   2.304 -0.1091  0.0675 -0.2467
15172SOL    HW148470   6.884   1.433   2.248 -0.0782 -2.9836  1.3444
15172SOL    HW248471   6.763   1.387   2.326 -2.4935  1.7763  0.7724
15173SOL     OW48472   7.322   1.995   8.125  0.3227 -0.7916 -0.5334
15173SOL    HW148473   7.257   2.064   8.134  0.6817 -0.5761  0.5462
15173SOL    HW248474   7.271   1.915   8.115 -0.2615 -1.0736  3.3512
15174SOL     OW48475   6.625   3.807   2.476 -0.1165  0.0210 -0.5093
15174SOL    HW148476   6.544   3.802   2.425  0.3481 -0.7949 -1.1987
15174SOL    HW248477   6.695   3.805   2.411  0.5090 -1.6358  0.1553
15175SOL     OW48478   3.099   2.119   6.221  0.1391 -0.1812  0.1913
15175SOL    HW148479   3.188   2.149   6.240  0.7410 -1.5145 -0.3469
15175SOL    HW248480   3.098   2.108   6.126  0.8935 -4.3179  0.4696
15176SOL     OW48481   5.717   1.598   6.280  0.0924 -0.1734  0.2562
15176SOL    HW148482   5.730   1.655   6.357 -0.5176  1.2359 -0.6396
15176SOL    HW248483   5.624   1.608   6.259  0.0684 -1.2225 -0.1664
15177SOL     OW48484   7.516   1.812   5.985  0.2249  0.2074 -0.0010
15177SOL    HW148485   7.423   1.821   5.966  0.0881  2.9397  1.5651
15177SOL    HW248486   7.560   1.845   5.906 -0.1428  0.5110 -0.0795
15178SOL     OW48487   2.223   7.431   1.684 -0.5014 -0.4157  0.1008
15178SOL    HW148488   2.215   7.505   1.744 -1.3729 -0.5515  0.1693
15178SOL    HW248489   2.289   7.458   1.620 -2.3242  1.3383 -1.1688
15179SOL     OW48490   3.382   0.049   2.365  0.6091  0.4148  0.0378
15179SOL    HW148491   3.297   0.022   2.400  0.6466  1.8051  1.3034
15179SOL    HW248492   3.364   0.130   2.319  1.1695  0.4379 -0.1481
15180SOL     OW48493   2.715   4.256   3.462 -0.3447 -1.4731 -0.3003
15180SOL    HW148494   2.626   4.262   3.495 -0.2609 -2.4103  0.1268
15180SOL    HW248495   2.709   4.201   3.385 -0.2709 -0.7461 -0.8349
15181SOL     OW48496   7.990   2.592   7.599  0.1597  0.1385  0.1950
15181SOL    HW148497   7.980   2.624   7.688 -2.3888 -0.2081  0.0943
15181SOL    HW248498   7.996   2.496   7.608  0.3802  0.1311  0.0049
15182SOL     OW48499   3.263   6.074   0.612 -0.3284 -0.4001  0.7254
15182SOL    HW148500   3.185   6.087   0.558 -0.0697 -2.2113 -0.1547
15182SOL    HW248501   3.234   6.094   0.701 -1.1632  1.1694  0.1341
15183SOL     OW48502   6.005   7.542   3.260 -0.1511 -0.1297  0.4207
15183SOL    HW148503   5.929   7.527   3.317 -0.1329  1.4341  0.8855
15183SOL    HW248504   5.983   7.620   3.210  0.1938 -0.9989 -1.1579
15184SOL     OW48505   7.441   4.513   7.092  0.0982  0.2633 -0.1427
15184SOL    HW148506   7.511   4.578   7.094 -0.8159  1.2897  2.1493
15184SOL    HW248507   7.464   4.450   7.159 -0.7199  0.1240  0.0222
15185SOL     OW48508   1.966   5.532   1.964  0.5297 -0.3254 -0.3173
15185SOL    HW148509   2.019   5.575   1.897  0.2888 -1.1653 -1.0747
15185SOL    HW248510   1.876   5.550   1.938  0.4221  1.0176  0.9133
15186SOL     OW48511   4.555   5.811   1.948  0.1056  0.6681 -0.0750
15186SOL    HW148512   4.649   5.825   1.944  1.5655 -5.6901  1.1855
15186SOL    HW248513   4.531   5.785   1.858 -0.7469  2.9023 -0.5559
15187SOL     OW48514   5.664   4.751   5.151 -0.8686  0.0489 -0.0744
15187SOL    HW148515   5.660   4.838   5.113  0.0802  0.1094 -0.0455
15187SOL    HW248516   5.756   4.738   5.175 -1.1865 -0.5344  0.9147
15188SOL     OW48517   3.912   7.943   0.437 -0.1984 -0.0410  0.0037
15188SOL    HW148518   3.927   7.872   0.375  0.5173 -0.0785  0.2216
15188SOL    HW248519   3.959   8.018   0.400 -0.3759  0.1336  0.1291
15189SOL     OW48520   1.038   3.817   0.074  0.7222 -0.9853 -0.4954
15189SOL    HW148521   0.964   3.808   0.014  1.4037  1.1170 -1.7255
15189SOL    HW248522   1.031   3.907   0.107  0.3239 -2.0566  2.7092
15190SOL     OW48523   0.187   3.247   1.904  0.0424  0.3216 -0.1643
15190SOL    HW148524   0.122   3.240   1.975  0.0002  0.9752 -0.1317
15190SOL    HW248525   0.138   3.224   1.825  0.1397 -0.6194  0.0316
15191SOL     OW48526   5.502   3.178   3.263 -0.4715  1.0915 -0.1548
15191SOL    HW148527   5.518   3.084   3.258  0.1102  1.1603  0.3376
15191SOL    HW248528   5.468   3.201   3.176 -2.9182  0.0273  0.4293
15192SOL     OW48529   8.031   0.139   4.957 -0.1857 -0.2533 -0.9671
15192SOL    HW148530   8.125   0.158   4.965  0.0227 -1.6795  0.6250
15192SOL    HW248531   8.028   0.047   4.931 -1.1475 -0.2426 -0.9134
15193SOL     OW48532   3.358   7.484   2.865 -0.0026  0.4861 -0.4664
15193SOL    HW148533   3.394   7.431   2.936  0.5174  1.8707  0.3259
15193SOL    HW248534   3.264   7.487   2.883 -0.3632 -1.6622 -1.5658
15194SOL     OW48535   3.704   0.378   1.496  0.1154 -0.1322  0.0481
15194SOL    HW148536   3.651   0.324   1.555 -2.0317 -0.5450 -2.0742
15194SOL    HW248537   3.741   0.316   1.434  0.1377  0.5379 -0.6169
15195SOL     OW48538   7.243   0.025   6.762  0.1310 -0.3234 -0.2402
15195SOL    HW148539   7.214   0.067   6.681 -1.1103 -1.7040 -0.5308
15195SOL    HW248540   7.198   0.073   6.831  1.2570  0.9144 -0.3162
15196SOL     OW48541   2.692   0.795   1.947  0.6342 -0.2477  0.0553
15196SOL    HW148542   2.778   0.756   1.934 -0.2558 -2.3006 -0.0393
15196SOL    HW248543   2.682   0.803   2.042  1.3123  0.9719  0.0399
15197SOL     OW48544   0.164   1.371   7.816  0.1261  0.0590 -0.0185
15197SOL    HW148545   0.238   1.401   7.764 -0.0266 -0.6718 -0.6776
15197SOL    HW248546   0.091   1.366   7.754 -0.6408  1.3072  0.7303
15198SOL     OW48547   5.832   0.888   6.779 -0.0099 -0.4367 -0.4150
15198SOL    HW148548   5.829   0.983   6.766 -0.5586 -0.6471 -1.9735
15198SOL    HW248549   5.752   0.868   6.828  1.4168  0.1864  2.4426
15199SOL     OW48550   2.221   4.953   7.069 -0.1681 -0.4747  0.1294
15199SOL    HW148551   2.184   4.895   7.136  0.0974  0.1072  0.7807
15199SOL    HW248552   2.222   5.039   7.109 -0.7792  0.0422 -0.9252
15200SOL     OW48553   4.083   6.137   5.651 -0.0793 -0.3696 -0.4007
15200SOL    HW148554   3.991   6.126   5.673  0.4556 -1.2382  1.6805
15200SOL    HW248555   4.128   6.072   5.706  1.6947 -0.5959 -2.0448
15201SOL     OW48556   1.750   7.622   0.637 -0.1157  0.0751 -0.6400
15201SOL    HW148557   1.729   7.551   0.577 -0.1250  0.2687 -0.8690
15201SOL    HW248558   1.816   7.586   0.696 -0.3764 -0.2348 -0.5301
15202SOL     OW48559   4.601   5.277   1.209  0.0590 -0.5502  0.9826
15202SOL    HW148560   4.606   5.365   1.172 -0.0947 -0.2697  1.6134
15202SOL    HW248561   4.508   5.262   1.223  0.0510 -0.9818  0.4963
15203SOL     OW48562   7.250   2.025   6.890  0.8054 -0.3106 -0.2561
15203SOL    HW148563   7.182   2.092   6.885 -1.6620 -2.7040 -1.5330
15203SOL    HW248564   7.292   2.038   6.975 -1.4343  1.1284  0.6933
15204SOL     OW48565   1.352   6.965   3.597 -0.1922  0.5275 -0.2393
15204SOL    HW148566   1.385   7.006   3.677  1.3171 -0.8687 -0.1059
15204SOL    HW248567   1.425   6.971   3.535 -0.2736 -1.0407 -0.5261
15205SOL     OW48568   0.340   3.275   1.489  0.4149  0.9559  0.2551
15205SOL    HW148569   0.367   3.236   1.572  0.3683  0.5196  0.0736
15205SOL    HW248570   0.396   3.351   1.478  1.7317 -0.0405 -0.2204
15206SOL     OW48571   4.236   3.510   5.859  0.6840  0.0886  0.1254
15206SOL    HW148572   4.202   3.567   5.790  0.2722  0.9372  1.0027
15206SOL    HW248573   4.248   3.568   5.934  0.6405 -0.9117  0.9286
15207SOL     OW48574   7.333   0.583   6.651 -0.3905 -0.3883 -0.3295
15207SOL    HW148575   7.260   0.543   6.603 -2.6716  0.5590  2.0646
15207SOL    HW248576   7.365   0.652   6.593 -0.4805 -1.7050 -1.9957
15208SOL     OW48577   6.106   1.925   7.653 -0.5547  0.4448 -0.3387
15208SOL    HW148578   6.039   1.889   7.594 -0.2509  2.5438 -2.1116
15208SOL    HW248579   6.180   1.865   7.645 -1.0605 -0.1084 -0.9758
15209SOL     OW48580   1.564   6.530   6.057  0.1015 -0.0439  0.3052
15209SOL    HW148581   1.501   6.459   6.061  0.0623 -0.0735 -0.6249
15209SOL    HW248582   1.619   6.517   6.134  0.0026 -0.9960  0.2318
15210SOL     OW48583   1.510   3.754   7.510 -0.4268  0.5348 -0.1781
15210SOL    HW148584   1.582   3.751   7.572 -0.1821 -0.2383 -0.4910
15210SOL    HW248585   1.466   3.670   7.520 -1.7264  1.2661  0.5138
15211SOL     OW48586   0.451   4.740   5.825  0.1404 -0.0360  0.3007
15211SOL    HW148587   0.430   4.739   5.919  0.8762  1.6132  0.5187
15211SOL    HW248588   0.485   4.828   5.809  0.9654 -0.6081 -1.3209
15212SOL     OW48589   3.026   1.519   5.556 -0.7553  0.5232  0.2012
15212SOL    HW148590   2.976   1.570   5.492  0.4137 -0.8262 -1.8890
15212SOL    HW248591   2.961   1.458   5.593 -1.0152 -0.1672 -1.3345
15213SOL     OW48592   3.925   7.026   5.797 -0.9248  0.3267  0.6039
15213SOL    HW148593   3.936   7.112   5.837 -0.5880  0.2328  0.7151
15213SOL    HW248594   3.969   6.966   5.857  0.2602  0.2766 -0.2835
15214SOL     OW48595   7.268   1.412   3.872  0.2999 -0.2872 -0.0518
15214SOL    HW148596   7.207   1.410   3.946  0.0539 -0.7907 -0.2609
15214SOL    HW248597   7.352   1.387   3.910  0.1410 -0.7093  0.0363
15215SOL     OW48598   0.077   5.293   1.231  0.1129  0.0365 -0.0210
15215SOL    HW148599   0.122   5.209   1.225 -0.5549 -0.4766  1.6747
15215SOL    HW248600  -0.015   5.272   1.216 -0.0414  0.4876  0.2627
15216SOL     OW48601   3.984   0.437   4.542 -0.5691 -0.3295  0.1378
15216SOL    HW148602   4.028   0.406   4.463  0.2179 -0.1340  0.4891
15216SOL    HW248603   4.003   0.371   4.608 -2.8663 -1.5364 -0.2810
15217SOL     OW48604   2.908   1.071   8.081 -0.0157  0.2052  0.4861
15217SOL    HW148605   2.996   1.098   8.107  0.9333 -2.3846  0.2156
15217SOL    HW248606   2.901   1.096   7.989  0.2310  0.8334  0.6329
15218SOL     OW48607   4.347   7.978   7.441 -0.2361  0.0383 -0.5696
15218SOL    HW148608   4.343   7.950   7.349  2.2534 -2.0370 -0.1771
15218SOL    HW248609   4.352   7.896   7.490 -1.0960  1.1134  1.4388
15219SOL     OW48610   0.624   2.721   0.784 -0.1407  0.1919  0.2971
15219SOL    HW148611   0.672   2.714   0.701  0.1997 -1.1393  0.5712
15219SOL    HW248612   0.634   2.634   0.824 -0.9091  0.5920  1.3985
15220SOL     OW48613   4.499   0.824   6.712  0.6003 -0.4976 -0.2511
15220SOL    HW148614   4.413   0.861   6.694  0.3836 -0.6468  0.4358
15220SOL    HW248615   4.503   0.745   6.658  0.6985  0.0270 -1.0160
15221SOL     OW48616   5.712   1.024   1.322 -0.3430  0.6599 -0.6608
15221SOL    HW148617   5.662   1.106   1.320 -0.1837  0.9067  1.7924
15221SOL    HW248618   5.799   1.050   1.351 -0.3376 -0.3524  0.3130
15222SOL     OW48619   0.478   0.947   0.465 -0.4279 -0.2856  0.0346
15222SOL    HW148620   0.571   0.955   0.489 -0.6254 -1.0244  1.0844
15222SOL    HW248621   0.476   0.967   0.371  0.5676  1.2967  0.3013
15223SOL     OW48622   4.671   3.653   2.470  0.1480  0.1981  0.2229
15223SOL    HW148623   4.642   3.563   2.482 -0.6753  0.1926 -1.5006
15223SOL    HW248624   4.759   3.646   2.434  0.7048  0.1336  1.5571
15224SOL     OW48625   0.283   3.283   7.940 -0.6193  0.2011  0.1704
15224SOL    HW148626   0.265   3.267   8.032  0.5286  1.1176  0.5796
15224SOL    HW248627   0.202   3.322   7.906 -0.7367  0.7124  1.0165
15225SOL     OW48628   3.636   3.172   3.935 -0.0004 -0.0878 -0.0465
15225SOL    HW148629   3.648   3.091   3.886 -1.2807 -0.1472 -0.2905
15225SOL    HW248630   3.542   3.175   3.953 -0.2490  2.1371 -1.4309
15226SOL     OW48631   4.498   7.530   4.189  0.2121  0.8068 -0.4638
15226SOL    HW148632   4.519   7.623   4.178 -0.8078  1.0743 -0.2159
15226SOL    HW248633   4.511   7.514   4.283  0.3240  0.7190 -0.4950
15227SOL     OW48634   6.973   2.078   7.604 -0.5449 -0.9300 -0.2326
15227SOL    HW148635   7.041   2.096   7.669 -1.8635  0.6511  0.7844
15227SOL    HW248636   6.979   1.983   7.588 -0.2207 -1.3947  2.2569
15228SOL     OW48637   6.623   6.711   4.494 -0.1602 -0.2355  0.4127
15228SOL    HW148638   6.616   6.716   4.590  0.0680 -1.2398  0.4941
15228SOL    HW248639   6.704   6.758   4.474 -0.4527  0.3894  0.6626
15229SOL     OW48640   4.763   0.547   7.391  0.1235  0.4557 -0.5079
15229SOL    HW148641   4.752   0.524   7.483  1.9084  1.2493 -0.0412
15229SOL    HW248642   4.752   0.464   7.344 -0.0637 -0.0973  0.4912
15230SOL     OW48643   5.234   2.416   1.418  0.2954 -0.5583 -0.1369
15230SOL    HW148644   5.183   2.463   1.484  0.4803  0.3278 -0.6036
15230SOL    HW248645   5.178   2.416   1.340  1.0058  0.4829 -0.6742
15231SOL     OW48646   0.149   6.077   4.074  0.2999  0.0054 -0.8201
15231SOL    HW148647   0.228   6.024   4.083 -0.7218 -1.2430  3.3570
15231SOL    HW248648   0.085   6.020   4.031  0.3299 -0.8040  0.1701
15232SOL     OW48649   0.847   6.723   7.135 -0.1270 -0.3189  0.7839
15232SOL    HW148650   0.898   6.747   7.058 -1.9833  0.3123 -0.3095
15232SOL    HW248651   0.807   6.639   7.111 -0.8515 -0.0325  0.9582
15233SOL     OW48652   0.092   1.931   4.785  0.4260  0.8551 -0.1479
15233SOL    HW148653   0.184   1.909   4.775 -0.1595 -2.3418  0.2721
15233SOL    HW248654   0.091   2.020   4.819  3.3712  0.7379  0.4353
15234SOL     OW48655   4.464   1.417   1.525 -0.0627 -0.3269  0.1081
15234SOL    HW148656   4.413   1.343   1.493 -0.5354 -0.4161  1.0355
15234SOL    HW248657   4.514   1.382   1.598 -0.6226  0.3665  0.8356
15235SOL     OW48658   2.173   2.298   8.069 -0.4385 -0.1772  0.4722
15235SOL    HW148659   2.152   2.365   8.134  0.2236 -0.1823  0.7021
15235SOL    HW248660   2.226   2.234   8.117  3.1188  1.5543 -0.8141
15236SOL     OW48661   1.427   5.325   2.353 -0.5079 -0.3681 -0.3845
15236SOL    HW148662   1.452   5.285   2.436 -1.3063  0.1164  0.1026
15236SOL    HW248663   1.411   5.251   2.295 -0.2238 -0.7160 -0.0297
15237SOL     OW48664   0.531   4.597   2.832 -0.5138 -0.2226 -0.6975
15237SOL    HW148665   0.584   4.631   2.904 -1.6879 -0.6650  0.4199
15237SOL    HW248666   0.457   4.658   2.826 -1.0761 -0.8873 -0.6804
15238SOL     OW48667   5.762   3.619   6.160  0.5244  0.0876 -0.0917
15238SOL    HW148668   5.834   3.681   6.172  1.5139 -1.0885  0.1904
15238SOL    HW248669   5.803   3.533   6.166 -0.9467 -0.6165  0.3275
15239SOL     OW48670   0.867   4.238   1.305  0.2875  0.0285  0.2056
15239SOL    HW148671   0.847   4.153   1.346 -0.7151 -0.5052 -1.3036
15239SOL    HW248672   0.912   4.215   1.224 -1.5228  0.8220 -1.0868
15240SOL     OW48673   6.859   7.006   4.208 -0.4009 -0.2853  0.2478
15240SOL    HW148674   6.771   7.016   4.245 -1.5593  0.5150 -2.5046
15240SOL    HW248675   6.905   7.085   4.236 -1.2449  0.3186 -0.0453
15241SOL     OW48676   2.022   4.934   4.913  0.1256  0.5420  0.4148
15241SOL    HW148677   2.069   4.853   4.935  0.3976  1.0401  1.8310
15241SOL    HW248678   1.934   4.905   4.889  0.1151 -0.1688  1.2403
15242SOL     OW48679   4.264   4.928   1.238 -0.5254 -0.2379 -0.0015
15242SOL    HW148680   4.180   4.956   1.274  0.6519  1.5839  1.5477
15242SOL    HW248681   4.289   4.851   1.291  0.7823  1.9025  2.7449
15243SOL     OW48682   2.634   0.172   1.332 -0.2594 -0.2102 -0.3040
15243SOL    HW148683   2.711   0.118   1.312 -0.0740  0.2662 -0.9290
15243SOL    HW248684   2.637   0.242   1.267 -1.9705 -0.9206 -1.2080
15244SOL     OW48685   2.502   7.268   6.344 -0.2380 -0.3195 -0.0735
15244SOL    HW148686   2.591   7.236   6.326  0.3690 -0.3748  2.5743
15244SOL    HW248687   2.510   7.363   6.342 -0.2646 -0.3268 -0.4760
15245SOL     OW48688   3.137   1.111   1.174  0.0891 -0.4863 -0.3161
15245SOL    HW148689   3.190   1.099   1.253  1.1651  1.7240 -0.5938
15245SOL    HW248690   3.197   1.154   1.113 -0.9729 -1.3896 -2.0508
15246SOL     OW48691   2.019   4.041   2.082  0.1698 -0.6965  0.4222
15246SOL    HW148692   2.074   4.098   2.135 -0.7766  0.1548  0.5128
15246SOL    HW248693   1.939   4.029   2.135 -0.6075 -0.1785 -0.6064
15247SOL     OW48694   2.374   6.519   4.324  0.7508 -0.9479  0.2169
15247SOL    HW148695   2.300   6.579   4.321  1.3973  0.1162  2.7117
15247SOL    HW248696   2.439   6.558   4.266  1.2900  1.0744  2.0527
15248SOL     OW48697   6.864   4.970   5.312  0.0365  0.2402  0.7706
15248SOL    HW148698   6.777   4.942   5.340 -0.5616  2.7836  1.6430
15248SOL    HW248699   6.924   4.915   5.363 -1.0438 -0.4017  1.3936
15249SOL     OW48700   6.010   5.148   2.502  0.3223  0.4502 -0.6729
15249SOL    HW148701   5.953   5.178   2.431 -2.9993  0.4052  1.7289
15249SOL    HW248702   5.990   5.054   2.510 -0.9139  0.8502  1.5224
15250SOL     OW48703   5.262   8.080   1.533 -0.4110 -0.3637 -0.1521
15250SOL    HW148704   5.328   8.149   1.540 -0.0972 -0.5837 -0.9217
15250SOL    HW248705   5.303   8.004   1.576 -0.0243 -0.5949 -0.9164
15251SOL     OW48706   0.593   2.952   0.391 -0.5704  0.4301  0.2660
15251SOL    HW148707   0.599   3.032   0.339  0.5262 -0.1541 -0.5391
15251SOL    HW248708   0.500   2.946   0.415 -0.9738  1.0883 -1.0225
15252SOL     OW48709   4.514   5.354   5.027 -0.2514  0.5731  0.1893
15252SOL    HW148710   4.583   5.308   4.978  0.0550  1.7998 -0.5644
15252SOL    HW248711   4.438   5.352   4.968 -0.5215  0.2462  0.5395
15253SOL     OW48712   1.319   3.118   3.852 -0.2142 -0.2394  0.1180
15253SOL    HW148713   1.254   3.048   3.858  0.4747 -0.8576  0.5765
15253SOL    HW248714   1.359   3.122   3.939  1.3593 -0.8583 -0.5405
15254SOL     OW48715   3.754   0.797   1.199  0.5617  0.5130 -0.1679
15254SOL    HW148716   3.752   0.701   1.196 -0.5011  0.5211 -0.0389
15254SOL    HW248717   3.686   0.820   1.262 -0.3652  1.4112 -1.4602
15255SOL     OW48718   0.183   5.518   8.067 -0.2285 -0.2652  0.1779
15255SOL    HW148719   0.262   5.572   8.064 -0.4484  0.0207 -1.0624
15255SOL    HW248720   0.201   5.453   8.135  0.8742  0.0976  0.2550
15256SOL     OW48721   2.354   0.131   8.106  0.0281  0.6437 -0.2265
15256SOL    HW148722   2.381   0.088   8.187 -0.3390  0.7578 -0.0457
15256SOL    HW248723   2.285   0.075   8.071  1.0264 -0.0865 -1.1051
15257SOL     OW48724   7.574   6.476   6.036  0.5794 -0.4375  0.1466
15257SOL    HW148725   7.497   6.518   5.997 -1.0519 -0.4212  3.1156
15257SOL    HW248726   7.648   6.531   6.009 -0.9052  1.6893  0.1988
15258SOL     OW48727   3.022   0.263   5.494  0.0787 -0.1489 -0.2198
15258SOL    HW148728   3.066   0.178   5.501 -1.7286 -1.0318  1.2916
15258SOL    HW248729   2.958   0.251   5.424 -0.5856 -0.2781  0.3889
15259SOL     OW48730   7.185   6.416   7.558  0.2503 -0.1425  0.5373
15259SOL    HW148731   7.137   6.499   7.558 -0.3447 -0.4828  0.0208
15259SOL    HW248732   7.144   6.363   7.626 -0.4019 -0.5990 -0.2068
15260SOL     OW48733   6.609   0.161   1.420  0.1143 -0.0635 -0.0065
15260SOL    HW148734   6.556   0.175   1.341  0.1294  0.6443  0.1012
15260SOL    HW248735   6.682   0.106   1.391  1.1409  1.7009 -0.9364
15261SOL     OW48736   3.636   3.689   7.355 -0.0585  0.6198  0.1974
15261SOL    HW148737   3.618   3.778   7.388  3.0938  1.5255 -0.2424
15261SOL    HW248738   3.589   3.632   7.416 -2.2047  2.5155  0.5072
15262SOL     OW48739   2.953   3.827   2.028  0.0519 -0.5172  0.3742
15262SOL    HW148740   2.905   3.820   2.110 -0.0539  1.1659  0.4825
15262SOL    HW248741   3.045   3.832   2.055 -0.0631  1.4892  0.5265
15263SOL     OW48742   5.514   5.535   6.726 -0.0666  0.2284 -0.1363
15263SOL    HW148743   5.435   5.590   6.728 -0.4342 -0.2911  0.0360
15263SOL    HW248744   5.488   5.456   6.772  0.5987  0.0946  0.0130
15264SOL     OW48745   6.497   6.427   0.713 -0.1815 -0.0620  0.8459
15264SOL    HW148746   6.540   6.482   0.648 -1.4959 -0.3807 -0.3449
15264SOL    HW248747   6.465   6.489   0.779  1.6403  0.2135  1.5438
15265SOL     OW48748   1.571   0.949   6.854  0.4841 -0.1047 -0.1795
15265SOL    HW148749   1.626   0.896   6.797  0.5656  0.6912 -0.8684
15265SOL    HW248750   1.507   0.989   6.795 -0.8771 -1.0310  0.6096
15266SOL     OW48751   7.532   6.849   0.748  0.4743 -0.1618  0.3318
15266SOL    HW148752   7.473   6.903   0.800 -2.0011 -0.0834 -2.2997
15266SOL    HW248753   7.596   6.911   0.713 -0.0974  0.4243  0.3010
15267SOL     OW48754   5.007   4.847   2.808  0.0754 -0.4434  0.4957
15267SOL    HW148755   5.062   4.783   2.763  0.6533  1.1728 -1.1902
15267SOL    HW248756   5.031   4.839   2.901  1.6323 -1.2194  0.0488
15268SOL     OW48757   7.228   6.413   2.692  0.0231  0.2082 -0.1968
15268SOL    HW148758   7.269   6.494   2.663  1.7542  0.2025  1.9270
15268SOL    HW248759   7.143   6.440   2.728 -0.4018  0.7223 -1.5381
15269SOL     OW48760   5.287   3.132   0.396 -0.0351  0.1804 -0.1441
15269SOL    HW148761   5.205   3.123   0.346  0.6551 -0.7213 -1.1566
15269SOL    HW248762   5.263   3.109   0.485 -0.9101  0.0015 -0.4145
15270SOL     OW48763   5.647   1.017   2.905 -0.0311 -0.3927 -0.1905
15270SOL    HW148764   5.710   1.087   2.922  0.9078 -0.8940 -1.4204
15270SOL    HW248765   5.690   0.938   2.938 -1.3516 -0.3633  1.7807
15271SOL     OW48766   8.046   5.781   0.141 -0.2934  0.2234  0.0286
15271SOL    HW148767   8.056   5.747   0.051  1.6220 -0.3654  0.4053
15271SOL    HW248768   8.098   5.721   0.194 -1.2729  0.6692  1.5270
15272SOL     OW48769   2.935   3.249   7.484 -0.0430  0.2265  0.0165
15272SOL    HW148770   2.844   3.252   7.511 -0.0408  0.6694 -0.0161
15272SOL    HW248771   2.979   3.313   7.540  0.2333  0.0701 -0.0181
15273SOL     OW48772   8.132   0.613   1.346 -0.3790 -0.2207  0.6009
15273SOL    HW148773   8.095   0.603   1.434  1.7123 -1.5496  1.4063
15273SOL    HW248774   8.224   0.589   1.355  0.5720  2.1903 -1.4451
15274SOL     OW48775   0.168   6.881   5.611 -0.6665  0.0889 -0.2658
15274SOL    HW148776   0.131   6.944   5.549  0.3142 -1.3581 -2.4110
15274SOL    HW248777   0.092   6.837   5.649 -1.3988  2.6536  1.5285
15275SOL     OW48778   2.135   2.813   2.159 -0.6844 -0.4391  0.1503
15275SOL    HW148779   2.109   2.723   2.182 -0.2197 -0.3301  1.1639
15275SOL    HW248780   2.187   2.803   2.080  0.1765 -1.1854  0.7898
15276SOL     OW48781   0.578   7.157   3.348 -0.3731  0.8561 -0.0590
15276SOL    HW148782   0.550   7.116   3.430 -0.0580 -1.0081 -0.8338
15276SOL    HW248783   0.664   7.194   3.367  0.1168 -0.3770  0.2551
15277SOL     OW48784   1.898   6.289   1.096  0.0583  0.0336  0.1632
15277SOL    HW148785   1.815   6.313   1.135  0.6695  1.5521  0.5766
15277SOL    HW248786   1.911   6.353   1.026  2.0634  1.4756  1.7473
15278SOL     OW48787   2.424   3.702   6.735 -0.0771 -0.0335 -0.3406
15278SOL    HW148788   2.505   3.691   6.784  0.5381 -1.2853 -1.5620
15278SOL    HW248789   2.449   3.750   6.657 -0.7082  0.4391 -0.2564
15279SOL     OW48790   2.645   5.878   2.704 -0.3265 -0.4722  0.0033
15279SOL    HW148791   2.602   5.836   2.629 -1.0317  1.6331 -0.8702
15279SOL    HW248792   2.738   5.875   2.684 -0.5565  0.8182 -1.4463
15280SOL     OW48793   1.767   5.843   7.642 -0.0043  0.2559  0.9533
15280SOL    HW148794   1.856   5.812   7.658  0.0352  0.7456  1.6915
15280SOL    HW248795   1.740   5.795   7.563  1.4157  1.1562 -0.1337
15281SOL     OW48796   3.363   0.444   6.137  0.2049 -0.5256  0.3914
15281SOL    HW148797   3.416   0.398   6.072  1.4156  0.7517  0.4389
15281SOL    HW248798   3.313   0.508   6.087  2.1715  1.4308  0.7628
15282SOL     OW48799   2.716   1.624   2.436  0.2300  0.2436  0.3524
15282SOL    HW148800   2.667   1.550   2.400  1.6461  0.1729 -1.5837
15282SOL    HW248801   2.670   1.701   2.403 -0.3812  0.2330  1.1493
15283SOL     OW48802   7.450   1.238   4.635 -0.8656 -0.0034  0.1327
15283SOL    HW148803   7.389   1.307   4.660 -1.2416 -1.0731  2.4749
15283SOL    HW248804   7.394   1.163   4.614 -0.4113 -0.1407 -0.6384
15284SOL     OW48805   0.398   5.616   1.552  0.3602 -0.2145 -0.5353
15284SOL    HW148806   0.328   5.642   1.492  0.3516  0.6159 -0.1806
15284SOL    HW248807   0.391   5.521   1.558 -0.1177 -0.2312 -1.2592
15285SOL     OW48808   1.300   0.819   2.047  0.0048  0.2013 -0.9288
15285SOL    HW148809   1.255   0.783   1.970 -1.5951 -2.4023  1.0442
15285SOL    HW248810   1.362   0.751   2.072  0.4886  0.9994  0.1032
15286SOL     OW48811   0.930   2.987   6.901 -0.7771  0.3193  0.1850
15286SOL    HW148812   0.873   3.063   6.888  1.1771  1.5078 -2.1060
15286SOL    HW248813   0.976   3.006   6.983 -1.8653  0.5047  0.7754
15287SOL     OW48814   7.976   3.356   0.443 -0.0573 -0.5187  0.6358
15287SOL    HW148815   7.893   3.321   0.409 -0.1387  0.4909 -0.2559
15287SOL    HW248816   8.027   3.278   0.466 -0.6345 -1.1939 -0.3009
15288SOL     OW48817   6.620   0.126   6.302 -0.1042  0.3000 -0.0718
15288SOL    HW148818   6.533   0.100   6.272  0.0166  0.2723 -0.4074
15288SOL    HW248819   6.604   0.178   6.381 -0.3497 -0.6522  0.5219
15289SOL     OW48820   7.973   5.382   5.464  0.3366  0.0216 -0.0582
15289SOL    HW148821   7.927   5.465   5.475 -0.1251 -0.1878 -0.4195
15289SOL    HW248822   7.906   5.315   5.475  0.2661 -0.2594 -1.8837
15290SOL     OW48823   7.579   7.643   1.420 -0.6623 -0.0989  0.0938
15290SOL    HW148824   7.580   7.679   1.509 -1.2552  0.1852 -0.0113
15290SOL    HW248825   7.542   7.713   1.366 -1.3996 -0.6933 -0.1918
15291SOL     OW48826   5.970   5.882   0.216 -0.4461  0.7310  0.6311
15291SOL    HW148827   5.932   5.902   0.131  0.0406  1.3614  0.5531
15291SOL    HW248828   5.974   5.787   0.219  1.5660  0.6896 -0.9849
15292SOL     OW48829   1.404   7.069   7.237 -0.5405 -0.1416 -0.2079
15292SOL    HW148830   1.367   6.988   7.201 -0.3490 -0.9430  1.3160
15292SOL    HW248831   1.360   7.080   7.321 -1.1559  1.8158 -0.7319
15293SOL     OW48832   7.272   0.379   2.313  0.1616  0.3063  0.2013
15293SOL    HW148833   7.323   0.347   2.388 -1.6304  0.1608  1.4175
15293SOL    HW248834   7.184   0.344   2.327 -0.3048  0.5529 -1.8230
15294SOL     OW48835   4.351   3.180   6.682 -0.9120  0.6546 -0.1056
15294SOL    HW148836   4.390   3.267   6.669 -0.4480  0.2469 -1.6212
15294SOL    HW248837   4.293   3.168   6.608 -1.2060 -0.2142  0.2530
15295SOL     OW48838   3.787   3.081   6.601 -0.1820 -0.2531 -0.6537
15295SOL    HW148839   3.861   3.087   6.661 -1.9753 -0.9280  1.8131
15295SOL    HW248840   3.741   3.001   6.627 -2.2311  0.5854 -1.4752
15296SOL     OW48841   2.040   3.249   7.991  0.0788 -0.1771 -0.2080
15296SOL    HW148842   1.982   3.304   8.044  1.0812 -0.2359  0.9828
15296SOL    HW248843   2.102   3.212   8.053  1.2390 -0.3369 -1.4192
15297SOL     OW48844   0.732   6.026   4.504 -0.0328 -0.4183  0.0333
15297SOL    HW148845   0.716   6.063   4.417 -0.6272 -1.6649 -0.3989
15297SOL    HW248846   0.657   6.055   4.557 -0.5659 -1.0998 -0.3390
15298SOL     OW48847   6.623   3.907   5.658 -0.5220 -0.1411 -0.7671
15298SOL    HW148848   6.573   3.871   5.585 -2.6506  0.8862  0.1120
15298SOL    HW248849   6.645   3.831   5.712  0.1956 -0.7854 -1.9214
15299SOL     OW48850   7.196   0.601   2.608 -0.1030  0.4331 -0.3877
15299SOL    HW148851   7.133   0.669   2.584 -0.0902  1.1989  1.5724
15299SOL    HW248852   7.280   0.647   2.611 -0.1990  0.5539  1.6573
15300SOL     OW48853   1.623   5.852   3.975  0.2923  0.5288  0.3131
15300SOL    HW148854   1.677   5.922   4.012 -0.7187 -0.6745  4.5545
15300SOL    HW248855   1.542   5.896   3.948  0.8404  1.3982  0.0392
15301SOL     OW48856   3.784   1.461   5.084  0.0968 -0.2201  0.2372
15301SOL    HW148857   3.801   1.555   5.083  0.4585 -0.2851 -0.3553
15301SOL    HW248858   3.855   1.424   5.136 -0.7185 -0.0519  1.4974
15302SOL     OW48859   3.073   2.269   1.141 -0.1011  0.0573 -0.4579
15302SOL    HW148860   3.099   2.285   1.050  2.2991  1.8040  0.4344
15302SOL    HW248861   3.034   2.351   1.170  1.5829  0.4836  0.7893
15303SOL     OW48862   4.318   6.063   7.321 -0.2345 -0.6382 -0.0217
15303SOL    HW148863   4.273   5.996   7.270 -0.0289 -2.1365  1.7054
15303SOL    HW248864   4.401   6.076   7.275 -0.6496 -0.8914 -0.8717
15304SOL     OW48865   7.329   7.829   6.376 -0.1291 -0.1898  0.1780
15304SOL    HW148866   7.389   7.865   6.441  2.3656  0.8525 -2.4764
15304SOL    HW248867   7.279   7.905   6.345 -0.7911 -0.5569  0.3059
15305SOL     OW48868   7.419   0.861   3.138  0.1151 -0.5786 -0.0608
15305SOL    HW148869   7.504   0.848   3.181  0.5312 -3.2812 -1.4793
15305SOL    HW248870   7.372   0.778   3.152 -1.5438  0.1642 -0.9223
15306SOL     OW48871   0.402   2.049   5.352  0.2591  0.2014 -0.2943
15306SOL    HW148872   0.336   2.001   5.404  0.4560 -0.6947 -0.8532
15306SOL    HW248873   0.479   2.050   5.408  0.3080 -0.2953 -0.3512
15307SOL     OW48874   5.677   7.610   6.703 -0.1174  0.0359  0.2832
15307SOL    HW148875   5.617   7.643   6.770  0.0371  1.5654 -0.2906
15307SOL    HW248876   5.622   7.591   6.628  0.1429  2.1727 -0.5105
15308SOL     OW48877   6.267   4.189   3.839 -0.5162  0.2575  0.0052
15308SOL    HW148878   6.320   4.121   3.881 -0.1560 -0.0619 -0.9441
15308SOL    HW248879   6.275   4.171   3.746 -2.1334  0.3286 -0.1717
15309SOL     OW48880   0.556   2.231   3.242  0.1811  0.3424  0.5164
15309SOL    HW148881   0.586   2.238   3.151 -2.0591  0.5422 -0.2730
15309SOL    HW248882   0.474   2.182   3.237  0.3557 -0.2584  2.5430
15310SOL     OW48883   6.139   6.194   7.528  0.0881  0.1115  0.1248
15310SOL    HW148884   6.161   6.104   7.504 -0.1881  0.2129 -0.5228
15310SOL    HW248885   6.088   6.227   7.454  2.9779  1.9122 -1.2593
15311SOL     OW48886   6.259   4.880   0.765 -0.0871 -0.1749  0.4311
15311SOL    HW148887   6.166   4.875   0.742  0.3773 -1.2574 -1.4001
15311SOL    HW248888   6.301   4.815   0.709  1.8842  0.8164  0.6620
15312SOL     OW48889   5.551   2.215   5.194  0.3702 -0.7271 -0.5209
15312SOL    HW148890   5.636   2.243   5.229 -0.5082  2.9126 -0.8677
15312SOL    HW248891   5.488   2.242   5.261 -0.6625 -2.3363 -0.7766
15313SOL     OW48892   7.270   2.973   5.050 -0.2467 -0.5627  0.6378
15313SOL    HW148893   7.269   3.042   5.117 -1.8438 -1.0555  1.1829
15313SOL    HW248894   7.198   2.996   4.991  0.1364 -0.9881 -0.0106
15314SOL     OW48895   6.841   3.047   5.156  0.2945 -0.2636 -0.4516
15314SOL    HW148896   6.751   3.074   5.172  0.5160  0.3653 -0.2620
15314SOL    HW248897   6.856   2.978   5.221 -0.2048 -0.7214 -0.8126
15315SOL     OW48898   7.183   4.655   4.736 -0.0570  0.2918 -0.1283
15315SOL    HW148899   7.115   4.722   4.732 -0.1343  0.1606 -1.2996
15315SOL    HW248900   7.256   4.691   4.685  0.0538 -0.3335 -0.4214
15316SOL     OW48901   7.023   1.255   3.576 -0.4845 -0.1844  0.1325
15316SOL    HW148902   7.087   1.253   3.647 -0.1938  1.4275 -0.0342
15316SOL    HW248903   7.069   1.296   3.503 -1.1927 -0.5665 -0.5428
15317SOL     OW48904   4.382   6.521   3.926  0.5157 -0.4064 -0.1185
15317SOL    HW148905   4.291   6.532   3.957  0.2053 -0.5955 -0.9399
15317SOL    HW248906   4.407   6.608   3.897 -0.1539 -0.7526 -1.8498
15318SOL     OW48907   5.491   5.904   8.042  0.5501 -0.2190  0.4749
15318SOL    HW148908   5.409   5.932   8.082  0.4281  0.9267 -0.5285
15318SOL    HW248909   5.530   5.984   8.007  1.8810 -0.8114  0.5241
15319SOL     OW48910   2.600   0.166   1.837 -1.0123  0.0950 -0.1455
15319SOL    HW148911   2.572   0.100   1.901 -0.6916 -0.5506 -0.6598
15319SOL    HW248912   2.577   0.128   1.752  3.2131 -1.4756 -0.8089
15320SOL     OW48913   3.950   0.512   6.518 -0.1254  0.2047  0.7157
15320SOL    HW148914   3.908   0.554   6.442  0.7013  1.2126  0.7873
15320SOL    HW248915   4.001   0.441   6.481 -0.3212  0.2166  0.4170
15321SOL     OW48916   4.495   0.346   1.330 -0.6810  0.1411 -0.1360
15321SOL    HW148917   4.436   0.274   1.349 -0.3634  0.3861  2.0023
15321SOL    HW248918   4.474   0.372   1.240  1.0022 -4.2866 -2.0735
15322SOL     OW48919   7.889   7.919   0.360  0.0594  0.1443 -0.2553
15322SOL    HW148920   7.794   7.916   0.351  0.1173  0.3525 -0.9902
15322SOL    HW248921   7.915   8.000   0.316  0.7833 -1.0324 -2.1098
15323SOL     OW48922   5.338   8.019   5.789  0.4994 -0.4728  0.3464
15323SOL    HW148923   5.383   8.023   5.874  1.1944  0.2086 -0.0430
15323SOL    HW248924   5.307   8.108   5.774 -0.1971 -0.7390  0.1841
15324SOL     OW48925   7.916   5.998   5.434 -0.0272  0.0853 -0.3598
15324SOL    HW148926   7.868   6.067   5.480 -0.3483 -0.3889  0.0232
15324SOL    HW248927   7.912   5.923   5.493  0.3059 -0.2671 -0.7835
15325SOL     OW48928   5.434   7.112   3.262 -0.2413  0.1638 -0.0446
15325SOL    HW148929   5.466   7.022   3.268 -0.0379  0.2385  0.0210
15325SOL    HW248930   5.360   7.116   3.323  0.7446  0.4604  1.1839
15326SOL     OW48931   4.814   0.858   1.941  0.5195  0.0425 -0.0248
15326SOL    HW148932   4.778   0.924   1.999  0.1901  0.4985 -0.7321
15326SOL    HW248933   4.878   0.811   1.994  1.9940  2.0150  0.0335
15327SOL     OW48934   2.945   7.654   3.323  0.4300  0.1449 -0.2717
15327SOL    HW148935   2.853   7.667   3.346  0.4993 -0.3668  0.3311
15327SOL    HW248936   2.975   7.740   3.295  0.6873  1.2145  2.8655
15328SOL     OW48937   0.231   6.553   4.141  0.0185  0.8131  0.4468
15328SOL    HW148938   0.155   6.519   4.093 -0.7262  0.6742  1.6756
15328SOL    HW248939   0.267   6.477   4.186  2.1902  0.4290 -1.6842
15329SOL     OW48940   3.235   6.564   5.531  0.1854  0.1979  0.0434
15329SOL    HW148941   3.270   6.645   5.567  0.3800  0.2228 -0.1961
15329SOL    HW248942   3.269   6.495   5.588  1.7177  0.0948 -0.9209
15330SOL     OW48943   7.190   3.218   5.195 -0.0965  0.5715  0.1048
15330SOL    HW148944   7.156   3.265   5.118 -1.0278  0.2304  0.2926
15330SOL    HW248945   7.116   3.214   5.255 -0.1159 -1.2908  0.0211
15331SOL     OW48946   3.316   2.833   3.179  0.4511 -0.3939 -0.3251
15331SOL    HW148947   3.363   2.865   3.102 -0.5826  0.1825 -0.7549
15331SOL    HW248948   3.340   2.894   3.248  0.2926 -0.0546 -0.5623
15332SOL     OW48949   5.593   2.640   2.003 -0.1939 -0.7471  0.4319
15332SOL    HW148950   5.509   2.642   1.957 -0.1182  0.9489  0.2938
15332SOL    HW248951   5.581   2.701   2.076  1.2498  0.4271 -0.2576
15333SOL     OW48952   7.416   2.454   0.271 -0.8702  0.1468 -0.2143
15333SOL    HW148953   7.368   2.445   0.189 -1.6669 -0.0294  0.2631
15333SOL    HW248954   7.387   2.538   0.307  0.9887  1.2121 -1.0680
15334SOL     OW48955   2.054   7.218   5.913 -0.2214 -0.1149  0.5504
15334SOL    HW148956   2.016   7.306   5.921  0.3754  0.3255 -0.8991
15334SOL    HW248957   1.982   7.158   5.931 -1.8042  0.6744 -2.4819
15335SOL     OW48958   5.609   6.090   6.603  0.2046  0.3880  0.1010
15335SOL    HW148959   5.552   6.120   6.532  0.0672  0.0521  0.0634
15335SOL    HW248960   5.659   6.018   6.564  0.1042  0.1790  0.3507
15336SOL     OW48961   7.215   3.619   1.736  0.5450  0.4937 -0.8358
15336SOL    HW148962   7.156   3.692   1.753  1.2412  0.6481  1.1294
15336SOL    HW248963   7.157   3.545   1.716 -0.3117  0.8033  0.4037
15337SOL     OW48964   4.479   4.358   3.728  1.0038  0.1463  0.0706
15337SOL    HW148965   4.518   4.395   3.807  0.6482 -0.1854  0.4131
15337SOL    HW248966   4.392   4.328   3.756  1.1492 -0.6319 -0.2646
15338SOL     OW48967   1.895   2.311   5.899  0.1643 -0.4775 -0.0990
15338SOL    HW148968   1.879   2.367   5.823  0.9968  0.5208  0.4406
15338SOL    HW248969   1.985   2.330   5.925 -0.1002 -0.8013  1.1427
15339SOL     OW48970   6.591   2.529   5.129 -0.4064  0.3117  0.1004
15339SOL    HW148971   6.617   2.611   5.088  1.3096 -0.7277 -0.9811
15339SOL    HW248972   6.627   2.461   5.073  0.0075 -1.1904  2.0852
15340SOL     OW48973   0.180   7.849   1.327  0.0628 -0.2739  0.3594
15340SOL    HW148974   0.245   7.882   1.389  0.9988  1.5076 -1.4301
15340SOL    HW248975   0.226   7.845   1.243 -1.8347  0.0677 -0.7821
15341SOL     OW48976   2.750   7.767   7.808  0.2941 -0.6882 -0.4025
15341SOL    HW148977   2.683   7.801   7.867 -0.1624 -1.6228 -0.3645
15341SOL    HW248978   2.796   7.845   7.776 -1.2287  0.0377 -0.9402
15342SOL     OW48979   1.633   1.556   7.829  0.2954 -0.0410  0.2691
15342SOL    HW148980   1.568   1.598   7.773  0.3951  0.6955  0.6869
15342SOL    HW248981   1.619   1.595   7.915  0.0714 -1.2306  0.7913
15343SOL     OW48982   5.233   7.778   6.075 -0.1442 -0.1760 -0.5721
15343SOL    HW148983   5.230   7.870   6.103  0.0277  0.0196 -1.1849
15343SOL    HW248984   5.156   7.767   6.019 -0.9958 -0.8118  0.6767
15344SOL     OW48985   6.204   2.316   6.728 -0.1784  0.2909 -0.2414
15344SOL    HW148986   6.147   2.392   6.741  1.2763  1.3094  0.5686
15344SOL    HW248987   6.207   2.273   6.814  1.9746  1.5553  0.4016
15345SOL     OW48988   4.424   6.288   1.368  0.2945 -0.0384  0.5458
15345SOL    HW148989   4.467   6.251   1.291 -0.0248 -0.5269  0.5943
15345SOL    HW248990   4.408   6.379   1.345  1.3102  0.1421  0.5091
15346SOL     OW48991   1.527   1.908   3.781  0.0019 -0.6586  0.4046
15346SOL    HW148992   1.570   1.842   3.728 -2.6380 -1.8347 -0.4243
15346SOL    HW248993   1.593   1.934   3.846  2.8010 -0.3228 -2.3520
15347SOL     OW48994   3.194   5.647   3.720 -0.3165  0.4899 -0.0348
15347SOL    HW148995   3.212   5.715   3.656  0.2965 -0.2732 -0.6990
15347SOL    HW248996   3.243   5.673   3.799  0.0088  0.7539 -0.3236
15348SOL     OW48997   4.918   0.410   0.905 -0.3257 -0.1367 -0.0090
15348SOL    HW148998   5.001   0.372   0.876  0.3160  1.0182  0.2378
15348SOL    HW248999   4.897   0.363   0.985  1.3399  1.1164  1.2355
15349SOL     OW49000   5.941   1.814   1.356 -0.5302  0.2114  0.6711
15349SOL    HW149001   5.860   1.806   1.405 -0.0598 -0.5536  1.3493
15349SOL    HW249002   6.002   1.753   1.399 -0.0348 -0.3206 -0.7148
15350SOL     OW49003   7.411   7.234   6.142 -0.5270  0.5785  0.6611
15350SOL    HW149004   7.430   7.326   6.161 -1.4046  1.2677 -1.5045
15350SOL    HW249005   7.334   7.236   6.085  0.4909 -1.3473 -0.9531
15351SOL     OW49006   0.667   1.068   2.640 -0.5078 -0.2580  0.2340
15351SOL    HW149007   0.635   0.987   2.600 -2.8644  0.6183  0.1474
15351SOL    HW249008   0.735   1.099   2.581 -0.3713 -1.5906 -0.3413
15352SOL     OW49009   2.594   1.425   5.131 -0.4093  0.2059 -0.3028
15352SOL    HW149010   2.526   1.492   5.128 -1.5038 -0.8821 -0.2736
15352SOL    HW249011   2.592   1.392   5.221 -2.7194 -2.6669 -1.2555
15353SOL     OW49012   4.374   0.902   5.661  0.1126 -0.5976  0.1332
15353SOL    HW149013   4.395   0.828   5.717  0.6184 -1.5979 -1.3226
15353SOL    HW249014   4.443   0.966   5.679  1.7010 -1.9031 -1.0860
15354SOL     OW49015   5.599   4.723   1.326  0.5681 -0.0910  0.3047
15354SOL    HW149016   5.594   4.654   1.260 -0.0195 -0.8156  1.0912
15354SOL    HW249017   5.546   4.690   1.399  1.2418  0.6804  1.1527
15355SOL     OW49018   6.437   2.697   5.544  0.0665  0.0791  0.3907
15355SOL    HW149019   6.350   2.682   5.507  0.6163  0.6312 -1.2055
15355SOL    HW249020   6.474   2.609   5.554 -0.1233 -0.1001 -0.3753
15356SOL     OW49021   3.138   2.193   1.404 -0.3474 -0.6093 -0.4608
15356SOL    HW149022   3.126   2.213   1.311  1.2017  0.0194 -0.5497
15356SOL    HW249023   3.232   2.199   1.419 -0.7028  1.3882  1.5958
15357SOL     OW49024   6.599   3.857   0.270  0.1111  0.5514 -0.0012
15357SOL    HW149025   6.664   3.852   0.340 -0.0234 -4.2656  0.1397
15357SOL    HW249026   6.519   3.822   0.309 -0.4612 -0.5649 -2.0351
15358SOL     OW49027   1.678   1.365   4.049  0.1310 -0.3244 -0.3297
15358SOL    HW149028   1.771   1.370   4.027 -0.1528  1.7135 -1.3244
15358SOL    HW249029   1.663   1.438   4.109 -1.0491  0.1809 -1.1906
15359SOL     OW49030   0.779   1.097   4.855 -0.2369  0.2420 -0.0800
15359SOL    HW149031   0.703   1.084   4.799 -0.2911  0.6442 -0.1033
15359SOL    HW249032   0.762   1.041   4.931 -0.1289 -0.3522 -0.4927
15360SOL     OW49033   0.538   6.399   8.114 -0.5486  0.3503 -0.0672
15360SOL    HW149034   0.607   6.395   8.180  1.7766 -0.3036 -2.3643
15360SOL    HW249035   0.516   6.307   8.096  1.2118  0.3000 -2.3930
15361SOL     OW49036   0.782   1.785   1.060 -0.1981  0.0742  0.3605
15361SOL    HW149037   0.736   1.732   1.126  0.9685  0.7349  1.7607
15361SOL    HW249038   0.805   1.723   0.991  0.5961 -1.1518  1.6779
15362SOL     OW49039   7.052   6.580   3.659 -0.3719  0.1677 -0.0117
15362SOL    HW149040   6.964   6.573   3.697 -0.4375  0.2961 -0.1346
15362SOL    HW249041   7.059   6.505   3.600  0.7843 -1.6530  2.3022
15363SOL     OW49042   1.410   8.014   0.140  0.6306  0.2097  0.1828
15363SOL    HW149043   1.467   7.964   0.198 -0.6771 -0.2891  1.0798
15363SOL    HW249044   1.321   7.992   0.168 -0.0740 -0.1828 -2.1319
15364SOL     OW49045   2.691   7.078   4.677 -0.5773 -0.3980 -0.4182
15364SOL    HW149046   2.751   7.124   4.735 -0.2203 -0.8943 -0.3955
15364SOL    HW249047   2.662   7.146   4.615 -0.2825 -0.0731 -0.2083
15365SOL     OW49048   3.209   7.102   5.494  0.0888  0.1477  0.3720
15365SOL    HW149049   3.199   7.195   5.513  1.8164  0.1999  1.2293
15365SOL    HW249050   3.285   7.097   5.435  0.6211 -0.7724  1.1004
15366SOL     OW49051   4.651   4.196   3.027 -0.2086  0.1609  0.6577
15366SOL    HW149052   4.630   4.103   3.014  0.7538  0.0125  0.0891
15366SOL    HW249053   4.652   4.233   2.939 -1.3044  0.8859  0.9363
15367SOL     OW49054   6.393   3.242   0.521 -0.2789  0.5651 -0.6243
15367SOL    HW149055   6.364   3.333   0.517  1.4674  1.2305  0.8479
15367SOL    HW249056   6.373   3.215   0.610 -1.1948 -0.6766 -1.1779
15368SOL     OW49057   7.433   5.053   7.677 -0.4180  0.5568 -0.2500
15368SOL    HW149058   7.451   5.095   7.761 -0.1348  1.2897 -0.6711
15368SOL    HW249059   7.412   4.962   7.700 -1.5851  1.0362  0.7243
15369SOL     OW49060   1.176   3.288   7.678  0.3316 -0.5993  0.6501
15369SOL    HW149061   1.152   3.378   7.700  2.0523  0.3547 -1.0311
15369SOL    HW249062   1.098   3.251   7.637  0.6031  1.3465 -1.8670
15370SOL     OW49063   3.270   7.111   5.097  0.2482  0.1756 -0.3065
15370SOL    HW149064   3.329   7.090   5.169 -0.3269  0.2301  0.1937
15370SOL    HW249065   3.267   7.207   5.096  1.0663  0.2093 -1.0901
15371SOL     OW49066   3.576   3.210   3.223 -0.0278  0.2342 -0.0790
15371SOL    HW149067   3.545   3.138   3.277 -1.3667  0.9942  0.2007
15371SOL    HW249068   3.670   3.217   3.244  0.1219 -1.3773 -0.1029
15372SOL     OW49069   3.393   4.804   2.002 -0.0866  0.0547 -0.0263
15372SOL    HW149070   3.446   4.857   2.062 -1.0562  1.2414 -0.1717
15372SOL    HW249071   3.392   4.855   1.920  0.1314 -0.8981 -0.6414
15373SOL     OW49072   0.324   6.130   7.754  0.0990 -0.6268 -0.0394
15373SOL    HW149073   0.326   6.038   7.780 -2.9131 -1.1772 -1.2703
15373SOL    HW249074   0.321   6.128   7.658  0.9247  0.8159 -0.1210
15374SOL     OW49075   4.840   5.252   3.531  0.7996 -0.1741  0.5784
15374SOL    HW149076   4.806   5.164   3.515  0.6160  0.2600 -1.9420
15374SOL    HW249077   4.935   5.242   3.522  0.6571  0.3661 -3.5999
15375SOL     OW49078   2.855   4.654   0.229  0.6649 -0.2495 -0.5742
15375SOL    HW149079   2.880   4.611   0.310  0.0162 -0.7068 -0.6082
15375SOL    HW249080   2.820   4.583   0.175 -0.8493  0.3929 -0.4610
15376SOL     OW49081   5.251   0.804   0.956  0.3823 -0.2268  0.4475
15376SOL    HW149082   5.205   0.832   0.876 -2.0036  2.2853  2.5176
15376SOL    HW249083   5.218   0.715   0.972  0.3796 -0.5084 -0.9545
15377SOL     OW49084   7.033   5.667   6.081  0.3147  0.0392  0.1269
15377SOL    HW149085   7.106   5.617   6.117  0.1484  0.7397  1.5120
15377SOL    HW249086   6.971   5.601   6.051  0.7387 -0.5766  0.5798
15378SOL     OW49087   7.565   0.742   2.140  0.0799 -0.3790 -0.5264
15378SOL    HW149088   7.486   0.715   2.093 -0.2109  0.3449 -0.4772
15378SOL    HW249089   7.543   0.731   2.232  0.1329 -0.4332 -0.5204
15379SOL     OW49090   4.800   5.048   5.241  0.1997  0.2919 -0.4951
15379SOL    HW149091   4.842   4.971   5.281 -0.3312 -0.1587 -0.7890
15379SOL    HW249092   4.841   5.123   5.285 -0.4385 -0.1871  0.9689
15380SOL     OW49093   3.287   3.857   6.593 -0.2966  0.0563 -0.1312
15380SOL    HW149094   3.291   3.762   6.599  1.4441  0.0637 -0.4868
15380SOL    HW249095   3.351   3.887   6.657 -0.5615  0.9803 -0.2865
15381SOL     OW49096   4.465   0.112   3.496  0.1304  0.2901  0.1456
15381SOL    HW149097   4.557   0.086   3.505  0.2931  0.7774 -0.0471
15381SOL    HW249098   4.461   0.201   3.532  0.3087  1.3242 -2.1488
15382SOL     OW49099   3.476   1.152   5.239 -0.2974  0.0222 -0.7251
15382SOL    HW149100   3.513   1.093   5.173 -2.1537 -0.8791 -1.0219
15382SOL    HW249101   3.456   1.232   5.191  0.7413  0.3248 -0.6716
15383SOL     OW49102   2.791   5.353   7.277 -0.2243  0.5320 -0.4706
15383SOL    HW149103   2.837   5.429   7.314 -0.7419 -0.1037  1.5858
15383SOL    HW249104   2.730   5.326   7.345  0.5007 -2.2383 -0.7899
15384SOL     OW49105   2.570   2.844   0.312  0.0186  0.3945 -0.0704
15384SOL    HW149106   2.510   2.887   0.373 -0.1599  0.4488 -0.2828
15384SOL    HW249107   2.531   2.857   0.226 -0.4780 -0.9142 -0.0644
15385SOL     OW49108   5.647   3.375   6.791  0.5664  0.0162  0.0777
15385SOL    HW149109   5.562   3.417   6.797  1.2403  1.4401  0.0008
15385SOL    HW249110   5.661   3.359   6.698  0.8687  0.8482 -0.0275
15386SOL     OW49111   0.788   1.746   3.979  0.0547  0.1572 -0.0901
15386SOL    HW149112   0.861   1.764   4.039 -0.2734  0.4513  0.2265
15386SOL    HW249113   0.830   1.711   3.900  0.4084 -1.5646  0.8031
15387SOL     OW49114   0.815   4.842   1.354  0.0809 -0.4221  0.6491
15387SOL    HW149115   0.841   4.914   1.411  0.3426 -0.9194  1.1716
15387SOL    HW249116   0.886   4.835   1.291  0.6460 -0.9796  1.3253
15388SOL     OW49117   0.941   4.203   6.328  0.0592 -0.6726  0.1835
15388SOL    HW149118   0.953   4.264   6.256 -0.7913 -0.7346 -0.0240
15388SOL    HW249119   1.021   4.210   6.380  0.0208  0.5387  0.1060
15389SOL     OW49120   6.524   1.646   0.849 -0.4856 -0.0478 -0.4102
15389SOL    HW149121   6.500   1.553   0.850 -2.5485  0.4335 -0.9505
15389SOL    HW249122   6.497   1.679   0.934  1.7832 -0.2285  0.4586
15390SOL     OW49123   4.364   3.471   5.109  0.4889 -0.1395 -0.4551
15390SOL    HW149124   4.326   3.394   5.067 -0.1346  0.6068 -1.3135
15390SOL    HW249125   4.288   3.519   5.143  0.8969 -0.0935  0.4130
15391SOL     OW49126   1.271   6.871   3.255  0.0229  0.4384  0.3763
15391SOL    HW149127   1.250   6.954   3.298  1.2126  1.3055 -0.6606
15391SOL    HW249128   1.306   6.896   3.170 -1.5368 -1.2070 -0.8363
15392SOL     OW49129   3.954   2.809   6.791 -0.2220  0.7875  0.0786
15392SOL    HW149130   4.018   2.759   6.740  0.0020 -0.2807  1.3441
15392SOL    HW249131   3.873   2.757   6.783  0.2361 -0.3628  2.1495
15393SOL     OW49132   3.974   0.048   2.791 -0.5126 -0.0434 -0.1427
15393SOL    HW149133   3.974   0.098   2.710 -0.4731  0.0969 -0.0551
15393SOL    HW249134   4.011   0.107   2.856  0.1816 -0.4183 -0.1837
15394SOL     OW49135   1.457   1.524   2.409  0.7406  0.4269  0.0607
15394SOL    HW149136   1.410   1.548   2.489 -0.5771 -0.2582 -0.4762
15394SOL    HW249137   1.548   1.517   2.436  0.3048  0.0543  1.5416
15395SOL     OW49138   4.657   4.280   2.761 -0.3137  0.2192  0.0229
15395SOL    HW149139   4.731   4.321   2.716 -0.7281  1.1852  0.2082
15395SOL    HW249140   4.644   4.197   2.715  0.1877  0.5351 -0.7011
15396SOL     OW49141   5.887   6.727   2.596  0.0993 -0.0878  0.4876
15396SOL    HW149142   5.908   6.658   2.659  1.2444  1.2550  1.6403
15396SOL    HW249143   5.872   6.680   2.514 -2.0733 -1.9474  1.8282
15397SOL     OW49144   4.581   4.056   6.324 -0.1582  0.3368 -0.3858
15397SOL    HW149145   4.590   4.028   6.233  0.1409  0.4775 -0.3994
15397SOL    HW249146   4.490   4.084   6.331 -0.2733  0.0063 -0.5519
15398SOL     OW49147   5.120   4.776   4.000 -0.0121  0.1316  0.0604
15398SOL    HW149148   5.097   4.683   3.998  1.8717 -0.3834  0.2888
15398SOL    HW249149   5.164   4.788   4.085  0.8380  0.9377 -0.4725
15399SOL     OW49150   3.061   7.029   1.580 -0.4909  1.1082 -0.3438
15399SOL    HW149151   3.083   7.093   1.648 -2.3741  1.7436 -0.2779
15399SOL    HW249152   2.971   7.003   1.600 -0.5254  0.1077 -1.6825
15400SOL     OW49153   2.567   2.413   5.965 -0.0973 -0.1138  0.5496
15400SOL    HW149154   2.484   2.459   5.968  1.1105  2.2054  1.2867
15400SOL    HW249155   2.623   2.468   5.910  1.2322 -1.0635  0.8922
15401SOL     OW49156   2.484   1.275   7.269  0.5517  0.0622 -0.3379
15401SOL    HW149157   2.451   1.278   7.180 -1.6972 -0.8062  0.4088
15401SOL    HW249158   2.410   1.246   7.322  1.6561  1.0368  1.8992
15402SOL     OW49159   6.261   2.577   3.452 -0.1206  0.9547  0.1095
15402SOL    HW149160   6.211   2.530   3.519 -0.7400  1.9001  0.3246
15402SOL    HW249161   6.209   2.566   3.372 -0.2555  1.2613  0.1560
15403SOL     OW49162   7.351   1.935   1.734  0.3578  0.4813  0.2504
15403SOL    HW149163   7.337   1.850   1.775 -0.4673  1.4465  2.1058
15403SOL    HW249164   7.378   1.915   1.644  0.3716 -1.7127  0.6978
15404SOL     OW49165   5.254   2.363   1.009  0.0423 -0.9451 -0.7362
15404SOL    HW149166   5.171   2.394   1.047 -0.6135 -2.3379 -0.9783
15404SOL    HW249167   5.304   2.331   1.085 -0.1454 -1.2290 -0.7325
15405SOL     OW49168   5.946   3.637   0.739  0.7758  0.2680 -0.7027
15405SOL    HW149169   5.935   3.542   0.743  0.2501  0.2763 -1.6483
15405SOL    HW249170   5.887   3.665   0.670  2.2745  1.0641 -1.7256
15406SOL     OW49171   2.258   7.106   5.465 -0.1482 -0.0926  0.6100
15406SOL    HW149172   2.327   7.060   5.416  0.3533 -0.2928  1.4667
15406SOL    HW249173   2.276   7.199   5.451  0.3830 -0.1429  0.9222
15407SOL     OW49174   5.193   0.927   5.257 -0.0560  0.5335  0.6584
15407SOL    HW149175   5.131   0.966   5.318  0.9624  0.5057  1.7381
15407SOL    HW249176   5.274   0.976   5.269 -0.0004  0.9850 -1.1874
15408SOL     OW49177   6.505   0.784   8.066  0.3900  0.3850  0.1359
15408SOL    HW149178   6.553   0.744   7.994 -0.4475  0.7891 -0.6668
15408SOL    HW249179   6.420   0.740   8.066  1.4110 -1.9177  2.9605
15409SOL     OW49180   4.008   4.021   3.471  0.2068 -0.2200 -0.1312
15409SOL    HW149181   4.031   4.068   3.391 -1.4745  0.1096 -0.4570
15409SOL    HW249182   4.081   4.038   3.530  1.2002  0.0159 -1.3913
15410SOL     OW49183   7.909   4.895   5.904 -0.1942  0.3898 -0.1694
15410SOL    HW149184   7.925   4.860   5.991  1.3713 -0.1129 -0.6363
15410SOL    HW249185   7.980   4.861   5.850 -1.1931  0.5802 -1.6879
15411SOL     OW49186   7.835   0.492   7.308  0.1767  0.3317 -0.2410
15411SOL    HW149187   7.877   0.420   7.261 -1.9175 -1.1363  0.0223
15411SOL    HW249188   7.867   0.483   7.398 -0.2235 -0.3951 -0.1689
15412SOL     OW49189   7.601   3.531   4.857 -0.9539 -0.0218  0.6986
15412SOL    HW149190   7.547   3.549   4.934  0.2900  1.9870  1.1802
15412SOL    HW249191   7.691   3.529   4.890 -0.4676 -0.1014 -0.5533
15413SOL     OW49192   1.068   0.267   4.717  0.1951  0.1501 -0.5748
15413SOL    HW149193   1.029   0.354   4.725 -0.4008 -0.1694  0.0249
15413SOL    HW249194   1.057   0.227   4.803  0.2169 -0.6203 -0.9195
15414SOL     OW49195   3.074   4.922   7.459 -0.0220 -0.8973 -0.1537
15414SOL    HW149196   3.062   4.969   7.377 -1.2189 -2.2312 -0.7957
15414SOL    HW249197   2.986   4.915   7.496  0.4617 -0.5822  1.0970
15415SOL     OW49198   4.303   2.750   4.338 -0.2763 -0.0627 -0.3140
15415SOL    HW149199   4.282   2.717   4.251 -2.4971 -1.9065  0.8072
15415SOL    HW249200   4.222   2.790   4.370  0.1479 -0.3828  1.2905
15416SOL     OW49201   0.825   7.310   5.298 -0.4609 -0.1462  0.0177
15416SOL    HW149202   0.890   7.240   5.293  1.5038  1.5356  0.6608
15416SOL    HW249203   0.827   7.350   5.211 -0.0009  0.4062  0.2721
15417SOL     OW49204   5.802   5.530   6.595 -0.1775  0.5996  0.1660
15417SOL    HW149205   5.878   5.511   6.650 -0.8493 -0.0271  0.9076
15417SOL    HW249206   5.729   5.533   6.657 -0.3831  4.2771 -0.0180
15418SOL     OW49207   4.468   1.232   7.722  0.5280  0.2635 -0.1881
15418SOL    HW149208   4.544   1.270   7.676 -0.8487  3.0433 -0.3745
15418SOL    HW249209   4.437   1.302   7.779 -0.5377 -1.6051  1.6872
15419SOL     OW49210   4.896   6.129   4.858  0.4564  0.2932  0.2585
15419SOL    HW149211   4.884   6.123   4.952 -0.2887  0.4077  0.1778
15419SOL    HW249212   4.939   6.213   4.843 -0.3820  0.7517  0.4132
15420SOL     OW49213   6.393   2.434   0.124  0.0617  0.2347  0.2049
15420SOL    HW149214   6.358   2.416   0.037  0.4174  1.3865 -0.1868
15420SOL    HW249215   6.459   2.501   0.111  1.0816 -0.5214  1.1946
15421SOL     OW49216   3.528   2.495   7.684 -0.1429  0.9787 -0.8090
15421SOL    HW149217   3.620   2.523   7.688  0.5988 -1.4202  1.3255
15421SOL    HW249218   3.480   2.567   7.723  1.0947  1.3686  0.0489
15422SOL     OW49219   5.622   2.379   4.035 -0.8107  0.8496  0.1677
15422SOL    HW149220   5.620   2.305   3.975  0.0592  1.1671 -0.2736
15422SOL    HW249221   5.697   2.431   4.006 -0.6555  1.2470  1.2519
15423SOL     OW49222   5.153   4.118   1.353 -0.8725  0.6216  0.5275
15423SOL    HW149223   5.113   4.203   1.334 -1.0361  0.6021  0.7791
15423SOL    HW249224   5.214   4.136   1.424 -1.6925  0.3332  1.3258
15424SOL     OW49225   5.113   6.112   5.229  0.0260  0.3954  0.8430
15424SOL    HW149226   5.096   6.018   5.221  0.0186  0.2112  2.6937
15424SOL    HW249227   5.188   6.127   5.172  0.0415 -0.7427  0.5361
15425SOL     OW49228   5.322   2.595   1.894  0.4669  0.4331  0.2473
15425SOL    HW149229   5.279   2.599   1.980  0.1897 -0.1397  0.1400
15425SOL    HW249230   5.304   2.506   1.863 -0.4203  1.0004 -0.9170
15426SOL     OW49231   6.014   5.018   8.039  0.0164  0.5562 -0.0194
15426SOL    HW149232   5.937   5.062   8.073  1.0134  2.0849  0.3462
15426SOL    HW249233   6.039   5.069   7.961  0.3804 -0.2039 -0.4171
15427SOL     OW49234   0.696   6.358   6.081  0.4056 -0.1890 -0.4016
15427SOL    HW149235   0.752   6.281   6.068 -0.9632 -1.0995 -1.1475
15427SOL    HW249236   0.754   6.423   6.121  1.3203 -1.9933  1.4103
15428SOL     OW49237   2.501   2.158   4.214 -0.2358 -0.4235  0.0711
15428SOL    HW149238   2.465   2.146   4.126 -1.1379  0.6769  0.2582
15428SOL    HW249239   2.581   2.210   4.201  0.2257 -1.1882 -0.1814
15429SOL     OW49240   5.178   1.608   3.054  0.1036  0.0167  0.4969
15429SOL    HW149241   5.169   1.604   2.959 -0.1552 -0.0505  0.5218
15429SOL    HW249242   5.120   1.539   3.087  1.0413 -0.7045  0.6660
15430SOL     OW49243   5.299   2.050   6.804  0.5460 -0.4484  0.1410
15430SOL    HW149244   5.366   2.107   6.841  0.4210  1.4331 -2.2512
15430SOL    HW249245   5.220   2.105   6.801 -0.5973 -1.9688  1.0711
15431SOL     OW49246   2.550   1.131   5.716 -0.9488 -0.1484 -0.4262
15431SOL    HW149247   2.570   1.039   5.698 -1.3397 -0.4158  0.4425
15431SOL    HW249248   2.509   1.163   5.636  0.4807 -0.3304 -1.2629
15432SOL     OW49249   2.006   2.872   1.575 -0.2880  0.2812  0.2866
15432SOL    HW149250   2.038   2.787   1.604 -2.8240 -0.6057  0.7510
15432SOL    HW249251   2.007   2.926   1.654 -0.6970 -0.0189  0.5054
15433SOL     OW49252   7.984   6.092   7.607  0.4027  0.1816  0.4689
15433SOL    HW149253   8.021   6.114   7.522 -1.1596  0.1102 -0.2544
15433SOL    HW249254   8.040   6.022   7.640 -1.0852 -2.4528 -2.1850
15434SOL     OW49255   3.251   7.797   3.398  0.1330  0.3091 -0.1040
15434SOL    HW149256   3.228   7.749   3.478 -0.1706  0.4158 -0.1250
15434SOL    HW249257   3.293   7.877   3.429  1.9891 -0.6249 -0.0899
15435SOL     OW49258   3.744   6.960   6.824 -0.0648  0.3443  0.2562
15435SOL    HW149259   3.799   6.990   6.897 -0.4355 -0.7210  0.9854
15435SOL    HW249260   3.660   6.941   6.864  0.2035 -1.8491 -0.1249
15436SOL     OW49261   1.194   1.109   3.419 -0.2504  0.4355  0.1684
15436SOL    HW149262   1.262   1.155   3.468  0.2773  1.3538 -1.3423
15436SOL    HW249263   1.114   1.156   3.439  0.1704  1.6129 -0.7956
15437SOL     OW49264   1.417   1.436   1.895  0.1478 -0.6336 -0.4288
15437SOL    HW149265   1.379   1.495   1.830 -0.0216 -1.1186 -0.7855
15437SOL    HW249266   1.506   1.419   1.862  1.3676  1.8875  1.3225
15438SOL     OW49267   2.241   1.055   2.155 -0.5609 -0.3852  0.0185
15438SOL    HW149268   2.318   1.080   2.206  0.3634 -0.6675 -1.2159
15438SOL    HW249269   2.171   1.111   2.189  0.4006  0.5580  0.4890
15439SOL     OW49270   0.664   3.649   7.255  0.2388 -0.2996 -0.0265
15439SOL    HW149271   0.685   3.616   7.167 -1.2552 -0.6261 -0.2803
15439SOL    HW249272   0.750   3.667   7.294  0.9574 -0.7456 -1.3155
15440SOL     OW49273   5.340   2.249   5.439 -0.3729 -0.2859 -0.1363
15440SOL    HW149274   5.343   2.224   5.531  0.4992  3.7024  1.0862
15440SOL    HW249275   5.261   2.301   5.430  1.0225  1.8473 -0.8026
15441SOL     OW49276   5.406   5.205   1.753 -0.3096  0.6565 -0.1035
15441SOL    HW149277   5.426   5.286   1.706 -0.9638  1.1375  0.4293
15441SOL    HW249278   5.322   5.177   1.717 -0.2749  0.4215 -0.0014
15442SOL     OW49279   2.962   1.405   6.946 -0.1892  0.5054 -0.3653
15442SOL    HW149280   2.952   1.473   6.880 -2.6226 -0.5894 -1.2589
15442SOL    HW249281   2.937   1.324   6.901  1.9760 -0.9394  0.8191
15443SOL     OW49282   3.687   0.108   5.331 -0.2100  0.5823 -0.3507
15443SOL    HW149283   3.771   0.066   5.348  0.7215  2.1908 -0.7131
15443SOL    HW249284   3.656   0.138   5.416 -0.1317  0.4862 -0.2896
15444SOL     OW49285   3.721   0.397   1.941 -0.1498 -0.1004  0.4908
15444SOL    HW149286   3.810   0.375   1.967 -0.0421 -0.6590 -0.3143
15444SOL    HW249287   3.668   0.323   1.972 -0.3498  0.2500  1.0069
15445SOL     OW49288   3.874   4.477   3.744  0.3324  0.1863  0.2042
15445SOL    HW149289   3.966   4.469   3.768  0.0041 -0.3303  1.3562
15445SOL    HW249290   3.827   4.480   3.827 -0.6915  0.5360 -0.3641
15446SOL     OW49291   1.790   5.582   4.214 -0.0259 -0.0872 -0.7228
15446SOL    HW149292   1.789   5.566   4.120 -1.0470  0.1175 -0.7572
15446SOL    HW249293   1.833   5.668   4.222  3.0763 -1.5216 -0.7211
15447SOL     OW49294   2.600   0.140   3.282 -0.3936  0.6075 -0.4016
15447SOL    HW149295   2.576   0.205   3.217 -1.0672  1.5047  0.7124
15447SOL    HW249296   2.695   0.140   3.282 -0.3888  1.2124 -0.7849
15448SOL     OW49297   3.719   4.322   4.226 -0.2571  0.3633  0.0308
15448SOL    HW149298   3.714   4.373   4.145  1.2404  2.0689  0.9427
15448SOL    HW249299   3.771   4.376   4.286  0.3250 -1.6858  1.5027
15449SOL     OW49300   2.694   8.030   0.331 -0.4615 -0.0358  0.2259
15449SOL    HW149301   2.620   7.991   0.376 -0.5554 -0.2177 -0.0829
15449SOL    HW249302   2.714   7.969   0.259 -1.0064  0.7800 -0.6438
15450SOL     OW49303   4.456   5.920   1.451 -0.2131  0.0056 -0.3586
15450SOL    HW149304   4.518   5.988   1.428  2.5235 -2.2045 -0.0811
15450SOL    HW249305   4.379   5.967   1.484  1.8327  2.9098  0.6412
15451SOL     OW49306   4.231   7.999   3.753 -0.5785 -0.6034  0.0181
15451SOL    HW149307   4.182   7.955   3.822  0.7546 -0.3285  1.1744
15451SOL    HW249308   4.173   8.070   3.724 -0.6269  0.1447  1.8366
15452SOL     OW49309   4.252   3.981   6.138  0.4233 -0.0236 -0.2643
15452SOL    HW149310   4.306   3.936   6.073  2.1447  1.7394 -0.1560
15452SOL    HW249311   4.190   4.032   6.085  0.5878 -0.0351 -0.4717
15453SOL     OW49312   5.734   3.751   1.796  0.2885 -0.1380 -0.3007
15453SOL    HW149313   5.682   3.731   1.873 -0.0384 -2.5711 -1.0567
15453SOL    HW249314   5.674   3.797   1.737  0.1462  0.4994  0.3282
15454SOL     OW49315   1.988   7.274   4.795  0.3948  0.5244 -0.3062
15454SOL    HW149316   2.022   7.277   4.884  0.2617 -1.7162 -0.1386
15454SOL    HW249317   1.898   7.241   4.804  0.6693 -0.5705 -1.3044
15455SOL     OW49318   5.366   4.478   4.242  0.1964 -0.1423  0.1303
15455SOL    HW149319   5.372   4.391   4.281 -0.4461 -0.3176 -0.1577
15455SOL    HW249320   5.354   4.463   4.149 -1.3775  0.2110  0.2472
15456SOL     OW49321   1.122   1.751   7.294  0.3311  0.3394 -0.0993
15456SOL    HW149322   1.164   1.831   7.262  0.3283  0.5254  0.3607
15456SOL    HW249323   1.163   1.735   7.378  0.9393 -0.6212 -0.5667
15457SOL     OW49324   5.650   5.913   5.052 -0.4275  0.7374 -0.4191
15457SOL    HW149325   5.565   5.931   5.092 -0.5981  1.8106 -1.2034
15457SOL    HW249326   5.633   5.915   4.958  0.3381  0.2892 -0.5764
15458SOL     OW49327   5.085   5.727   4.787  0.9685 -0.6923  0.5303
15458SOL    HW149328   5.150   5.680   4.735  1.2657 -0.3841  0.6183
15458SOL    HW249329   5.092   5.818   4.757 -0.1718 -0.8351 -0.2260
15459SOL     OW49330   4.380   0.203   4.635 -0.2226  0.7768 -0.6379
15459SOL    HW149331   4.367   0.244   4.720  0.6673  0.9391 -0.5688
15459SOL    HW249332   4.295   0.210   4.591 -0.1182  2.6619 -0.6240
15460SOL     OW49333   0.434   0.492   3.055 -0.2983 -0.1754 -0.3906
15460SOL    HW149334   0.399   0.582   3.055 -0.4269 -0.2043  1.2611
15460SOL    HW249335   0.358   0.437   3.077  0.4257 -0.3678  1.8190
15461SOL     OW49336   0.039   1.646   6.580 -0.0093  0.7786 -0.4881
15461SOL    HW149337   0.078   1.598   6.506 -1.5738 -1.3639 -0.0193
15461SOL    HW249338   0.089   1.616   6.656  0.5514  1.7539 -0.4617
15462SOL     OW49339   5.303   2.431   2.320 -0.2523 -0.7293 -0.2332
15462SOL    HW149340   5.257   2.443   2.403  1.4103  0.1414  0.6324
15462SOL    HW249341   5.381   2.381   2.344 -0.3233 -1.4861 -1.5013
15463SOL     OW49342   3.345   0.205   7.378 -0.0222 -0.0110  0.2845
15463SOL    HW149343   3.426   0.159   7.397  0.6802  0.6194 -1.0585
15463SOL    HW249344   3.370   0.297   7.371 -1.0556  0.3379  0.9447
15464SOL     OW49345   6.518   2.977   2.881  0.1270  0.3777  0.0474
15464SOL    HW149346   6.605   2.947   2.909  0.6544  1.5873 -0.2363
15464SOL    HW249347   6.500   3.053   2.936 -0.2598  0.8078 -0.6550
15465SOL     OW49348   5.416   2.125   6.186 -0.0968  0.0284  0.7886
15465SOL    HW149349   5.373   2.195   6.235  0.9152  2.0350 -1.0026
15465SOL    HW249350   5.495   2.106   6.236  0.0376  0.8002  0.8876
15466SOL     OW49351   5.266   1.944   0.373 -0.7685 -0.0662  0.5028
15466SOL    HW149352   5.310   2.029   0.377 -1.8827  0.6079 -0.7479
15466SOL    HW249353   5.333   1.881   0.401 -0.0647  1.2423  1.9724
15467SOL     OW49354   2.662   0.804   2.774  0.1999 -0.0883 -0.1087
15467SOL    HW149355   2.734   0.756   2.733  0.7510  0.1917  0.5213
15467SOL    HW249356   2.702   0.884   2.807 -0.6190  0.5789 -0.7093
15468SOL     OW49357   6.477   3.923   2.880 -0.6148  0.6755 -0.4246
15468SOL    HW149358   6.468   3.844   2.827 -0.9198  0.9807 -0.8368
15468SOL    HW249359   6.395   3.929   2.929 -0.2250  0.2470  0.2972
15469SOL     OW49360   2.475   6.876   7.380 -0.0004  0.0581  0.1676
15469SOL    HW149361   2.449   6.787   7.356  0.0515  0.7296 -2.6633
15469SOL    HW249362   2.479   6.874   7.476 -3.6404 -1.9725  0.4848
15470SOL     OW49363   1.664   8.106   1.954 -0.1596  0.0978  0.7408
15470SOL    HW149364   1.661   8.025   2.005 -0.5296  0.4924  1.3543
15470SOL    HW249365   1.573   8.136   1.951  0.1443  1.1850  1.6536
15471SOL     OW49366   0.611   7.251   4.161 -0.0128 -0.1178 -0.0660
15471SOL    HW149367   0.675   7.268   4.092 -1.6105 -1.0346 -1.8716
15471SOL    HW249368   0.544   7.318   4.148  0.3426  0.6170  1.5825
15472SOL     OW49369   7.938   5.042   0.388  0.1552  0.1893  1.0747
15472SOL    HW149370   7.977   4.969   0.340 -0.1282 -0.2141  1.4571
15472SOL    HW249371   8.001   5.062   0.457  0.5698  0.7801  0.5383
15473SOL     OW49372   5.218   5.559   4.615 -0.6364  0.2150  0.3456
15473SOL    HW149373   5.169   5.511   4.549  1.0514 -0.8503 -0.2141
15473SOL    HW249374   5.296   5.590   4.569 -0.5418  1.4564  1.2890
15474SOL     OW49375   5.846   3.713   6.656  0.2667  0.1408  0.9033
15474SOL    HW149376   5.880   3.803   6.653 -1.8280  1.0695  1.9868
15474SOL    HW249377   5.808   3.699   6.569 -0.8406  1.0009  1.2056
15475SOL     OW49378   5.568   0.290   4.000  0.4278  0.0488 -0.2396
15475SOL    HW149379   5.549   0.280   4.093 -1.0368 -0.5515 -0.5665
15475SOL    HW249380   5.557   0.202   3.964 -2.0538  0.7422 -1.4436
15476SOL     OW49381   3.550   3.951   7.693 -0.2204  0.1378  0.5055
15476SOL    HW149382   3.564   4.010   7.767  0.2312 -0.7584  1.1579
15476SOL    HW249383   3.638   3.927   7.664 -0.3324 -1.8583  1.6216
15477SOL     OW49384   7.126   1.596   0.261 -0.3857 -0.0418 -0.1721
15477SOL    HW149385   7.137   1.593   0.166  1.0526 -0.3715 -0.0251
15477SOL    HW249386   7.206   1.636   0.294 -0.7699 -0.1119  0.9188
15478SOL     OW49387   2.185   1.458   0.996 -0.4103 -0.3673 -0.2658
15478SOL    HW149388   2.148   1.542   1.022 -0.0793 -0.0707 -0.7351
15478SOL    HW249389   2.171   1.453   0.902 -1.7733 -1.5232 -0.0325
15479SOL     OW49390   4.929   7.457   7.175 -0.7968  0.2737 -0.3432
15479SOL    HW149391   4.985   7.463   7.252 -0.3875  0.1846 -0.6314
15479SOL    HW249392   4.846   7.423   7.209 -0.0607 -1.5217 -0.1841
15480SOL     OW49393   5.425   1.561   3.150  0.6215 -0.7316  0.4042
15480SOL    HW149394   5.337   1.575   3.116  0.2393  0.0502  1.6529
15480SOL    HW249395   5.483   1.589   3.080 -0.1324  1.3028  0.5359
15481SOL     OW49396   5.397   0.820   2.101  0.3173 -0.1960  0.2696
15481SOL    HW149397   5.425   0.911   2.099  2.8155 -0.8869  0.4540
15481SOL    HW249398   5.455   0.776   2.039 -1.2396 -1.5702 -0.2620
15482SOL     OW49399   0.516   0.191   4.408  0.0244  0.7855 -0.1047
15482SOL    HW149400   0.560   0.184   4.493 -1.7223 -1.3248  0.7115
15482SOL    HW249401   0.587   0.196   4.345  1.3845  0.8231  1.3643
15483SOL     OW49402   4.921   0.994   0.262  0.0299  0.1606 -0.1548
15483SOL    HW149403   4.827   0.996   0.278  0.0810 -0.8772  0.3822
15483SOL    HW249404   4.952   1.079   0.292 -0.7968  0.6825 -0.7610
15484SOL     OW49405   0.447   6.535   7.698 -0.2933  0.4459 -0.4778
15484SOL    HW149406   0.516   6.492   7.748 -0.6373  0.7973  0.3334
15484SOL    HW249407   0.463   6.510   7.607 -1.1973 -2.4548  0.0396
15485SOL     OW49408   4.638   1.709   6.090 -0.7212 -0.3083 -0.1402
15485SOL    HW149409   4.614   1.627   6.133 -0.8577 -0.6082 -0.7752
15485SOL    HW249410   4.710   1.685   6.031  0.6102  0.4207  1.1294
15486SOL     OW49411   3.376   5.461   7.128 -0.1133  0.2472 -0.4184
15486SOL    HW149412   3.320   5.415   7.065  0.4107  0.8925 -1.3907
15486SOL    HW249413   3.465   5.434   7.105  0.1639  1.3225 -0.6687
15487SOL     OW49414   6.763   6.498   4.278 -0.0683 -0.2921  0.0757
15487SOL    HW149415   6.744   6.451   4.359  0.1970  0.1272  0.3854
15487SOL    HW249416   6.743   6.589   4.298 -0.2974 -0.2259 -0.4289
15488SOL     OW49417   2.475   3.331   7.606  0.5456  0.8119 -1.6181
15488SOL    HW149418   2.434   3.350   7.691  0.5021 -1.6842 -0.9824
15488SOL    HW249419   2.407   3.349   7.542  0.1577  1.5431 -1.0193
15489SOL     OW49420   6.817   7.893   6.784  0.1765 -0.3792  0.5113
15489SOL    HW149421   6.912   7.883   6.779  0.3617  0.3618  1.9308
15489SOL    HW249422   6.798   7.970   6.731  0.1713 -1.2937 -0.8752
15490SOL     OW49423   6.751   0.987   0.989  0.2180  0.2373  0.0239
15490SOL    HW149424   6.753   0.971   0.895  0.0637  0.1918  0.0290
15490SOL    HW249425   6.813   1.060   1.002 -2.4524  2.7998 -0.6237
15491SOL     OW49426   7.923   1.825   6.494  0.0392  0.0926 -0.8589
15491SOL    HW149427   7.997   1.780   6.534  0.5542  0.4800 -1.3569
15491SOL    HW249428   7.862   1.841   6.566 -0.6861 -2.3839 -0.8344
15492SOL     OW49429   1.057   3.590   5.255 -0.5868  0.1066  0.1274
15492SOL    HW149430   1.042   3.677   5.294 -0.7840  0.0963  0.0743
15492SOL    HW249431   0.970   3.558   5.234 -0.4383  0.5872 -1.3697
15493SOL     OW49432   1.907   7.345   3.930  0.0854 -0.9042 -0.3722
15493SOL    HW149433   1.930   7.256   3.905 -2.6826 -0.8560 -3.8178
15493SOL    HW249434   1.962   7.400   3.874  0.0315 -0.5062 -0.0341
15494SOL     OW49435   2.346   1.014   4.995 -0.8569 -0.3151  0.0782
15494SOL    HW149436   2.369   0.960   4.920  0.1635 -1.6303  1.2728
15494SOL    HW249437   2.250   1.015   4.996 -0.9177  0.9585 -2.0304
15495SOL     OW49438   2.910   0.469   1.366  0.1751  0.4247 -0.3121
15495SOL    HW149439   2.956   0.412   1.303  0.1613 -0.9261  0.8513
15495SOL    HW249440   2.836   0.505   1.316  0.6354  0.0489 -1.2966
15496SOL     OW49441   7.767   1.919   0.856  0.2487  0.1290 -0.3480
15496SOL    HW149442   7.801   1.854   0.918 -2.1633 -0.3285  0.6182
15496SOL    HW249443   7.811   1.900   0.774  1.5035 -1.0485  0.5657
15497SOL     OW49444   0.541   6.297   4.461  0.0634  0.0359 -0.1256
15497SOL    HW149445   0.608   6.363   4.477  0.5503 -0.6085  0.5935
15497SOL    HW249446   0.458   6.342   4.477  0.3341  0.7869 -0.8288
15498SOL     OW49447   2.652   4.712   2.798 -0.7741  0.2841  0.2113
15498SOL    HW149448   2.695   4.784   2.844 -2.2687 -0.4249  2.9075
15498SOL    HW249449   2.644   4.742   2.708  3.6657  1.1532 -0.1078
15499SOL     OW49450   4.793   4.771   6.882  0.3123  0.1995  0.2666
15499SOL    HW149451   4.731   4.782   6.810  0.4876  0.1479  0.1059
15499SOL    HW249452   4.852   4.702   6.852 -0.5602 -0.9293  1.1187
15500SOL     OW49453   7.450   0.339   3.280 -0.1560  0.0237 -0.1477
15500SOL    HW149454   7.518   0.360   3.344  0.6350  0.6465 -1.1635
15500SOL    HW249455   7.492   0.278   3.219 -1.0885 -1.0497  0.2601
15501SOL     OW49456   2.015   3.708   7.725 -0.0419 -0.4075 -0.1802
15501SOL    HW149457   2.069   3.784   7.747 -0.1829 -0.3674  0.0318
15501SOL    HW249458   2.020   3.652   7.802  0.0672 -0.6160 -0.3399
15502SOL     OW49459   6.531   7.657   3.948  0.0186  0.3383  0.3465
15502SOL    HW149460   6.627   7.648   3.942 -0.0084 -0.9371  1.3693
15502SOL    HW249461   6.506   7.699   3.866  1.2004 -1.7335 -1.1605
15503SOL     OW49462   3.641   6.781   7.976 -0.4487 -0.1453  0.4530
15503SOL    HW149463   3.620   6.691   8.002 -0.3057 -0.4219 -0.3698
15503SOL    HW249464   3.689   6.772   7.894  0.6485  0.6157  0.9892
15504SOL     OW49465   8.108   1.511   7.994 -0.2018  0.1919  0.1126
15504SOL    HW149466   8.170   1.530   7.924  0.9286 -1.1703  0.7013
15504SOL    HW249467   8.163   1.490   8.069 -1.2412 -3.6422  0.0018
15505SOL     OW49468   6.736   1.960   2.391  0.6116 -0.2191 -0.3639
15505SOL    HW149469   6.694   1.971   2.305  0.2851  1.5278 -0.0263
15505SOL    HW249470   6.738   1.865   2.405  0.7866 -0.5521 -2.3494
15506SOL     OW49471   7.823   3.757   0.397  0.6850  0.7150 -0.0061
15506SOL    HW149472   7.746   3.791   0.352  0.5243  0.2154 -0.1106
15506SOL    HW249473   7.793   3.740   0.486  1.7447  4.6684  1.3191
15507SOL     OW49474   4.444   5.302   7.297  0.0392 -0.6078  0.2234
15507SOL    HW149475   4.371   5.310   7.359 -0.3126  1.3853 -0.3911
15507SOL    HW249476   4.477   5.213   7.310 -1.2117 -0.8602  1.9417
15508SOL     OW49477   1.636   0.271   5.357 -0.4743  0.2527  0.2632
15508SOL    HW149478   1.648   0.230   5.443 -0.8254 -0.7280 -0.1550
15508SOL    HW249479   1.544   0.256   5.336 -0.2434 -0.0429 -0.5578
15509SOL     OW49480   5.473   7.806   2.054 -0.5045 -0.1438 -0.0074
15509SOL    HW149481   5.405   7.741   2.034 -1.7086  0.6004  1.5098
15509SOL    HW249482   5.470   7.867   1.981  0.7587 -1.7944 -1.5515
15510SOL     OW49483   6.356   4.719   2.383  0.2455  0.0368 -0.1273
15510SOL    HW149484   6.336   4.757   2.297 -1.6855 -0.3120  0.1099
15510SOL    HW249485   6.302   4.640   2.387 -0.6596  0.6894  1.8691
15511SOL     OW49486   3.901   1.746   3.792  0.8972 -0.4636  0.2505
15511SOL    HW149487   3.818   1.769   3.834  0.3538 -0.7173 -0.6627
15511SOL    HW249488   3.956   1.715   3.864 -0.3135 -1.7668  0.6740
15512SOL     OW49489   5.675   2.517   6.789  0.1646  0.0746 -0.1233
15512SOL    HW149490   5.697   2.532   6.697  3.3552 -1.0217  0.3371
15512SOL    HW249491   5.675   2.605   6.828  1.1548  0.3576 -0.7355
15513SOL     OW49492   4.711   7.171   4.876 -0.6253 -0.4731 -0.2586
15513SOL    HW149493   4.621   7.141   4.862 -1.0008  1.3592 -2.2494
15513SOL    HW249494   4.748   7.179   4.788  1.2713 -0.4806  0.4835
15514SOL     OW49495   1.349   5.891   4.924 -0.1906  0.0433  0.2741
15514SOL    HW149496   1.384   5.979   4.906  0.2739  0.1294  1.5435
15514SOL    HW249497   1.418   5.832   4.896 -0.6229  0.0451 -0.8668
15515SOL     OW49498   6.422   3.678   7.175  0.4631  0.2842 -0.0505
15515SOL    HW149499   6.328   3.664   7.169  0.6407 -0.3426 -2.1269
15515SOL    HW249500   6.452   3.683   7.084  2.3481  1.1265  0.5576
15516SOL     OW49501   4.988   3.266   7.464  0.8116 -0.4138  0.4433
15516SOL    HW149502   5.004   3.232   7.552  1.0234 -0.7806  0.2687
15516SOL    HW249503   4.958   3.190   7.415 -1.6171  0.2660  0.7747
15517SOL     OW49504   0.243   7.054   2.005 -0.3088 -0.3822 -0.2265
15517SOL    HW149505   0.256   6.974   2.056  0.1903  0.0168  0.2774
15517SOL    HW249506   0.190   7.026   1.930 -0.1572 -1.1810 -0.0433
15518SOL     OW49507   6.331   6.002   1.792 -0.2163 -1.0256  0.5178
15518SOL    HW149508   6.341   6.040   1.705 -0.3156 -0.7831  0.6096
15518SOL    HW249509   6.244   5.963   1.791 -1.3094  1.2013  1.3211
15519SOL     OW49510   0.436   0.856   6.936 -0.5535  0.1399  0.0823
15519SOL    HW149511   0.382   0.778   6.950 -1.8085  0.8632 -0.4657
15519SOL    HW249512   0.373   0.924   6.912  0.5111  1.3203  0.5122
15520SOL     OW49513   1.933   5.140   0.492  0.3697 -0.0912  0.0104
15520SOL    HW149514   1.917   5.234   0.502 -2.0787 -0.5825  1.5524
15520SOL    HW249515   1.895   5.117   0.407 -1.6411 -0.1062  0.8531
15521SOL     OW49516   5.220   0.117   6.624  0.1587  0.1346  0.3828
15521SOL    HW149517   5.249   0.027   6.640 -1.5222 -0.0410  2.9770
15521SOL    HW249518   5.283   0.172   6.671 -0.3373  0.1025  1.1103
15522SOL     OW49519   5.273   4.434   3.240  0.0750  0.4665  0.3251
15522SOL    HW149520   5.207   4.375   3.205  0.0418  0.4148  0.4776
15522SOL    HW249521   5.274   4.508   3.179  1.8235 -0.7698 -1.3020
15523SOL     OW49522   5.274   4.446   1.835 -0.8055  0.3687 -0.5446
15523SOL    HW149523   5.225   4.528   1.833 -1.6846 -0.1185  0.3841
15523SOL    HW249524   5.363   4.470   1.807 -0.5627  1.9753  1.4016
15524SOL     OW49525   0.280   3.120   7.430  0.1537  0.5249 -0.2123
15524SOL    HW149526   0.353   3.107   7.490  0.7812  0.2672 -1.0143
15524SOL    HW249527   0.226   3.187   7.472 -0.9017 -1.5529  1.9608
15525SOL     OW49528   3.563   3.580   3.556 -0.0651 -0.4711  0.1176
15525SOL    HW149529   3.654   3.565   3.581 -0.7540 -2.4182  1.7444
15525SOL    HW249530   3.525   3.629   3.629 -0.9911 -2.2744  0.9335
15526SOL     OW49531   0.103   7.688   3.610  0.1539  0.2387  0.3058
15526SOL    HW149532   0.139   7.704   3.697 -2.2590  1.5155  1.1612
15526SOL    HW249533   0.100   7.774   3.569 -1.8189  0.2011  0.2806
15527SOL     OW49534   3.099   6.138   1.396  0.1024 -0.3831  0.0198
15527SOL    HW149535   3.180   6.146   1.345  0.1956 -0.5443  0.1422
15527SOL    HW249536   3.030   6.167   1.336  0.1902 -0.7481 -0.2647
15528SOL     OW49537   2.257   2.217   3.467  1.4626  0.1734 -0.2671
15528SOL    HW149538   2.186   2.275   3.443  1.3207  0.8734  1.7215
15528SOL    HW249539   2.336   2.272   3.463  1.6630 -0.1381 -0.7278
15529SOL     OW49540   6.798   1.364   1.204 -0.1817 -0.5383  0.2466
15529SOL    HW149541   6.776   1.379   1.113  0.0295  0.1245  0.3027
15529SOL    HW249542   6.813   1.451   1.241  1.7000 -0.8898  0.4152
15530SOL     OW49543   2.967   5.003   4.987  0.8729 -0.7750 -0.5699
15530SOL    HW149544   3.031   4.933   4.976  2.2825  0.6999 -2.5580
15530SOL    HW249545   3.010   5.066   5.045 -0.3208 -1.4137  1.0860
15531SOL     OW49546   5.377   4.313   1.439  0.2014  0.1119 -0.1266
15531SOL    HW149547   5.468   4.340   1.428  0.9438 -2.4306 -0.8888
15531SOL    HW249548   5.339   4.321   1.352 -0.2248  0.8370  0.1188
15532SOL     OW49549   3.016   6.156   4.046 -0.4597 -0.7312 -0.5910
15532SOL    HW149550   2.979   6.198   3.968  0.8781 -1.1698 -1.4810
15532SOL    HW249551   3.067   6.083   4.013  1.2078 -0.1653  0.5891
15533SOL     OW49552   4.015   2.460   0.956 -0.0146 -0.1220  0.1664
15533SOL    HW149553   3.989   2.551   0.968 -1.2768 -0.3751 -0.4758
15533SOL    HW249554   4.104   2.465   0.923  0.2752  0.8434  1.0414
15534SOL     OW49555   4.400   0.829   4.841  0.3855  0.5740 -0.1208
15534SOL    HW149556   4.440   0.790   4.764 -0.4286 -1.3087  0.3660
15534SOL    HW249557   4.393   0.757   4.904  2.4180  2.3310  2.3493
15535SOL     OW49558   4.160   7.907   2.279 -0.3038  0.2199 -0.4351
15535SOL    HW149559   4.074   7.874   2.251  0.2907 -3.0909  1.0661
15535SOL    HW249560   4.223   7.860   2.225  0.6119  0.9940 -0.0740
15536SOL     OW49561   1.472   2.168   4.451  0.2133  0.4905  0.5101
15536SOL    HW149562   1.391   2.135   4.414  0.8562 -0.9083  0.2718
15536SOL    HW249563   1.446   2.214   4.531 -0.7025 -1.0627  1.1367
15537SOL     OW49564   3.469   3.188   7.413  0.1017  0.9153 -0.2656
15537SOL    HW149565   3.402   3.211   7.477 -1.9834  0.8841 -2.3189
15537SOL    HW249566   3.470   3.092   7.413  0.2745  0.9168 -0.1158
15538SOL     OW49567   4.585   6.561   0.596  0.4707 -0.0491 -0.1533
15538SOL    HW149568   4.509   6.601   0.638  0.1480  0.0528 -0.8136
15538SOL    HW249569   4.573   6.580   0.503 -0.0734 -2.2582 -0.5965
15539SOL     OW49570   2.498   3.831   1.017  0.2633  0.3070  0.1660
15539SOL    HW149571   2.491   3.905   0.956  2.9040  0.0088 -0.6234
15539SOL    HW249572   2.530   3.870   1.099 -0.6414  0.3392  0.5107
15540SOL     OW49573   7.450   4.862   3.609  0.6867 -0.1237  0.0745
15540SOL    HW149574   7.525   4.808   3.636  0.3334 -0.4831  0.3428
15540SOL    HW249575   7.449   4.934   3.673  1.1631  0.2103 -0.2878
15541SOL     OW49576   6.904   7.296   3.899 -0.3108 -0.2051  0.7668
15541SOL    HW149577   6.922   7.206   3.873  2.7386  0.5212 -0.0709
15541SOL    HW249578   6.990   7.330   3.927 -1.1921  2.6572  0.3136
15542SOL     OW49579   6.714   2.630   3.228  0.0746  0.0826 -0.0950
15542SOL    HW149580   6.648   2.570   3.262  0.4016  0.3959  1.1110
15542SOL    HW249581   6.786   2.626   3.291 -0.5044  2.8702  0.8831
15543SOL     OW49582   7.151   1.456   2.522 -0.4928 -0.2264  0.4360
15543SOL    HW149583   7.219   1.428   2.583 -0.4236  0.2988  0.6053
15543SOL    HW249584   7.198   1.496   2.450 -0.5626 -1.0348 -0.0798
15544SOL     OW49585   2.564   2.409   0.055 -0.8587  0.2578 -0.0624
15544SOL    HW149586   2.489   2.438   0.003 -1.2187 -1.2553 -0.4323
15544SOL    HW249587   2.583   2.483   0.113 -1.1465  1.5559 -1.5563
15545SOL     OW49588   0.082   5.872   6.065 -0.3588 -0.4581 -0.2886
15545SOL    HW149589   0.096   5.962   6.038 -0.5819  0.0281  1.1299
15545SOL    HW249590   0.021   5.878   6.138 -1.4302 -1.8782 -1.0134
15546SOL     OW49591   5.748   7.417   7.511 -0.5360  0.3182 -0.0552
15546SOL    HW149592   5.713   7.383   7.428 -0.7630  0.0907  0.1294
15546SOL    HW249593   5.783   7.340   7.555 -1.7295  0.1760  0.6991
15547SOL     OW49594   5.209   1.779   6.815 -0.1729 -0.3033  0.3410
15547SOL    HW149595   5.115   1.762   6.804 -0.5869 -0.8175  3.6732
15547SOL    HW249596   5.218   1.873   6.800 -1.3379 -0.1334  0.5554
15548SOL     OW49597   6.263   3.322   7.458  0.0805 -0.3871 -0.7575
15548SOL    HW149598   6.227   3.284   7.538 -1.4312 -0.5512 -1.4870
15548SOL    HW249599   6.319   3.393   7.489 -1.2213  0.1745  0.4303
15549SOL     OW49600   5.619   6.843   0.601 -0.1170 -0.1864 -0.2847
15549SOL    HW149601   5.711   6.864   0.613 -0.0381 -0.4499 -0.4390
15549SOL    HW249602   5.596   6.789   0.677 -0.4524  0.8631  0.3887
15550SOL     OW49603   4.234   2.331   3.028 -0.4011 -0.0925  0.1639
15550SOL    HW149604   4.140   2.314   3.032 -0.4998  0.2849 -0.3881
15550SOL    HW249605   4.253   2.380   3.108 -1.2998  2.6320 -1.1410
15551SOL     OW49606   5.119   5.485   5.746 -0.4891 -0.4081  0.1351
15551SOL    HW149607   5.191   5.526   5.697  0.1587 -3.1965 -1.4599
15551SOL    HW249608   5.044   5.492   5.688 -0.7955 -0.0429  0.5692
15552SOL     OW49609   6.989   6.942   5.190  0.2710 -0.5424  0.0451
15552SOL    HW149610   6.920   6.977   5.246  1.4958  0.7618  0.8091
15552SOL    HW249611   7.061   7.004   5.199  1.9475 -2.4154  0.1192
15553SOL     OW49612   1.114   3.119   4.841 -0.2926 -0.0010 -0.3296
15553SOL    HW149613   1.148   3.204   4.814  1.2367 -0.3082  0.5112
15553SOL    HW249614   1.019   3.131   4.847 -0.0544  1.7963  0.3060
15554SOL     OW49615   5.891   1.705   1.051  0.1385 -0.7569  0.4354
15554SOL    HW149616   5.854   1.792   1.041  0.0975 -0.8509 -0.2835
15554SOL    HW249617   5.880   1.663   0.965  2.5523 -0.5160 -0.0862
15555SOL     OW49618   1.680   5.364   7.309 -0.4843  0.0339  0.2541
15555SOL    HW149619   1.757   5.359   7.253 -0.1314  0.6857  0.6639
15555SOL    HW249620   1.610   5.395   7.252 -0.4847 -0.7139 -0.1554
15556SOL     OW49621   0.280   0.950   0.643  0.3624 -0.5707  0.4325
15556SOL    HW149622   0.339   0.953   0.568 -0.5639  1.0144 -0.3011
15556SOL    HW249623   0.233   0.867   0.635  0.3328 -0.4564 -0.7281
15557SOL     OW49624   5.390   5.493   1.638  0.2516  0.5056  0.3729
15557SOL    HW149625   5.425   5.520   1.553 -0.2296 -0.5000 -0.1624
15557SOL    HW249626   5.457   5.518   1.701  1.2302  0.0340 -0.4589
15558SOL     OW49627   3.008   5.718   6.477  0.3568  0.1428 -0.1907
15558SOL    HW149628   2.976   5.799   6.515  3.5917  0.5320  2.1125
15558SOL    HW249629   3.039   5.743   6.390  2.6085  1.8629  0.9943
15559SOL     OW49630   7.497   2.989   4.508  0.2841  1.0099  0.1090
15559SOL    HW149631   7.479   2.957   4.420 -0.9416  1.5541  0.1303
15559SOL    HW249632   7.412   2.985   4.552  1.2051 -1.0611  1.8908
15560SOL     OW49633   4.642   3.780   5.636  0.2723 -0.1633 -0.4879
15560SOL    HW149634   4.731   3.751   5.657  1.0492  1.4522 -1.3316
15560SOL    HW249635   4.631   3.759   5.543  0.6021  1.4900 -0.9384
15561SOL     OW49636   6.112   5.132   5.066  0.1229 -0.3252 -0.1660
15561SOL    HW149637   6.117   5.070   4.994 -0.7286 -0.6644  0.0471
15561SOL    HW249638   6.024   5.118   5.103  0.0394  0.7781  0.0840
15562SOL     OW49639   6.183   3.734   0.286  0.6206 -0.5851  0.0921
15562SOL    HW149640   6.117   3.775   0.343  0.5455  0.3927 -0.6559
15562SOL    HW249641   6.262   3.729   0.339  0.2528 -0.6963  0.6317
15563SOL     OW49642   2.248   7.945   2.049 -0.1480  0.6315  0.0786
15563SOL    HW149643   2.314   7.876   2.051 -2.1587 -1.4614 -0.8310
15563SOL    HW249644   2.266   7.998   2.126  0.7126 -1.6940  1.5896
15564SOL     OW49645   6.373   1.149   3.278 -0.1549 -0.0812 -0.1283
15564SOL    HW149646   6.462   1.176   3.302 -0.3217  0.5057 -0.1467
15564SOL    HW249647   6.342   1.219   3.220 -1.1337  0.4312  0.9707
15565SOL     OW49648   1.077   1.168   7.369 -0.0083 -0.0033  0.5808
15565SOL    HW149649   1.068   1.160   7.274  0.3568 -2.0679  0.6656
15565SOL    HW249650   1.103   1.080   7.398  1.1272  0.8809  2.4526
15566SOL     OW49651   0.891   3.472   1.911 -0.0889 -0.3114 -0.1922
15566SOL    HW149652   0.834   3.399   1.887 -0.4301  0.0954 -0.6247
15566SOL    HW249653   0.834   3.532   1.959  0.1822 -0.3077  0.1279
15567SOL     OW49654   4.291   2.985   2.083 -0.2247  0.1570  0.0706
15567SOL    HW149655   4.264   2.984   1.991 -0.8515 -2.1906  0.2263
15567SOL    HW249656   4.373   2.935   2.084  0.5430  1.3794  0.6229
15568SOL     OW49657   4.071   5.263   4.781 -0.3207 -0.3921 -0.4917
15568SOL    HW149658   4.089   5.212   4.703  3.0616 -0.2098  0.0351
15568SOL    HW249659   4.086   5.354   4.755 -0.1037 -0.2414  0.1386
15569SOL     OW49660   3.925   1.330   5.577 -0.6559 -0.7377  0.1685
15569SOL    HW149661   3.961   1.263   5.518 -1.0621 -2.3184  1.6273
15569SOL    HW249662   3.859   1.375   5.523  0.0746 -1.0630 -1.0488
15570SOL     OW49663   4.082   4.061   4.675 -0.0886  0.4142 -0.2974
15570SOL    HW149664   4.015   4.058   4.606  0.8763 -0.9899 -1.2151
15570SOL    HW249665   4.119   4.149   4.668 -0.8056  0.6928 -0.7661
15571SOL     OW49666   4.892   7.262   6.000 -0.6781 -0.4290  0.1272
15571SOL    HW149667   4.932   7.295   5.919 -1.2010  0.4006  0.1979
15571SOL    HW249668   4.816   7.319   6.014 -0.6620 -0.6409  1.1443
15572SOL     OW49669   6.142   6.422   2.491  0.0267 -0.2942 -0.4470
15572SOL    HW149670   6.177   6.334   2.474 -0.9819 -1.2404  1.9192
15572SOL    HW249671   6.209   6.465   2.543 -0.2284 -0.3438 -0.0679
15573SOL     OW49672   2.034   1.193   5.088 -0.5102  0.4845 -0.3645
15573SOL    HW149673   2.025   1.147   5.005  0.6764  1.3850 -1.0222
15573SOL    HW249674   1.968   1.153   5.145 -0.3610 -1.1520 -1.2776
15574SOL     OW49675   2.014   2.213   3.786  0.4674  0.6032 -0.6250
15574SOL    HW149676   1.975   2.148   3.727  1.0202  0.3719 -0.7388
15574SOL    HW249677   1.949   2.282   3.792  1.3480  1.7744 -3.3762
15575SOL     OW49678   3.574   3.678   6.864 -0.4168  0.1095 -0.3059
15575SOL    HW149679   3.596   3.712   6.778  1.4785  1.0140  0.4642
15575SOL    HW249680   3.536   3.592   6.847  1.5183 -0.4971 -2.0055
15576SOL     OW49681   3.055   4.374   0.756 -0.6399 -0.1358 -0.0784
15576SOL    HW149682   3.087   4.465   0.758  2.5642 -1.1476  0.7043
15576SOL    HW249683   3.108   4.331   0.690 -0.4942 -1.9390  1.1320
15577SOL     OW49684   5.519   1.029   6.017 -0.7214  0.5802  0.3741
15577SOL    HW149685   5.563   1.097   6.068 -0.3241  2.6534 -2.4563
15577SOL    HW249686   5.512   1.067   5.929 -4.6347 -1.2703 -0.3112
15578SOL     OW49687   6.937   1.437   7.122 -0.0861 -0.0845 -0.2092
15578SOL    HW149688   6.842   1.451   7.115  0.0181  0.3936 -0.7722
15578SOL    HW249689   6.961   1.399   7.037  0.3801  0.7553 -0.4654
15579SOL     OW49690   1.135   0.509   7.770  0.2974 -0.6020 -0.1259
15579SOL    HW149691   1.043   0.527   7.752  0.4558  0.3440 -0.0802
15579SOL    HW249692   1.183   0.566   7.709  0.8401 -0.3737  0.4984
15580SOL     OW49693   5.514   2.123   2.996  0.3511 -0.0006 -0.0874
15580SOL    HW149694   5.516   2.073   2.914 -0.5085 -0.6706  0.2877
15580SOL    HW249695   5.564   2.069   3.058 -0.2251 -0.2112  0.2064
15581SOL     OW49696   4.437   0.277   2.919 -0.3417 -0.4135 -0.3194
15581SOL    HW149697   4.401   0.359   2.953  1.5485  0.3687 -0.0711
15581SOL    HW249698   4.433   0.217   2.993 -1.0410 -0.3133 -0.2744
15582SOL     OW49699   7.436   0.634   2.355 -0.2497  0.0073 -0.2505
15582SOL    HW149700   7.376   0.568   2.323 -1.1739  0.7824 -0.1564
15582SOL    HW249701   7.450   0.611   2.447 -2.4642  1.2492  0.4735
15583SOL     OW49702   2.762   0.830   3.969  0.3781  0.1804  0.3445
15583SOL    HW149703   2.833   0.893   3.979 -0.0209  1.0850 -1.8899
15583SOL    HW249704   2.760   0.782   4.052  1.0439  2.7438  1.9404
15584SOL     OW49705   2.422   0.761   7.948  0.0258 -0.2240  0.4493
15584SOL    HW149706   2.338   0.717   7.959 -0.0883 -0.0025  0.4688
15584SOL    HW249707   2.432   0.773   7.854  1.4646 -3.0240  0.1492
15585SOL     OW49708   2.296   6.825   1.032  0.1852  0.1352 -0.4071
15585SOL    HW149709   2.354   6.898   1.013  0.4665 -0.2847 -1.1978
15585SOL    HW249710   2.208   6.862   1.029  0.3714  0.6237  0.0927
15586SOL     OW49711   0.398   1.049   2.834  0.2941 -0.0414  0.2798
15586SOL    HW149712   0.363   0.974   2.786  0.7307 -0.1492  0.1290
15586SOL    HW249713   0.478   1.072   2.788 -1.0515  2.0609 -1.2121
15587SOL     OW49714   7.921   2.664   1.104  0.3250  0.3810 -0.7644
15587SOL    HW149715   7.936   2.615   1.022 -2.8616 -0.0436 -1.2215
15587SOL    HW249716   7.857   2.731   1.080 -0.7285  0.2085  1.3896
15588SOL     OW49717   1.732   6.931   3.110 -0.1539 -0.0265 -0.0018
15588SOL    HW149718   1.751   7.014   3.153  0.1175  1.3462 -2.5654
15588SOL    HW249719   1.811   6.879   3.124  1.3351  1.6530 -1.5638
15589SOL     OW49720   4.858   3.857   5.178 -0.1886 -1.0661  0.3924
15589SOL    HW149721   4.818   3.876   5.093  0.7020 -0.1498  0.1519
15589SOL    HW249722   4.889   3.767   5.170  0.9118 -0.6238 -0.6904
15590SOL     OW49723   3.346   2.379   0.664  1.0772 -0.0683  0.1721
15590SOL    HW149724   3.321   2.372   0.572  0.0045 -2.2498  0.5798
15590SOL    HW249725   3.413   2.312   0.676  0.2125 -0.7816  1.2652
15591SOL     OW49726   0.220   3.699   6.750 -0.6238 -0.2456  0.2999
15591SOL    HW149727   0.204   3.770   6.813  1.2770 -0.0358  0.6288
15591SOL    HW249728   0.176   3.727   6.670  0.3196  1.4850  0.3404
15592SOL     OW49729   5.653   6.606   7.088 -0.6854 -0.0764 -0.7328
15592SOL    HW149730   5.749   6.599   7.094 -0.2367  1.6896 -3.5113
15592SOL    HW249731   5.633   6.577   6.999 -3.1239 -2.6795  0.5369
15593SOL     OW49732   3.540   0.030   1.865  0.1349  0.1004 -0.0463
15593SOL    HW149733   3.456   0.052   1.904  1.3987  1.4239  2.2053
15593SOL    HW249734   3.563   0.106   1.811 -0.3532 -0.5139 -1.1385
15594SOL     OW49735   7.267   5.690   6.403  0.1427 -0.6530  0.3742
15594SOL    HW149736   7.216   5.739   6.339 -0.3092 -0.7950  0.6136
15594SOL    HW249737   7.347   5.741   6.415  0.0143 -0.3748  0.0568
15595SOL     OW49738   4.798   3.648   3.179  0.0174 -0.4267 -0.1800
15595SOL    HW149739   4.705   3.672   3.177 -0.2728 -1.5853 -1.2421
15595SOL    HW249740   4.842   3.719   3.132 -0.2672  0.3198  0.6541
15596SOL     OW49741   6.251   4.133   2.111  0.1156  0.4496  0.0062
15596SOL    HW149742   6.296   4.217   2.101  0.1991  0.4404  0.2918
15596SOL    HW249743   6.277   4.102   2.198 -1.0944  0.8198  0.5126
15597SOL     OW49744   3.610   5.881   0.140  0.9510  0.6381 -0.0461
15597SOL    HW149745   3.561   5.869   0.222  0.1133  3.3885 -0.0092
15597SOL    HW249746   3.702   5.870   0.164  0.5810 -2.3422  0.3772
15598SOL     OW49747   7.645   2.908   7.636  0.1362 -0.1311  0.2966
15598SOL    HW149748   7.608   2.967   7.702  1.2340  0.2257  0.6025
15598SOL    HW249749   7.656   2.825   7.682  0.4205 -0.0284  0.4107
15599SOL     OW49750   4.665   1.211   4.041 -0.2345  0.1450  0.2225
15599SOL    HW149751   4.723   1.285   4.026  0.7835 -0.8886 -1.1392
15599SOL    HW249752   4.716   1.134   4.015 -1.9222 -0.8631 -0.2811
15600SOL     OW49753   6.972   6.259   4.228 -0.5610 -0.0287  0.5283
15600SOL    HW149754   6.912   6.251   4.301  0.9938 -0.1389  1.8619
15600SOL    HW249755   7.000   6.170   4.208  0.0847  0.1126  0.7560
15601SOL     OW49756   8.066   7.505   5.190 -0.2889 -0.3770 -0.2629
15601SOL    HW149757   8.075   7.599   5.201 -0.1291 -0.3565 -0.5710
15601SOL    HW249758   8.144   7.478   5.142 -0.2567 -0.6910 -0.0445
15602SOL     OW49759   5.457   0.998   5.134  0.7698 -0.2698 -0.3889
15602SOL    HW149760   5.503   1.029   5.212  1.1553 -0.7738 -0.4075
15602SOL    HW249761   5.513   0.928   5.099  0.7566  0.1515 -1.2941
15603SOL     OW49762   3.075   1.962   0.292 -0.5338 -0.0206 -0.0748
15603SOL    HW149763   3.005   1.897   0.286 -2.7260  2.2642 -0.7428
15603SOL    HW249764   3.147   1.924   0.240 -1.3941 -2.2364  0.2453
15604SOL     OW49765   0.160   8.047   7.252  0.2338 -0.2449  0.0618
15604SOL    HW149766   0.181   8.043   7.158  0.5645 -2.6763  0.1904
15604SOL    HW249767   0.179   7.959   7.285 -1.0516  0.2095  2.1835
15605SOL     OW49768   3.972   7.184   4.858 -0.5075  0.2685  0.1549
15605SOL    HW149769   3.894   7.234   4.834  0.6691  1.8922 -0.4495
15605SOL    HW249770   3.982   7.199   4.952  0.0787  1.6092 -0.0925
15606SOL     OW49771   6.799   4.837   7.388  0.1793 -0.1817 -0.2296
15606SOL    HW149772   6.728   4.797   7.437 -2.4277  1.4269 -2.4031
15606SOL    HW249773   6.849   4.887   7.453 -1.4080 -0.4013  1.2130
15607SOL     OW49774   5.252   0.494   6.472 -0.2045 -0.1885  0.8890
15607SOL    HW149775   5.311   0.442   6.417 -0.8181  0.5865 -0.5506
15607SOL    HW249776   5.307   0.525   6.543  0.8933 -0.2785  0.1056
15608SOL     OW49777   3.197   5.710   2.263 -0.3326 -0.0356 -0.7264
15608SOL    HW149778   3.285   5.679   2.283 -0.2835  0.3094 -0.4163
15608SOL    HW249779   3.170   5.657   2.187 -0.1922 -0.7436 -0.2887
15609SOL     OW49780   6.154   1.625   5.021 -0.0339  0.2578 -0.5445
15609SOL    HW149781   6.205   1.558   5.066 -2.0137 -0.7491  0.3122
15609SOL    HW249782   6.087   1.651   5.085  0.7127  3.1767 -0.7904
15610SOL     OW49783   5.571   2.039   7.463 -0.2370 -0.0972 -0.3740
15610SOL    HW149784   5.646   2.059   7.407 -0.3113 -0.4750 -0.6115
15610SOL    HW249785   5.508   1.996   7.405 -0.3763 -0.3582 -0.0345
15611SOL     OW49786   5.953   4.476   8.046 -0.2814 -0.4049  0.4852
15611SOL    HW149787   5.945   4.525   8.127  0.4986  0.4027  0.0884
15611SOL    HW249788   6.029   4.418   8.060  0.6495  0.6275 -0.0848
15612SOL     OW49789   5.778   2.277   1.597 -0.4652  0.0622 -0.3489
15612SOL    HW149790   5.869   2.306   1.590 -0.6836  0.6624 -0.8210
15612SOL    HW249791   5.738   2.338   1.658  0.2681 -2.3225  2.8049
15613SOL     OW49792   0.623   6.576   4.227 -0.4125 -0.1071 -0.1088
15613SOL    HW149793   0.548   6.517   4.235  1.1424 -2.0969  0.4168
15613SOL    HW249794   0.637   6.608   4.316 -0.3907 -0.0405 -0.1364
15614SOL     OW49795   1.580   8.053   4.937  0.0941  0.6378  0.2123
15614SOL    HW149796   1.531   7.972   4.946 -0.2222  0.8378  0.3344
15614SOL    HW249797   1.573   8.076   4.845  0.1031  0.5776  0.1966
15615SOL     OW49798   4.395   4.376   4.897  0.1735 -0.3924  0.3522
15615SOL    HW149799   4.445   4.415   4.826 -1.8086 -1.2759 -1.6485
15615SOL    HW249800   4.314   4.427   4.901 -0.3522 -1.2400  1.0194
15616SOL     OW49801   1.595   1.223   4.480  0.7593  0.3565  0.0500
15616SOL    HW149802   1.504   1.252   4.481  0.5568 -0.2294  1.0814
15616SOL    HW249803   1.639   1.281   4.419 -0.4247  0.2808 -0.9002
15617SOL     OW49804   5.823   0.140   5.751  0.1674 -0.2470 -0.3428
15617SOL    HW149805   5.744   0.115   5.704 -0.2776  0.9317 -0.2538
15617SOL    HW249806   5.889   0.152   5.684  0.2232 -1.0513 -0.4355
15618SOL     OW49807   7.356   7.463   3.816 -0.1475 -0.1347  0.8972
15618SOL    HW149808   7.266   7.484   3.841 -0.9317 -0.0252 -1.6707
15618SOL    HW249809   7.390   7.544   3.778  1.2870 -0.0074  2.3567
15619SOL     OW49810   1.848   4.289   1.120 -0.3289  0.0066 -0.3849
15619SOL    HW149811   1.891   4.298   1.034  0.4545  2.0143  0.1584
15619SOL    HW249812   1.896   4.217   1.162  1.6133  1.2354 -0.3580
15620SOL     OW49813   5.359   2.748   1.653  0.3239 -0.2127 -0.1466
15620SOL    HW149814   5.396   2.695   1.583  0.3278 -1.2482  0.6037
15620SOL    HW249815   5.346   2.686   1.725  2.7185  1.2551  1.6821
15621SOL     OW49816   4.723   5.294   3.112 -0.0817  0.5188 -0.1059
15621SOL    HW149817   4.674   5.287   3.194 -0.9575  3.1183 -0.3029
15621SOL    HW249818   4.813   5.311   3.138  0.0327 -0.6418  0.2851
15622SOL     OW49819   4.432   7.420   2.002  0.3843  0.1066 -0.1577
15622SOL    HW149820   4.362   7.425   1.937  0.7852 -1.6791 -0.7824
15622SOL    HW249821   4.386   7.407   2.085 -0.0531 -0.1211 -0.4324
15623SOL     OW49822   6.813   4.940   3.851 -0.0062 -0.1673 -0.1330
15623SOL    HW149823   6.850   4.932   3.940  0.5595 -0.1246 -0.3597
15623SOL    HW249824   6.720   4.918   3.862 -0.1735  0.8424  0.6513
15624SOL     OW49825   6.479   2.179   1.525  0.6128  0.6256  0.2250
15624SOL    HW149826   6.476   2.089   1.557  0.8018  0.2382 -0.8083
15624SOL    HW249827   6.430   2.177   1.442  1.6712  1.1958 -0.4310
15625SOL     OW49828   6.978   2.302   4.053 -0.0351 -0.0633 -0.7929
15625SOL    HW149829   7.011   2.213   4.058 -1.1443 -0.5295 -1.5637
15625SOL    HW249830   6.922   2.303   3.976 -1.4122  0.8393  0.1747
15626SOL     OW49831   7.315   1.210   0.532  0.4869 -0.0838  0.2003
15626SOL    HW149832   7.283   1.125   0.504 -2.3271  0.9070  0.0607
15626SOL    HW249833   7.347   1.251   0.452  0.7516 -0.5643  0.0573
15627SOL     OW49834   1.654   3.387   8.061 -0.4506 -0.0257 -0.1928
15627SOL    HW149835   1.728   3.402   8.119 -0.2669 -0.3008 -0.3531
15627SOL    HW249836   1.636   3.473   8.022  0.6477 -0.2200 -1.1738
15628SOL     OW49837   0.556   1.430   8.021  0.2872 -0.0573  0.6289
15628SOL    HW149838   0.604   1.415   8.102  0.5232  0.2067  0.5430
15628SOL    HW249839   0.624   1.428   7.953 -0.0719 -1.5286  0.2881
15629SOL     OW49840   2.598   6.647   5.573  0.3908 -0.3362  0.0789
15629SOL    HW149841   2.631   6.565   5.608 -0.4668 -1.4242 -1.5763
15629SOL    HW249842   2.672   6.685   5.526  1.1373  0.4625  1.8166
15630SOL     OW49843   0.033   2.241   0.013 -0.1065  0.4574  0.1030
15630SOL    HW149844  -0.012   2.166  -0.025 -0.8675  1.0420 -0.1768
15630SOL    HW249845  -0.038   2.297   0.047  0.4433  1.0729  0.2557
15631SOL     OW49846   1.357   2.061   1.588  0.0003 -0.6342 -0.9160
15631SOL    HW149847   1.386   2.145   1.553 -0.6931 -0.3252 -0.7484
15631SOL    HW249848   1.262   2.060   1.574  0.0800 -1.6741 -1.5317
15632SOL     OW49849   4.130   3.014   1.445 -0.8630  0.2280 -0.0571
15632SOL    HW149850   4.191   3.012   1.371 -0.9654 -0.7526 -0.1350
15632SOL    HW249851   4.158   3.089   1.497  0.9807 -0.6844  0.3576
15633SOL     OW49852   1.843   5.095   7.956  0.0724  1.0076 -0.1563
15633SOL    HW149853   1.872   5.077   7.866 -0.0048  1.3260 -0.2484
15633SOL    HW249854   1.749   5.079   7.955  0.2264  0.0145  0.1328
15634SOL     OW49855   6.757   2.105   3.742 -0.5948  0.4136 -0.7382
15634SOL    HW149856   6.709   2.102   3.824  0.0059 -1.2158 -0.4165
15634SOL    HW249857   6.789   2.195   3.736 -0.7868  0.6008  0.7322
15635SOL     OW49858   3.825   3.441   5.698  0.5648  0.4824  0.1384
15635SOL    HW149859   3.859   3.352   5.707  0.2006  0.4210  1.0118
15635SOL    HW249860   3.738   3.438   5.739 -0.2241  0.8073 -1.4268
15636SOL     OW49861   4.973   1.943   5.545  0.1729  0.2143  0.0646
15636SOL    HW149862   5.064   1.946   5.514  0.2548 -0.5857  0.2182
15636SOL    HW249863   4.924   1.993   5.480  0.3194 -1.5414 -1.4759
15637SOL     OW49864   4.416   5.030   3.072  0.5830  0.2127 -0.2341
15637SOL    HW149865   4.447   5.040   2.982 -0.8690 -3.3801 -1.2841
15637SOL    HW249866   4.495   5.039   3.125  2.1968 -1.2672 -2.2090
15638SOL     OW49867   2.673   1.901   5.398  0.4524 -0.0918  0.0312
15638SOL    HW149868   2.610   1.830   5.412  0.0506  0.5138  1.4533
15638SOL    HW249869   2.749   1.858   5.359 -0.1196 -1.1520  0.0497
15639SOL     OW49870   4.900   5.991   2.237 -0.0220  0.1719  0.7611
15639SOL    HW149871   4.869   6.077   2.209 -0.4721 -0.3040 -0.2821
15639SOL    HW249872   4.827   5.954   2.287  0.1468  0.3684  1.1542
15640SOL     OW49873   1.508   2.796   4.016  0.3272 -0.1273  0.6768
15640SOL    HW149874   1.479   2.875   4.061  1.8396 -0.4938  2.4428
15640SOL    HW249875   1.558   2.827   3.941 -2.0520  0.5098 -0.7174
15641SOL     OW49876   2.247   6.216   5.801 -0.1081  0.1711  0.0141
15641SOL    HW149877   2.206   6.296   5.834 -0.5895  0.8170 -1.9561
15641SOL    HW249878   2.310   6.247   5.735  1.6619 -0.9579  1.0988
15642SOL     OW49879   5.354   0.910   4.047 -0.6982 -0.1466 -0.0145
15642SOL    HW149880   5.427   0.896   4.107 -1.2258 -0.2608  0.6181
15642SOL    HW249881   5.372   0.851   3.973 -0.7879 -1.1366  0.7239
15643SOL     OW49882   4.929   7.457   3.932  0.2826  0.1288  0.2791
15643SOL    HW149883   4.888   7.380   3.970 -1.6266  1.0382  0.1495
15643SOL    HW249884   4.902   7.457   3.841 -1.3621  1.9079  0.6864
15644SOL     OW49885   4.450   6.077   4.004  0.7694  0.2194 -0.7650
15644SOL    HW149886   4.386   6.098   3.937  0.1448 -1.2488 -0.6654
15644SOL    HW249887   4.516   6.024   3.959  0.3527 -0.7675 -0.2586
15645SOL     OW49888   2.772   5.561   6.465 -0.3757  0.1032  0.3286
15645SOL    HW149889   2.849   5.616   6.451 -0.6770  0.4719  0.0970
15645SOL    HW249890   2.779   5.532   6.555 -1.5298  2.6330  1.3281
15646SOL     OW49891   5.088   1.236   3.980 -0.2250 -0.0652  0.2519
15646SOL    HW149892   5.159   1.244   3.917  1.1381  0.5800  1.7779
15646SOL    HW249893   5.070   1.327   4.007 -1.1389 -0.2853  0.4035
15647SOL     OW49894   2.640   1.064   7.154 -0.1147 -0.0373 -0.3899
15647SOL    HW149895   2.600   1.039   7.237  0.8918 -0.6266 -0.0631
15647SOL    HW249896   2.718   1.114   7.179 -0.0581  0.1827 -0.9859
15648SOL     OW49897   0.989   5.519   2.960  0.7975  0.4732  0.5650
15648SOL    HW149898   0.962   5.536   3.050 -0.0978  0.6099  0.2809
15648SOL    HW249899   0.942   5.438   2.936  0.7575  0.6266  0.1161
15649SOL     OW49900   0.993   0.439   1.601  0.3987  0.3124  0.5060
15649SOL    HW149901   1.042   0.467   1.523 -0.8868  1.9844  0.2276
15649SOL    HW249902   1.033   0.487   1.673  0.7532 -0.2411  0.6844
15650SOL     OW49903   6.017   3.028   1.113 -0.8808 -0.2182  0.0995
15650SOL    HW149904   6.018   3.115   1.152  0.0237 -0.7228  1.2527
15650SOL    HW249905   5.936   2.988   1.146 -1.1637  0.0860 -0.2202
15651SOL     OW49906   3.054   7.144   8.038  0.6471  1.1938 -0.0192
15651SOL    HW149907   2.995   7.216   8.014 -0.2494  1.0165  1.5188
15651SOL    HW249908   3.090   7.171   8.123  0.8053  0.1355  0.2612
15652SOL     OW49909   6.042   3.704   3.959  0.0622 -0.0221 -0.1631
15652SOL    HW149910   6.056   3.799   3.950 -0.9938  0.2153  0.4488
15652SOL    HW249911   5.971   3.684   3.899 -0.1207 -0.3118  0.1439
15653SOL     OW49912   5.175   4.347   3.508 -0.3791  0.1106 -0.5661
15653SOL    HW149913   5.135   4.429   3.537 -2.5038 -0.4390 -1.7032
15653SOL    HW249914   5.235   4.373   3.438 -1.8924  0.6548 -1.7179
15654SOL     OW49915   1.737   2.896   6.299  0.3301  0.4819  0.1200
15654SOL    HW149916   1.814   2.947   6.324  0.9346 -0.3036 -0.0977
15654SOL    HW249917   1.729   2.909   6.204  0.4534  0.2199  0.0724
15655SOL     OW49918   7.755   6.788   1.073 -0.3913 -0.0145  0.0512
15655SOL    HW149919   7.807   6.709   1.091  0.5946  0.6247  0.0639
15655SOL    HW249920   7.692   6.791   1.145  0.7235  0.1633  1.0480
15656SOL     OW49921   1.033   3.264   4.520  0.2700  0.1024 -0.5430
15656SOL    HW149922   0.979   3.342   4.512 -2.6371 -1.5289  1.5566
15656SOL    HW249923   1.098   3.286   4.587 -1.8946  0.1502  1.6758
15657SOL     OW49924   7.583   4.540   6.812 -0.0319 -0.0378 -0.1394
15657SOL    HW149925   7.644   4.469   6.832  0.8707  0.8035  0.1354
15657SOL    HW249926   7.520   4.501   6.751 -0.1051 -1.3301  0.7340
15658SOL     OW49927   2.497   7.884   0.452  0.4313  0.2820 -0.2568
15658SOL    HW149928   2.426   7.908   0.510  0.7918 -1.3659  0.9554
15658SOL    HW249929   2.456   7.834   0.382  0.0312  2.0515 -1.3516
15659SOL     OW49930   5.851   6.606   7.717 -0.6943 -0.3350  0.0736
15659SOL    HW149931   5.867   6.700   7.706  0.4109 -0.4009  0.9167
15659SOL    HW249932   5.761   6.601   7.749 -0.0958  0.6000  2.0268
15660SOL     OW49933   2.289   1.151   7.379  0.0567 -0.0588 -0.2487
15660SOL    HW149934   2.221   1.134   7.314 -0.6428  0.2994  0.3713
15660SOL    HW249935   2.344   1.073   7.377 -1.7758 -1.4602  0.9467
15661SOL     OW49936   4.901   6.399   0.954  0.4632 -0.3097 -0.2198
15661SOL    HW149937   4.991   6.376   0.978 -0.1337 -1.9775  0.6173
15661SOL    HW249938   4.857   6.416   1.038 -0.1359 -0.0749 -0.5756
15662SOL     OW49939   7.286   2.153   2.716  0.5466 -0.1456 -0.4565
15662SOL    HW149940   7.195   2.124   2.720  0.3339  0.4091 -1.0800
15662SOL    HW249941   7.326   2.119   2.796 -0.6465  1.1191  0.7211
15663SOL     OW49942   3.029   3.040   2.016 -0.2129 -0.4209  0.8113
15663SOL    HW149943   2.939   3.007   2.018 -0.1340 -0.6965  0.0503
15663SOL    HW249944   3.083   2.964   2.034 -0.1253 -0.2761  1.1613
15664SOL     OW49945   7.034   4.056   1.633  0.2834  0.0338  0.3067
15664SOL    HW149946   6.940   4.055   1.612  0.1630  1.4414  0.7026
15664SOL    HW249947   7.071   3.988   1.577 -0.9474 -0.4705  0.0537
15665SOL     OW49948   1.537   4.764   4.395  0.2072  0.1303  1.1101
15665SOL    HW149949   1.632   4.764   4.382  0.0447 -1.9647 -0.5377
15665SOL    HW249950   1.522   4.835   4.458  2.7244  1.2741  0.5574
15666SOL     OW49951   5.704   3.927   0.081  0.2159 -0.4745 -0.5610
15666SOL    HW149952   5.643   3.909   0.153  1.1788 -0.0276  0.3881
15666SOL    HW249953   5.748   4.008   0.107 -0.5532  0.5991 -2.4267
15667SOL     OW49954   2.712   4.634   4.974  0.0657 -0.1541 -0.0455
15667SOL    HW149955   2.773   4.562   4.958 -1.6678 -1.5925 -0.4798
15667SOL    HW249956   2.706   4.641   5.069  2.0221  1.0412  0.0401
15668SOL     OW49957   4.403   4.293   2.530 -0.1125 -0.4404  0.1274
15668SOL    HW149958   4.415   4.206   2.569 -1.3293 -1.4993 -1.7133
15668SOL    HW249959   4.315   4.319   2.556  0.3635  0.4270  0.9418
15669SOL     OW49960   6.444   2.900   7.405  0.1040 -0.0543 -0.1886
15669SOL    HW149961   6.496   2.941   7.474 -0.0648 -0.1547  0.0019
15669SOL    HW249962   6.389   2.836   7.451 -1.2783  1.1026 -0.1643
15670SOL     OW49963   2.309   3.281   4.252 -0.3628  0.4597  0.3957
15670SOL    HW149964   2.402   3.294   4.234 -0.7461  0.4146 -1.8859
15670SOL    HW249965   2.307   3.209   4.315  1.1465  0.6249  0.6705
15671SOL     OW49966   2.892   7.235   1.055 -0.2602  0.3073  0.2270
15671SOL    HW149967   2.922   7.179   0.983  0.1134  0.9565 -0.1244
15671SOL    HW249968   2.919   7.188   1.134  0.3726  0.1563 -0.0688
15672SOL     OW49969   6.967   7.571   1.926  0.2122  0.5760 -0.0732
15672SOL    HW149970   6.941   7.660   1.948  0.0059  0.7545 -1.0041
15672SOL    HW249971   6.956   7.522   2.007 -1.4711  0.9882 -0.0219
15673SOL     OW49972   2.672   6.253   3.842  0.4151 -0.2455  0.1928
15673SOL    HW149973   2.606   6.246   3.911 -0.9643  1.5575 -0.8278
15673SOL    HW249974   2.624   6.232   3.762  1.3534  0.0495 -0.4566
15674SOL     OW49975   6.205   5.246   6.106  0.4047 -0.0571 -0.1946
15674SOL    HW149976   6.295   5.279   6.098  0.5440 -0.0824  1.0162
15674SOL    HW249977   6.210   5.157   6.073  0.8312 -0.0523 -0.1550
15675SOL     OW49978   7.955   7.490   1.698 -0.0268  0.1395 -0.0983
15675SOL    HW149979   8.023   7.517   1.760  0.4287 -0.0685 -0.5094
15675SOL    HW249980   7.964   7.550   1.624 -1.3289  1.1515  0.5118
15676SOL     OW49981   3.743   2.387   3.549  0.3283  0.5410  0.3950
15676SOL    HW149982   3.799   2.334   3.605 -1.1176 -0.1234  1.2798
15676SOL    HW249983   3.724   2.465   3.601 -0.0459  0.4808  0.3507
15677SOL     OW49984   7.842   3.386   7.026  0.0745 -0.4133  0.1793
15677SOL    HW149985   7.799   3.461   6.984  1.5519  1.1804  1.3268
15677SOL    HW249986   7.900   3.351   6.958  1.1289  1.0132  0.3039
15678SOL     OW49987   7.160   1.082   5.673 -0.4686 -0.0831  0.7063
15678SOL    HW149988   7.148   1.139   5.597 -1.8362 -0.1265  0.8594
15678SOL    HW249989   7.228   1.020   5.646 -0.4953  0.2908 -0.2557
15679SOL     OW49990   6.080   6.526   1.236  0.0908  0.5713 -0.0327
15679SOL    HW149991   5.985   6.527   1.247  0.0835  1.4804 -0.0831
15679SOL    HW249992   6.104   6.434   1.240 -0.8079  0.3260 -0.1371
15680SOL     OW49993   4.198   7.764   3.949 -0.1415  0.1054  0.7024
15680SOL    HW149994   4.196   7.672   3.976 -2.0058  0.3928  1.7276
15680SOL    HW249995   4.276   7.800   3.992  0.5931 -0.9582  0.3190
15681SOL     OW49996   0.000   7.409   5.689  0.0781  0.0632 -0.3437
15681SOL    HW149997  -0.010   7.387   5.596 -2.3982 -0.2472 -0.0659
15681SOL    HW249998   0.050   7.337   5.726  2.3168  0.8505 -1.6373
15682SOL     OW49999   3.618   1.059   5.015  0.2508  0.5993  0.5640
15682SOL    HW150000   3.694   1.103   4.976  0.3909 -0.9058 -0.9889
15682SOL    HW250001   3.556   1.051   4.943  0.3586 -1.9590  0.6594
15683SOL     OW50002   7.721   0.289   1.069 -0.7992 -0.1904 -0.1266
15683SOL    HW150003   7.650   0.353   1.071 -0.9076 -0.2154 -1.6229
15683SOL    HW250004   7.709   0.243   0.986  1.7090  0.6962 -1.1011
15684SOL     OW50005   7.030   2.359   2.534  0.4478  0.5614 -0.4496
15684SOL    HW150006   6.947   2.407   2.529  1.1824  1.9587  0.0572
15684SOL    HW250007   7.005   2.269   2.553 -0.9336  1.0694  0.2643
15685SOL     OW50008   1.470   0.105   7.057 -0.0596 -0.3651  0.3835
15685SOL    HW150009   1.560   0.082   7.081 -0.2296 -1.0079  0.4298
15685SOL    HW250010   1.462   0.198   7.078  1.1025  0.1262 -1.1524
15686SOL     OW50011   2.516   0.618   0.834 -0.2060  0.4370 -0.0989
15686SOL    HW150012   2.488   0.676   0.763 -2.3438 -0.6845 -0.2349
15686SOL    HW250013   2.444   0.620   0.896 -0.2292 -1.8416  0.0216
15687SOL     OW50014   5.077   0.849   7.187 -0.1221  0.0228 -0.3954
15687SOL    HW150015   5.172   0.862   7.177 -0.3598  1.4720 -1.0312
15687SOL    HW250016   5.044   0.936   7.210 -1.2080 -0.6429  0.6867
15688SOL     OW50017   7.534   2.541   0.742 -0.5012 -0.0335  0.5232
15688SOL    HW150018   7.626   2.530   0.720 -0.1512 -0.4112  2.0265
15688SOL    HW250019   7.524   2.635   0.760 -0.9702  0.4143 -1.8555
15689SOL     OW50020   3.606   5.925   1.276 -0.2104 -0.4857 -0.1587
15689SOL    HW150021   3.614   5.958   1.365 -1.5257 -0.2180 -0.1202
15689SOL    HW250022   3.634   5.834   1.281 -0.9701 -0.6899  0.6856
15690SOL     OW50023   6.877   0.823   6.934 -0.1832  0.1360  0.7879
15690SOL    HW150024   6.842   0.845   7.020 -0.1218 -0.9180  1.0840
15690SOL    HW250025   6.815   0.865   6.873 -0.4384  0.5675  1.3321
15691SOL     OW50026   0.600   0.026   2.555  0.8625 -0.6270  0.0033
15691SOL    HW150027   0.517  -0.022   2.558  0.2081  0.0731 -3.0643
15691SOL    HW250028   0.664  -0.039   2.525  0.8056 -0.5146 -0.3673
15692SOL     OW50029   5.084   7.678   0.650  0.0489 -0.4107  0.1042
15692SOL    HW150030   5.008   7.636   0.692 -0.7101 -0.2125 -1.0275
15692SOL    HW250031   5.094   7.631   0.567  0.1624  0.6209 -0.4725
15693SOL     OW50032   4.105   6.808   5.900 -0.2734  0.3119  0.0358
15693SOL    HW150033   4.051   6.748   5.849  1.7085  0.2831 -2.1992
15693SOL    HW250034   4.159   6.752   5.955  1.1499  0.0008 -1.6106
15694SOL     OW50035   7.487   6.742   2.157  0.0630  0.0360 -0.0020
15694SOL    HW150036   7.475   6.805   2.228  1.5407 -0.9071  1.1464
15694SOL    HW250037   7.530   6.792   2.087  1.7974  0.2410  1.1312
15695SOL     OW50038   5.344   7.210   5.022 -0.0616 -0.0177 -0.3896
15695SOL    HW150039   5.304   7.145   5.079  2.5074 -0.0316  1.5813
15695SOL    HW250040   5.305   7.293   5.047  0.9926 -0.0343  1.4429
15696SOL     OW50041   5.160   7.959   7.594 -0.3704 -0.5075 -0.9791
15696SOL    HW150042   5.069   7.986   7.599 -0.5850 -1.2894 -0.3999
15696SOL    HW250043   5.208   8.024   7.646 -0.9683 -1.5614  1.0182
15697SOL     OW50044   2.741   6.723   2.679 -0.0697  0.2389  0.2443
15697SOL    HW150045   2.714   6.741   2.589  0.4713  1.1985  0.2660
15697SOL    HW250046   2.831   6.754   2.684  0.5046 -1.3938  0.6388
15698SOL     OW50047   3.112   2.931   7.936  0.1162  0.3512 -0.4057
15698SOL    HW150048   3.142   2.889   8.016  0.1189  2.5746  0.8607
15698SOL    HW250049   3.017   2.937   7.946 -0.0004 -0.2767 -1.0640
15699SOL     OW50050   8.067   1.509   7.098 -0.1861 -0.1487 -0.3194
15699SOL    HW150051   8.068   1.580   7.033 -3.0100  1.6706  1.3760
15699SOL    HW250052   8.009   1.443   7.061 -0.5318  0.1654 -0.3452
15700SOL     OW50053   3.465   6.853   3.445  0.2377 -0.2543 -0.1155
15700SOL    HW150054   3.507   6.793   3.383  2.0670  0.8169  0.0009
15700SOL    HW250055   3.416   6.914   3.390  0.0818 -0.5953 -0.3587
15701SOL     OW50056   6.524   7.664   6.132 -0.0020 -0.1214 -0.6917
15701SOL    HW150057   6.450   7.649   6.072 -0.0286  0.3391 -0.7769
15701SOL    HW250058   6.579   7.587   6.122 -0.6476 -0.6306 -0.3761
15702SOL     OW50059   8.109   7.585   6.115  0.2592  0.5696  0.6738
15702SOL    HW150060   8.151   7.657   6.068 -0.4541  0.8652  0.4801
15702SOL    HW250061   8.054   7.628   6.180 -0.6323  0.2208  0.1665
15703SOL     OW50062   4.047   0.063   7.744 -0.2999 -0.0905  0.1477
15703SOL    HW150063   4.112   0.044   7.676 -1.9234  0.1717 -1.5544
15703SOL    HW250064   4.028  -0.021   7.784 -1.3684 -0.7991 -1.7005
15704SOL     OW50065   7.999   7.845   0.841  0.3549 -0.1047 -0.5384
15704SOL    HW150066   7.998   7.811   0.751 -0.4458  0.4831 -0.7610
15704SOL    HW250067   7.940   7.920   0.839  1.5021  0.8465  0.1274
15705SOL     OW50068   6.386   6.578   0.899 -0.1583  0.0378 -0.1433
15705SOL    HW150069   6.297   6.543   0.911  0.1777 -0.5646  0.7214
15705SOL    HW250070   6.394   6.646   0.966  0.1667 -0.1984  0.0637
15706SOL     OW50071   2.531   7.632   7.135 -0.6089  0.4483 -0.1517
15706SOL    HW150072   2.619   7.594   7.138 -0.3083  1.1853  0.7457
15706SOL    HW250073   2.477   7.569   7.182 -0.0811  1.1537  1.4798
15707SOL     OW50074   3.248   7.445   7.592 -0.5162 -0.1215  0.3157
15707SOL    HW150075   3.213   7.393   7.519  1.8226 -1.7519  0.2425
15707SOL    HW250076   3.269   7.380   7.659 -0.6203  1.1400  1.6061
15708SOL     OW50077   7.321   0.313   3.534 -0.1132 -0.0076  0.0181
15708SOL    HW150078   7.413   0.303   3.556  0.0294 -0.9623 -0.9778
15708SOL    HW250079   7.321   0.340   3.442 -0.7809  1.6829  0.4737
15709SOL     OW50080   3.466   0.486   5.702 -0.5317  0.4823 -0.1491
15709SOL    HW150081   3.449   0.392   5.707  1.0296  0.2152  1.4218
15709SOL    HW250082   3.383   0.527   5.723 -0.5272 -0.6334  2.3877
15710SOL     OW50083   0.350   4.579   4.039  0.0817  0.3411  0.3331
15710SOL    HW150084   0.261   4.576   4.073  0.0862 -0.6572  0.2747
15710SOL    HW250085   0.384   4.491   4.053  0.8986  0.5852 -0.0735
15711SOL     OW50086   7.458   7.283   5.027 -0.1859 -0.4517 -0.5538
15711SOL    HW150087   7.473   7.206   5.081 -1.2264  0.2950  0.8614
15711SOL    HW250088   7.537   7.336   5.037 -0.7294  0.1134  1.0438
15712SOL     OW50089   5.214   2.738   6.249 -0.1180 -0.0431  0.4821
15712SOL    HW150090   5.237   2.671   6.184  1.7855  1.8209 -0.9093
15712SOL    HW250091   5.209   2.690   6.331  1.0372 -1.9305 -0.4726
15713SOL     OW50092   7.101   5.543   4.508  0.5380 -0.0850 -0.2105
15713SOL    HW150093   7.194   5.534   4.529  1.0819  1.3318 -1.7758
15713SOL    HW250094   7.056   5.520   4.589  2.1754 -2.1088  0.1937
15714SOL     OW50095   6.802   2.283   6.482  0.2511 -0.1729  0.2818
15714SOL    HW150096   6.866   2.294   6.412  1.4499 -1.1058  1.1849
15714SOL    HW250097   6.763   2.197   6.466  0.6305 -0.4524  0.8258
15715SOL     OW50098   0.381   5.248   7.795  0.2374  0.1922 -0.0441
15715SOL    HW150099   0.296   5.283   7.768  0.0573 -1.1044 -1.2416
15715SOL    HW250100   0.438   5.326   7.799 -0.2230  0.7325 -2.3411
15716SOL     OW50101   6.889   6.793   0.815 -0.1608 -0.0533 -0.1262
15716SOL    HW150102   6.824   6.781   0.884  0.1116 -0.9577 -0.0108
15716SOL    HW250103   6.967   6.748   0.847  1.0077  2.2263  0.3583
15717SOL     OW50104   6.530   6.892   3.402  0.5679 -0.5871 -0.2666
15717SOL    HW150105   6.535   6.803   3.367 -1.9878 -1.7887  2.0515
15717SOL    HW250106   6.518   6.880   3.496 -1.2714  2.1589 -0.0381
15718SOL     OW50107   0.037   2.753   5.626  0.2249 -0.1062  0.0019
15718SOL    HW150108  -0.045   2.704   5.624 -0.6781  1.3394 -1.1901
15718SOL    HW250109   0.077   2.737   5.540  2.6699 -3.0165  1.5017
15719SOL     OW50110   1.407   1.596   3.698  0.3114  0.0212 -0.5595
15719SOL    HW150111   1.395   1.626   3.788  1.7852 -0.2246 -0.2606
15719SOL    HW250112   1.484   1.539   3.702 -0.4039 -1.0739 -1.7399
15720SOL     OW50113   7.554   1.222   5.401 -0.8949 -0.3207 -0.3526
15720SOL    HW150114   7.511   1.144   5.367 -1.1599  0.2813 -1.4117
15720SOL    HW250115   7.527   1.226   5.493 -0.3737 -1.8143 -0.0979
15721SOL     OW50116   6.402   1.248   1.652  0.1217  0.5518 -0.0248
15721SOL    HW150117   6.470   1.188   1.682 -0.1602  0.2174 -0.0427
15721SOL    HW250118   6.449   1.324   1.620  0.4365  1.0591  1.5407
15722SOL     OW50119   2.611   2.046   2.779  0.0901 -0.2102 -0.1496
15722SOL    HW150120   2.653   2.089   2.853 -1.3454 -0.5971  0.9435
15722SOL    HW250121   2.525   2.021   2.812  0.7513 -3.7837 -0.7599
15723SOL     OW50122   8.130   0.148   6.090 -0.0901  0.4157 -0.4016
15723SOL    HW150123   8.101   0.220   6.146 -1.6424  1.5057 -2.4573
15723SOL    HW250124   8.123   0.182   6.001 -1.0563 -2.3065 -1.4847
15724SOL     OW50125   3.782   2.896   2.763 -0.4349  0.3108 -0.3283
15724SOL    HW150126   3.746   2.983   2.746 -0.1068  0.7328  1.0571
15724SOL    HW250127   3.809   2.898   2.855  1.7840 -0.4716 -0.9098
15725SOL     OW50128   4.200   7.498   5.061  0.0230  0.1760 -0.1905
15725SOL    HW150129   4.267   7.548   5.108 -0.0060  1.4087 -1.3796
15725SOL    HW250130   4.157   7.445   5.128  0.3799  1.4049  1.0599
15726SOL     OW50131   4.290   4.683   3.416 -0.0996 -0.6747 -0.4479
15726SOL    HW150132   4.227   4.711   3.483 -0.0581  1.9234 -1.3885
15726SOL    HW250133   4.361   4.643   3.466 -1.1151 -0.9077  0.8666
15727SOL     OW50134   4.666   8.047   1.919  0.3163  0.1636  0.4148
15727SOL    HW150135   4.639   8.139   1.910 -0.3314 -0.0724 -0.1915
15727SOL    HW250136   4.749   8.051   1.965  0.5097  1.0888  0.0211
15728SOL     OW50137   3.812   1.188   1.761 -0.0830  0.6011 -0.0294
15728SOL    HW150138   3.764   1.252   1.814  1.7880  1.7661  0.3737
15728SOL    HW250139   3.817   1.110   1.817 -0.6691  0.7929  0.3008
15729SOL     OW50140   7.564   2.214   0.940  0.0237  0.0298 -0.4134
15729SOL    HW150141   7.545   2.125   0.969 -0.5831  0.4366  0.4868
15729SOL    HW250142   7.659   2.217   0.931  0.2636 -0.1568  1.5168
15730SOL     OW50143   6.491   1.798   0.499  0.4564 -0.2294 -0.1579
15730SOL    HW150144   6.562   1.849   0.537 -1.3804  1.9755  0.5875
15730SOL    HW250145   6.477   1.836   0.412 -1.2939  1.0824  0.6172
15731SOL     OW50146   2.810   4.170   5.871 -0.4858 -0.5229 -0.3686
15731SOL    HW150147   2.794   4.160   5.964 -0.1616  0.1249 -0.2396
15731SOL    HW250148   2.903   4.189   5.864 -0.5999 -0.0858 -0.7804
15732SOL     OW50149   8.006   6.973   2.828  0.5757 -0.4901 -0.3476
15732SOL    HW150150   7.992   7.008   2.740  0.1017 -1.6204 -0.7382
15732SOL    HW250151   8.059   6.894   2.814  2.4489  0.5271  0.5884
15733SOL     OW50152   0.713   6.258   2.421 -0.3307 -0.1089  0.0036
15733SOL    HW150153   0.754   6.214   2.346 -0.3774  0.7301 -0.5353
15733SOL    HW250154   0.784   6.270   2.483  0.1285  0.7762 -0.6640
15734SOL     OW50155   3.906   0.376   7.080  0.5878  0.5184  0.5642
15734SOL    HW150156   3.849   0.390   7.155  1.6078  3.4502  0.9101
15734SOL    HW250157   3.846   0.367   7.006 -0.3689 -0.2316  1.3975
15735SOL     OW50158   1.834   0.047   5.076  0.1437  0.2199  0.0439
15735SOL    HW150159   1.743   0.020   5.085  0.2274  0.2134  0.9626
15735SOL    HW250160   1.835   0.140   5.099  0.4887  0.0310  0.8298
15736SOL     OW50161   0.088   0.177   5.275 -0.6982 -0.0166  0.1016
15736SOL    HW150162   0.110   0.262   5.312  1.7333 -0.7124  0.4232
15736SOL    HW250163   0.108   0.185   5.182 -0.4427 -0.2343  0.1360
15737SOL     OW50164   3.547   0.293   1.718 -0.2404  0.2279  0.4421
15737SOL    HW150165   3.580   0.375   1.755 -1.0319  0.0262  1.6588
15737SOL    HW250166   3.452   0.300   1.726 -0.3350 -0.6541  0.2140
15738SOL     OW50167   3.252   2.728   4.964 -0.4926  0.0141  0.4057
15738SOL    HW150168   3.287   2.725   4.875 -1.5163 -2.6240 -0.0079
15738SOL    HW250169   3.312   2.785   5.012 -1.0499  3.2813 -2.3804
15739SOL     OW50170   7.808   0.199   7.859 -0.7380 -0.0498  0.5929
15739SOL    HW150171   7.786   0.260   7.789  0.0667  0.9375  1.1810
15739SOL    HW250172   7.879   0.146   7.824 -0.9157 -0.1408  0.3641
15740SOL     OW50173   7.065   2.747   4.800 -0.0166 -0.0398  0.0516
15740SOL    HW150174   6.999   2.785   4.858 -1.6310 -1.0815 -1.0288
15740SOL    HW250175   7.056   2.653   4.812  1.0185 -0.2053 -0.3973
15741SOL     OW50176   2.025   5.240   7.357  0.1290  0.1302  0.5858
15741SOL    HW150177   2.076   5.258   7.435 -1.4259  3.3007  1.0284
15741SOL    HW250178   1.974   5.161   7.378  0.0433  0.6940  2.6426
15742SOL     OW50179   2.867   8.043   7.703  0.2812  0.9034  0.7948
15742SOL    HW150180   2.854   8.055   7.609 -0.0577  1.5176  0.9108
15742SOL    HW250181   2.962   8.036   7.714  0.2498 -0.7008  0.2474
15743SOL     OW50182   3.519   0.285   5.984 -0.6925  0.0052  0.2908
15743SOL    HW150183   3.598   0.280   5.930  0.2243  0.5051  1.5611
15743SOL    HW250184   3.493   0.194   5.998 -1.0753 -0.1360 -1.1423
15744SOL     OW50185   0.273   0.157   2.265 -0.2105  0.0455 -0.5777
15744SOL    HW150186   0.272   0.214   2.188 -0.2030  0.0564 -0.5698
15744SOL    HW250187   0.358   0.175   2.306 -1.8625  3.3085  1.8623
15745SOL     OW50188   0.097   5.678   0.360  0.1295  0.1591 -0.3062
15745SOL    HW150189   0.141   5.595   0.341 -0.6752 -0.8689  1.9243
15745SOL    HW250190   0.168   5.738   0.385  0.4886 -1.6377  3.7981
15746SOL     OW50191   2.662   6.941   7.098 -0.4587 -0.6396  0.0267
15746SOL    HW150192   2.645   7.007   7.164  0.6598  0.0133 -0.3111
15746SOL    HW250193   2.677   6.990   7.018 -0.4924 -1.3484 -0.4204
15747SOL     OW50194   5.090   7.654   5.568 -0.0355  0.3712  0.7972
15747SOL    HW150195   5.025   7.630   5.502 -0.4857 -0.6400  1.5899
15747SOL    HW250196   5.099   7.749   5.558 -0.0618  0.2392 -0.7337
15748SOL     OW50197   2.305   7.573   5.256  0.1086  0.4518 -0.2331
15748SOL    HW150198   2.284   7.486   5.289  0.4618  0.4589  0.0100
15748SOL    HW250199   2.254   7.632   5.313 -2.0255  0.3158 -1.8776
15749SOL     OW50200   1.538   4.388   6.220 -0.6839 -0.3310 -0.3028
15749SOL    HW150201   1.574   4.304   6.248 -2.3927 -1.2876 -0.8876
15749SOL    HW250202   1.509   4.430   6.300  2.1053  0.7257  0.2736
15750SOL     OW50203   0.489   7.925   0.503 -0.1006  0.5006  0.4028
15750SOL    HW150204   0.484   7.941   0.597 -0.8018  0.5711  0.3578
15750SOL    HW250205   0.505   8.012   0.465  2.5201  0.1884  0.5936
15751SOL     OW50206   7.976   4.417   4.415  0.1132 -0.0246 -0.0788
15751SOL    HW150207   7.930   4.370   4.484  1.8560 -0.2731  0.9664
15751SOL    HW250208   7.930   4.500   4.407  0.7675  0.6729  2.5159
15752SOL     OW50209   3.528   2.966   7.669  0.4288 -0.4536  1.4932
15752SOL    HW150210   3.597   3.033   7.671 -0.6679  1.0305 -1.8715
15752SOL    HW250211   3.459   3.002   7.725  0.1334  0.9977  0.2783
15753SOL     OW50212   3.966   1.989   0.516  0.2433 -0.4021  0.0597
15753SOL    HW150213   3.957   2.033   0.431  0.2286  0.9987  0.7584
15753SOL    HW250214   3.956   1.896   0.496 -2.9592  0.0686 -1.0558
15754SOL     OW50215   6.091   4.169   6.734  0.5039 -0.3928  0.3730
15754SOL    HW150216   6.007   4.205   6.763  1.1742  0.9036  0.8044
15754SOL    HW250217   6.145   4.168   6.814  1.5348  0.7264 -0.2758
15755SOL     OW50218   1.161   2.748   6.983 -0.2143 -0.1843 -0.3791
15755SOL    HW150219   1.096   2.679   6.996  0.2902 -0.4115  1.0695
15755SOL    HW250220   1.125   2.824   7.029  0.6550 -0.3962  0.6849
15756SOL     OW50221   7.782   0.969   4.940 -0.3252  0.0774  0.5251
15756SOL    HW150222   7.762   0.985   5.032 -3.0073 -1.6047  0.3749
15756SOL    HW250223   7.745   1.044   4.894  0.2856  0.5225  0.7575
15757SOL     OW50224   6.076   6.912   2.083 -0.6546  0.5612 -0.1364
15757SOL    HW150225   6.035   6.829   2.063  0.3862 -0.3608  1.3229
15757SOL    HW250226   6.084   6.913   2.179  1.3628  1.2991 -0.2427
15758SOL     OW50227   1.034   5.939   3.135  0.1133 -0.0183 -0.3862
15758SOL    HW150228   1.089   5.926   3.212 -1.1346 -1.6160  0.2822
15758SOL    HW250229   1.078   5.889   3.066 -0.1460 -0.7778 -0.0153
15759SOL     OW50230   6.212   3.904   2.467 -0.1444 -0.3100  0.2152
15759SOL    HW150231   6.249   3.991   2.483 -2.6770  0.5203  2.4447
15759SOL    HW250232   6.117   3.919   2.465 -0.6527 -3.0038  0.4160
15760SOL     OW50233   0.077   3.332   4.101  0.3200  0.1703 -0.5394
15760SOL    HW150234  -0.015   3.326   4.124  0.3274  1.0377 -0.2385
15760SOL    HW250235   0.077   3.365   4.011  0.3232 -1.3404 -1.1189
15761SOL     OW50236   0.153   1.839   5.145  0.5322  0.0246  0.2886
15761SOL    HW150237   0.129   1.779   5.074 -0.2627 -0.0777  0.6421
15761SOL    HW250238   0.244   1.816   5.164  0.9791  0.4816 -1.1230
15762SOL     OW50239   3.725   2.449   1.239  0.1762  0.1029 -0.4010
15762SOL    HW150240   3.765   2.369   1.273  0.6142 -0.3551 -1.9381
15762SOL    HW250241   3.640   2.454   1.283  0.7697 -0.3792  0.8366
15763SOL     OW50242   1.085   1.535   0.553 -0.0444  0.1539 -0.7448
15763SOL    HW150243   1.021   1.587   0.503  0.5400 -0.5879 -2.3530
15763SOL    HW250244   1.160   1.528   0.494  1.1445  0.1864  0.7276
15764SOL     OW50245   5.133   3.119   3.878 -0.7112  0.4345  0.7952
15764SOL    HW150246   5.081   3.070   3.815 -0.3805  0.4852  0.4836
15764SOL    HW250247   5.069   3.150   3.943 -1.0935  0.6486  0.3239
15765SOL     OW50248   5.545   6.858   3.330 -0.3128  0.3518 -0.0200
15765SOL    HW150249   5.628   6.848   3.376 -0.2614 -1.7731 -0.4937
15765SOL    HW250250   5.479   6.838   3.395 -0.4485  1.5573  0.2262
15766SOL     OW50251   3.875   3.872   4.393  0.1080  0.3831 -0.2120
15766SOL    HW150252   3.809   3.868   4.324  0.8234 -1.7491 -0.8358
15766SOL    HW250253   3.949   3.919   4.353 -0.0352  0.4723 -0.3725
15767SOL     OW50254   1.444   0.917   6.072 -0.4917 -0.6314 -0.1599
15767SOL    HW150255   1.386   0.988   6.102  1.0452  0.7902 -0.3883
15767SOL    HW250256   1.532   0.948   6.095  0.3443 -1.7488 -1.7181
15768SOL     OW50257   0.391   2.474   2.001 -0.3944  0.2898  0.1518
15768SOL    HW150258   0.450   2.401   2.021 -0.5553 -1.2672 -4.1495
15768SOL    HW250259   0.448   2.551   2.001  0.8176 -0.5723 -0.0647
15769SOL     OW50260   5.775   3.701   5.808  0.0582 -0.2228  0.1962
15769SOL    HW150261   5.783   3.775   5.748  1.9772 -0.4938  0.0689
15769SOL    HW250262   5.814   3.732   5.889  2.7925 -1.6930 -0.4646
15770SOL     OW50263   7.301   0.394   4.949 -0.2824  0.5858  0.1018
15770SOL    HW150264   7.299   0.490   4.955  0.2105  0.5418  1.1400
15770SOL    HW250265   7.385   0.375   4.907 -0.8132  0.6297 -1.0248
15771SOL     OW50266   0.083   1.907   0.637 -0.2543  0.4126  0.3254
15771SOL    HW150267   0.130   1.897   0.554  0.0151 -0.0420  0.5326
15771SOL    HW250268  -0.009   1.904   0.613 -0.1984 -1.2166  0.2016
15772SOL     OW50269   8.068   2.333   7.673  0.2251 -0.2758 -0.0326
15772SOL    HW150270   8.097   2.259   7.619 -0.8888 -0.8906  0.1920
15772SOL    HW250271   8.025   2.293   7.748  1.1568  0.5908  0.9969
15773SOL     OW50272   5.630   6.905   1.222  0.0196  0.1501  0.0554
15773SOL    HW150273   5.574   6.983   1.228  0.3306  0.2803  1.7272
15773SOL    HW250274   5.568   6.833   1.216 -0.3336  0.3914  0.6344
15774SOL     OW50275   0.352   6.752   1.520  0.1205 -0.3561  0.2556
15774SOL    HW150276   0.332   6.831   1.470 -0.1878 -0.5472  0.0819
15774SOL    HW250277   0.326   6.680   1.464 -0.0211 -0.5752  0.5972
15775SOL     OW50278   3.797   0.336   4.280  0.5121  0.5891 -0.5213
15775SOL    HW150279   3.771   0.353   4.371 -0.3301  0.9871 -0.8266
15775SOL    HW250280   3.892   0.324   4.284  0.4371  0.2499  0.4603
15776SOL     OW50281   0.057   4.521   6.589  0.5485  0.1090 -0.3306
15776SOL    HW150282   0.124   4.458   6.616 -0.4718 -0.9309 -0.1509
15776SOL    HW250283   0.001   4.472   6.529 -1.1124  0.3947  0.9352
15777SOL     OW50284   7.636   5.616   7.688  0.2137  0.2059  0.4335
15777SOL    HW150285   7.729   5.631   7.706 -0.0922  0.2321  2.1697
15777SOL    HW250286   7.623   5.523   7.708  0.7937 -1.1806 -4.3384
15778SOL     OW50287   2.372   5.724   0.916  0.4899 -0.5604 -0.3106
15778SOL    HW150288   2.367   5.705   0.823 -0.9945  1.9647 -0.8449
15778SOL    HW250289   2.300   5.786   0.932  0.3474 -1.2942  2.6227
15779SOL     OW50290   5.322   4.267   5.758 -0.3815  0.1361 -0.1710
15779SOL    HW150291   5.245   4.321   5.742  0.0885  0.4017 -1.6527
15779SOL    HW250292   5.392   4.311   5.710  0.2717 -1.1585 -0.4390
15780SOL     OW50293   6.059   4.696   1.382  0.2005  0.1921 -0.3044
15780SOL    HW150294   6.081   4.619   1.434  0.9439 -0.3001 -1.3042
15780SOL    HW250295   6.112   4.766   1.420  2.2313 -0.5732 -1.5047
15781SOL     OW50296   3.582   5.808   2.771  0.2601 -0.0477 -0.3953
15781SOL    HW150297   3.526   5.880   2.799  0.9194  0.1239  0.5276
15781SOL    HW250298   3.623   5.777   2.852  2.5362  0.7064 -1.1817
15782SOL     OW50299   4.218   5.396   1.918  0.0390  0.3252  0.6136
15782SOL    HW150300   4.166   5.318   1.939  0.1838  0.7111  2.6320
15782SOL    HW250301   4.308   5.370   1.935  0.0666  0.9821  1.5382
15783SOL     OW50302   0.144   7.385   3.645 -0.0233 -0.6635  0.2157
15783SOL    HW150303   0.127   7.346   3.731 -1.3198 -0.0339  0.2655
15783SOL    HW250304   0.131   7.478   3.658  0.5346 -0.4748 -0.4982
15784SOL     OW50305   1.600   7.384   5.959 -0.2751  0.2573 -0.2615
15784SOL    HW150306   1.631   7.356   6.045  1.9181  0.8509 -0.7852
15784SOL    HW250307   1.569   7.473   5.973  0.0646  0.3493 -0.0669
15785SOL     OW50308   4.000   6.128   1.867 -0.1056 -0.3675  0.3022
15785SOL    HW150309   3.952   6.098   1.944  1.0810 -2.0928  0.4439
15785SOL    HW250310   3.999   6.052   1.808 -1.0790  0.9475 -1.4550
15786SOL     OW50311   5.605   0.659   3.084 -0.0311  0.3400  0.5609
15786SOL    HW150312   5.590   0.652   2.990 -0.3490 -1.8889  0.7319
15786SOL    HW250313   5.521   0.636   3.124  0.9996 -2.4165  1.3856
15787SOL     OW50314   4.823   2.126   5.366  0.2572 -0.0354  0.6018
15787SOL    HW150315   4.741   2.129   5.415 -0.6960  0.1460 -0.9168
15787SOL    HW250316   4.796   2.115   5.275  1.9708 -1.0513  0.1655
15788SOL     OW50317   6.214   2.975   2.245 -0.0296  0.2027  0.5133
15788SOL    HW150318   6.145   3.031   2.211  1.0764  1.7029  0.6228
15788SOL    HW250319   6.251   2.932   2.168 -1.3418 -0.9754  0.5024
15789SOL     OW50320   2.451   5.848   5.761 -0.1313  0.0720  0.0626
15789SOL    HW150321   2.472   5.834   5.668 -1.0549  1.3851 -0.3703
15789SOL    HW250322   2.376   5.791   5.777 -0.0837 -0.0247 -0.0576
15790SOL     OW50323   3.785   2.964   5.098  0.0387  0.0201  0.3006
15790SOL    HW150324   3.727   2.982   5.171 -0.3292 -0.3288  0.0947
15790SOL    HW250325   3.816   2.875   5.113 -1.5424 -0.7970 -0.9651
15791SOL     OW50326   1.291   0.710   0.582  0.4169 -0.1793 -0.2521
15791SOL    HW150327   1.235   0.753   0.517  0.0944 -0.0655  0.0975
15791SOL    HW250328   1.233   0.649   0.627  0.7772 -0.6851 -0.4613
15792SOL     OW50329   3.849   6.643   5.112  0.5673  0.1342 -0.0674
15792SOL    HW150330   3.854   6.737   5.130 -0.3327  0.3054 -0.6619
15792SOL    HW250331   3.860   6.602   5.198  3.4207  0.6583 -0.0979
15793SOL     OW50332   6.182   0.405   3.535  0.2884 -0.3322 -0.1742
15793SOL    HW150333   6.159   0.498   3.536 -0.7255 -0.5407 -1.1753
15793SOL    HW250334   6.113   0.364   3.587 -0.6434 -0.7554 -1.6615
15794SOL     OW50335   6.298   5.852   5.949 -0.5515 -0.0818  0.2449
15794SOL    HW150336   6.371   5.849   5.888  1.2616 -0.7349  2.3336
15794SOL    HW250337   6.235   5.911   5.908  0.0579 -1.3382 -2.7379
15795SOL     OW50338   1.569   7.280   2.723  0.3606  0.4358  0.5039
15795SOL    HW150339   1.597   7.370   2.740 -1.2270  1.0357  0.1177
15795SOL    HW250340   1.570   7.273   2.627 -2.0137  0.9392  0.3799
15796SOL     OW50341   0.994   1.353   6.196  0.0689  0.0923  0.0659
15796SOL    HW150342   1.089   1.343   6.188  0.0565  0.6282 -1.0093
15796SOL    HW250343   0.981   1.386   6.285  0.9158  0.2513  0.1413
15797SOL     OW50344   7.505   7.464   1.748 -0.0638  0.4301  0.2123
15797SOL    HW150345   7.416   7.446   1.717  0.2931  0.4678 -0.8634
15797SOL    HW250346   7.531   7.545   1.704 -0.0494  1.2793  1.7139
15798SOL     OW50347   1.416   7.713   4.083  0.0032  0.1363  0.4277
15798SOL    HW150348   1.439   7.805   4.069  0.3001  0.5433  3.1487
15798SOL    HW250349   1.464   7.688   4.161 -1.4659 -1.8193  0.7749
15799SOL     OW50350   0.918   7.531   7.688  0.5916  0.7899 -0.5112
15799SOL    HW150351   0.833   7.516   7.646  0.3642 -0.7912  0.4074
15799SOL    HW250352   0.899   7.594   7.758 -0.3309 -1.1138  1.0470
15800SOL     OW50353   5.317   6.733   6.933  0.5501  0.1750 -0.0201
15800SOL    HW150354   5.311   6.809   6.875  1.1947  2.2390  2.4165
15800SOL    HW250355   5.389   6.681   6.898  0.1815  0.7242 -1.6868
15801SOL     OW50356   7.274   4.135   1.756  0.1601  0.1495 -0.3657
15801SOL    HW150357   7.186   4.122   1.720 -0.2194 -0.8980  0.8758
15801SOL    HW250358   7.265   4.208   1.817  0.7272  1.6908 -2.0497
15802SOL     OW50359   2.081   7.996   5.271  0.5460 -0.3428 -0.3223
15802SOL    HW150360   2.007   7.970   5.326  1.1492 -0.9888  0.2112
15802SOL    HW250361   2.043   8.014   5.185 -0.6508  2.1006  0.6314
15803SOL     OW50362   4.632   7.450   1.471  0.0117  0.5199  0.1712
15803SOL    HW150363   4.605   7.368   1.431  0.4304 -0.3391  1.5708
15803SOL    HW250364   4.551   7.498   1.487 -0.3788 -0.3806  0.9215
15804SOL     OW50365   7.344   3.359   7.994  0.3566  0.5991 -0.6482
15804SOL    HW150366   7.347   3.316   8.079 -2.2144  0.8276 -0.3586
15804SOL    HW250367   7.290   3.301   7.940  0.5325  1.2946 -1.5940
15805SOL     OW50368   3.034   2.853   6.419 -0.0359  0.4934  0.9157
15805SOL    HW150369   2.998   2.765   6.405  2.5280 -0.7079  1.1322
15805SOL    HW250370   2.967   2.899   6.468 -2.2672 -0.6871 -0.8504
15806SOL     OW50371   2.534   1.857   0.194  0.5763 -0.2665  0.3520
15806SOL    HW150372   2.594   1.786   0.217  1.1289 -1.5010 -3.9541
15806SOL    HW250373   2.591   1.933   0.181  0.7886 -0.5754 -0.5654
15807SOL     OW50374   0.045   5.476   3.942 -0.7199 -0.5227  0.3690
15807SOL    HW150375   0.060   5.382   3.945  0.5794 -0.3529 -0.0183
15807SOL    HW250376   0.117   5.513   3.994 -1.2015  0.2583  0.4944
15808SOL     OW50377   1.208   5.588   6.023  0.3721 -0.0172 -0.2988
15808SOL    HW150378   1.202   5.531   5.947 -1.4411  2.0967 -1.8620
15808SOL    HW250379   1.280   5.648   6.003  1.5252 -0.9442  0.8366
15809SOL     OW50380   1.850   5.986   6.511  0.7091 -0.0496 -0.0124
15809SOL    HW150381   1.853   6.013   6.419 -0.5434  0.6099  0.1281
15809SOL    HW250382   1.791   5.911   6.512  2.3198 -1.3697 -0.0321
15810SOL     OW50383   4.413   4.358   5.742  0.2786 -0.2311 -0.2653
15810SOL    HW150384   4.474   4.387   5.674 -0.1335  0.8305 -0.2041
15810SOL    HW250385   4.334   4.332   5.695 -0.2946  1.2474 -0.1781
15811SOL     OW50386   3.940   8.058   6.358 -0.3236 -0.0681  0.0696
15811SOL    HW150387   3.981   7.972   6.360 -2.8446 -1.4240 -1.7568
15811SOL    HW250388   3.891   8.064   6.440  0.4427 -0.0331  0.5323
15812SOL     OW50389   1.239   6.872   7.172 -0.2108 -0.5723  0.1016
15812SOL    HW150390   1.186   6.842   7.245  0.4801 -1.6752  0.1680
15812SOL    HW250391   1.267   6.792   7.127  0.6490  0.0159 -0.4603
15813SOL     OW50392   3.913   8.106   5.405 -0.0391  0.0095  0.1695
15813SOL    HW150393   3.889   8.017   5.431 -0.2210 -0.0548 -0.2048
15813SOL    HW250394   3.928   8.152   5.487  1.5176 -0.7601  0.3506
15814SOL     OW50395   0.471   2.231   1.549  0.0963  0.1717  0.0476
15814SOL    HW150396   0.422   2.255   1.628 -2.6377  0.0671 -1.5058
15814SOL    HW250397   0.510   2.314   1.520 -0.0692  0.4972  0.7257
15815SOL     OW50398   7.025   3.785   2.088  0.2589 -0.0884 -0.1306
15815SOL    HW150399   7.036   3.835   2.007 -1.5475  0.8031  0.1170
15815SOL    HW250400   6.991   3.700   2.060  0.0166  0.0759 -0.3350
15816SOL     OW50401   8.036   1.643   0.778 -0.2761 -0.4543 -0.1151
15816SOL    HW150402   8.124   1.608   0.766 -0.7490 -1.9042  0.4351
15816SOL    HW250403   8.041   1.733   0.743  1.5714 -0.2671  0.5227
15817SOL     OW50404   1.177   2.586   4.811 -0.2096  0.3733 -0.1619
15817SOL    HW150405   1.094   2.539   4.815 -0.3278  0.5749 -0.2068
15817SOL    HW250406   1.240   2.522   4.776 -0.2445  0.0851  0.2962
15818SOL     OW50407   6.953   0.330   3.147  0.3294 -0.0604 -0.0114
15818SOL    HW150408   7.048   0.339   3.153  0.4104  0.7854 -1.8505
15818SOL    HW250409   6.939   0.244   3.107  0.2884 -0.3157  0.5376
15819SOL     OW50410   0.870   0.699   5.881 -0.4739 -0.2473  0.3726
15819SOL    HW150411   0.846   0.759   5.952  0.9656  0.4772  0.2721
15819SOL    HW250412   0.857   0.612   5.919 -2.3394  0.0923  0.6015
15820SOL     OW50413   1.003   4.856   7.497 -0.4599 -0.6703  0.1146
15820SOL    HW150414   1.071   4.807   7.543 -0.3365 -0.7128 -0.1132
15820SOL    HW250415   0.927   4.798   7.498 -0.6545 -0.4185  0.8175
15821SOL     OW50416   6.550   7.420   2.719 -0.0553  0.1059 -0.3295
15821SOL    HW150417   6.642   7.436   2.743 -0.4690  2.5347 -0.0762
15821SOL    HW250418   6.532   7.332   2.751  2.1803 -0.4289 -0.3865
15822SOL     OW50419   2.055   3.534   7.929  0.3452 -0.3842 -0.0453
15822SOL    HW150420   2.060   3.534   8.024 -0.6209 -1.1763  0.0145
15822SOL    HW250421   2.045   3.442   7.905 -1.0405 -0.0599 -0.8077
15823SOL     OW50422   6.195   7.150   0.729 -0.3595 -0.3142  0.5582
15823SOL    HW150423   6.163   7.081   0.787  0.7604 -0.9710  0.4185
15823SOL    HW250424   6.194   7.229   0.784 -1.9016 -0.3576  0.6424
15824SOL     OW50425   0.337   1.274   4.149  0.1150  0.0132 -0.3361
15824SOL    HW150426   0.385   1.202   4.109 -0.3666 -0.0510 -0.8029
15824SOL    HW250427   0.352   1.348   4.091  0.7504  0.3432  0.2329
15825SOL     OW50428   3.350   7.412   2.120  0.7702  0.4769 -0.8056
15825SOL    HW150429   3.314   7.432   2.206 -1.5881 -0.6149 -1.4536
15825SOL    HW250430   3.344   7.495   2.072 -1.9045  0.1673 -1.1641
15826SOL     OW50431   7.954   2.597   5.591  0.1895 -0.3191 -0.2244
15826SOL    HW150432   7.867   2.617   5.627  0.4075 -0.9314  0.6789
15826SOL    HW250433   7.958   2.501   5.590  0.9895 -0.2957  0.0632
15827SOL     OW50434   3.840   3.059   4.858 -0.3860  0.1705  0.0955
15827SOL    HW150435   3.819   3.009   4.937 -3.4216 -0.3197 -0.9066
15827SOL    HW250436   3.871   3.144   4.891  0.8830 -0.9015  1.7901
15828SOL     OW50437   0.733   5.693   3.570 -0.6017  0.6253  0.3993
15828SOL    HW150438   0.819   5.731   3.591 -0.0580 -1.3984  2.3322
15828SOL    HW250439   0.751   5.599   3.562 -2.3148  0.4118 -1.3336
15829SOL     OW50440   4.188   6.828   0.924 -0.1370  0.0229 -0.6252
15829SOL    HW150441   4.188   6.913   0.879  0.2496  1.4922  1.9647
15829SOL    HW250442   4.102   6.822   0.964  0.2489 -0.2485  0.1822
15830SOL     OW50443   0.999   7.809   0.144  0.7700  0.1535  0.1935
15830SOL    HW150444   0.946   7.878   0.185 -0.5507 -0.5299 -0.3146
15830SOL    HW250445   1.082   7.812   0.191 -0.7776 -0.8694  3.2440
15831SOL     OW50446   3.664   3.095   7.991  0.1358  0.1518  0.0412
15831SOL    HW150447   3.620   3.172   8.026  0.5754  0.8615 -0.9244
15831SOL    HW250448   3.675   3.114   7.898  0.8551 -0.7878 -0.0765
15832SOL     OW50449   2.833   2.002   1.671  0.0923 -0.1600 -0.2177
15832SOL    HW150450   2.817   2.088   1.712 -0.4530 -0.7819  0.9324
15832SOL    HW250451   2.926   2.004   1.647  0.0646  0.7868 -0.2973
15833SOL     OW50452   1.082   1.889   4.085  0.0662 -0.4907  0.0212
15833SOL    HW150453   1.134   1.947   4.140 -0.6504  0.6305 -0.4556
15833SOL    HW250454   1.070   1.810   4.138 -1.0755  0.7624  1.7447
15834SOL     OW50455   3.788   1.580   2.399 -0.9196 -0.0476 -0.2290
15834SOL    HW150456   3.786   1.502   2.344  0.1928  1.6423 -2.8718
15834SOL    HW250457   3.755   1.650   2.343  1.5014  2.0472  0.7525
15835SOL     OW50458   1.681   0.745   4.137  0.8402  0.4407  0.5823
15835SOL    HW150459   1.696   0.723   4.229 -1.3894 -0.7498  0.7211
15835SOL    HW250460   1.665   0.840   4.137 -0.4160  0.2468  1.6300
15836SOL     OW50461   4.971   0.341   7.634  0.3898  0.5000  0.3330
15836SOL    HW150462   4.901   0.381   7.583  0.3703 -1.7982 -1.5942
15836SOL    HW250463   4.936   0.336   7.723 -0.8195  1.7577 -0.0380
15837SOL     OW50464   2.558   3.928   2.547  0.7278  0.0195 -0.6885
15837SOL    HW150465   2.585   4.017   2.522  0.4815  0.5090  0.7158
15837SOL    HW250466   2.517   3.939   2.632 -0.6223 -1.2580 -1.1519
15838SOL     OW50467   0.948   4.390   6.767 -0.1550 -0.2717 -0.2920
15838SOL    HW150468   0.900   4.312   6.742  1.4884 -1.1115 -0.9948
15838SOL    HW250469   0.980   4.372   6.855  0.2930 -0.4532 -0.4853
15839SOL     OW50470   7.153   4.797   7.298  0.8867  0.3290  0.0557
15839SOL    HW150471   7.069   4.817   7.340  1.6867  0.7165  1.5208
15839SOL    HW250472   7.197   4.881   7.289  1.1680  0.1176 -0.6315
15840SOL     OW50473   0.660   8.125   6.121 -0.0549 -0.6852  0.0324
15840SOL    HW150474   0.573   8.126   6.161  0.7760 -0.8877  1.9136
15840SOL    HW250475   0.712   8.069   6.177  0.5541 -3.2534 -2.8273
15841SOL     OW50476   7.322   2.692   2.626 -0.1783  0.0750 -0.3373
15841SOL    HW150477   7.292   2.602   2.631 -0.3324  0.1833  1.0676
15841SOL    HW250478   7.359   2.700   2.538 -2.8526 -0.4908 -1.6238
15842SOL     OW50479   5.800   3.641   6.947  0.1495  0.2151  0.2327
15842SOL    HW150480   5.829   3.668   6.861  1.2585  0.1365  0.5600
15842SOL    HW250481   5.796   3.545   6.942  0.6044  0.1853  0.3753
15843SOL     OW50482   1.652   3.684   3.787  0.4847 -0.0536 -0.0478
15843SOL    HW150483   1.628   3.625   3.714 -2.2596 -0.6113  1.1498
15843SOL    HW250484   1.607   3.646   3.863 -0.5178  2.9699  1.0090
15844SOL     OW50485   3.879   0.820   5.100 -0.0488 -0.5846 -0.0160
15844SOL    HW150486   3.916   0.828   5.188  0.8003 -0.1645 -0.3985
15844SOL    HW250487   3.940   0.868   5.043 -1.0295 -0.1386 -0.7209
15845SOL     OW50488   4.741   0.073   3.462  0.3965  0.7713 -0.3773
15845SOL    HW150489   4.798   0.005   3.498 -0.3020 -0.7153 -1.9737
15845SOL    HW250490   4.799   0.149   3.452  1.4445  0.1240  0.4741
15846SOL     OW50491   7.665   4.898   4.151 -0.1636  0.0630  0.4243
15846SOL    HW150492   7.621   4.960   4.209  0.8195  1.4176 -0.2249
15846SOL    HW250493   7.593   4.856   4.103 -0.8704  0.3812  1.1688
15847SOL     OW50494   2.178   7.768   1.650  0.8002  0.0461 -0.6977
15847SOL    HW150495   2.141   7.713   1.581  0.0106  1.4522 -1.4499
15847SOL    HW250496   2.112   7.835   1.665  1.3872  0.3359  0.7623
15848SOL     OW50497   4.223   8.097   6.699 -0.3369 -0.0333  0.5056
15848SOL    HW150498   4.152   8.126   6.756 -1.5997 -2.0349  0.0823
15848SOL    HW250499   4.263   8.024   6.746  0.2289 -0.0982 -0.0671
15849SOL     OW50500   4.604   3.363   0.950  0.2664 -0.4428  0.2349
15849SOL    HW150501   4.658   3.404   1.017  2.2387 -0.7866 -1.0618
15849SOL    HW250502   4.575   3.281   0.990  1.2729 -0.5713  0.7369
15850SOL     OW50503   1.060   1.164   2.248 -0.1269 -0.1052 -0.2218
15850SOL    HW150504   1.123   1.097   2.221 -0.0515  0.1556 -0.6981
15850SOL    HW250505   1.113   1.234   2.287 -0.1813 -0.1797 -0.0074
15851SOL     OW50506   7.493   6.711   6.707  0.2073 -0.1504 -0.2334
15851SOL    HW150507   7.428   6.764   6.662  1.4245  0.7811 -0.9469
15851SOL    HW250508   7.552   6.682   6.638  0.5382 -1.0019  0.3957
15852SOL     OW50509   0.562   7.315   4.749  0.0244 -0.1076 -0.7186
15852SOL    HW150510   0.583   7.325   4.842 -1.7272  0.3346 -0.3315
15852SOL    HW250511   0.559   7.220   4.737  1.1194 -0.1814 -0.5610
15853SOL     OW50512   1.676   6.254   0.796 -0.2173 -0.1167  0.1626
15853SOL    HW150513   1.696   6.269   0.704 -2.4738  0.7364 -0.2625
15853SOL    HW250514   1.729   6.319   0.843  2.0586 -1.5036 -0.3323
15854SOL     OW50515   5.815   3.430   2.801  0.0206 -0.0226  0.5829
15854SOL    HW150516   5.813   3.347   2.850 -1.0262  0.1219  0.8076
15854SOL    HW250517   5.854   3.406   2.717 -0.2110 -0.7425  0.6671
15855SOL     OW50518   3.990   3.168   5.148  0.5316 -0.6635 -0.5127
15855SOL    HW150519   4.033   3.195   5.229  1.2471  0.5765 -1.2652
15855SOL    HW250520   3.962   3.078   5.164 -0.7860  0.0573  1.6838
15856SOL     OW50521   0.094   7.302   3.067 -0.2083 -0.6962 -0.1166
15856SOL    HW150522   0.168   7.281   3.124 -0.2795  0.5099  0.4539
15856SOL    HW250523   0.096   7.397   3.059 -1.6500 -0.6485 -0.1527
15857SOL     OW50524   0.219   7.394   6.007  0.5209 -0.3700 -0.4156
15857SOL    HW150525   0.138   7.347   5.988  0.8017 -1.6058  1.2408
15857SOL    HW250526   0.255   7.416   5.921 -0.2982 -2.0205 -1.2206
15858SOL     OW50527   2.149   3.702   1.109 -0.1244  0.0384  0.0332
15858SOL    HW150528   2.242   3.683   1.118  0.8543  1.6487 -4.1617
15858SOL    HW250529   2.112   3.622   1.072  0.1438  0.1730 -0.5414
15859SOL     OW50530   5.271   7.393   7.009  0.1510 -0.5593  0.1807
15859SOL    HW150531   5.221   7.474   7.003  0.5752 -0.4296 -2.2005
15859SOL    HW250532   5.354   7.419   7.049  0.9062  0.5429 -1.9694
15860SOL     OW50533   5.332   3.314   3.910 -0.1798 -0.1366  0.0491
15860SOL    HW150534   5.273   3.239   3.899 -0.7477  0.2029  0.6820
15860SOL    HW250535   5.417   3.274   3.933 -0.0534 -0.6434 -1.2191
15861SOL     OW50536   7.827   7.813   1.813 -0.2351  0.6130 -0.5958
15861SOL    HW150537   7.860   7.879   1.875 -0.4328  0.5018 -0.3701
15861SOL    HW250538   7.833   7.855   1.728  1.1260  0.3686 -0.6550
15862SOL     OW50539   2.325   2.530   6.942 -0.1505  0.2898 -0.0726
15862SOL    HW150540   2.352   2.482   7.020  1.8217 -3.6012 -2.7955
15862SOL    HW250541   2.405   2.571   6.909 -1.1753  2.8776  0.3695
15863SOL     OW50542   6.277   7.760   6.938 -0.0846  0.4237 -0.0900
15863SOL    HW150543   6.233   7.812   6.870 -1.9019  1.4772  1.7832
15863SOL    HW250544   6.246   7.671   6.924 -3.1304  1.1735  1.3019
15864SOL     OW50545   7.517   6.087   7.841  0.1812  0.0553 -0.0034
15864SOL    HW150546   7.523   5.997   7.808  2.1927 -0.2289  0.9817
15864SOL    HW250547   7.593   6.131   7.803 -1.0336  1.5072 -0.8410
15865SOL     OW50548   5.629   1.102   5.321 -0.0334 -0.3070  0.1755
15865SOL    HW150549   5.638   1.197   5.317  1.1816 -0.4352 -1.0449
15865SOL    HW250550   5.696   1.074   5.384 -0.0557 -0.3874  0.1643
15866SOL     OW50551   7.487   7.953   7.309  0.3453 -0.2866  0.0339
15866SOL    HW150552   7.431   8.025   7.282  0.8564  0.3228  0.5763
15866SOL    HW250553   7.456   7.878   7.258 -1.0844 -0.0156  0.4798
15867SOL     OW50554   0.648   5.012   3.406  0.1926  0.1676 -0.1063
15867SOL    HW150555   0.634   5.105   3.392  2.0086  0.3424 -1.0397
15867SOL    HW250556   0.570   4.971   3.368  0.0806  1.2391 -1.1024
15868SOL     OW50557   6.752   7.105   0.787 -0.3996  0.2959  0.4012
15868SOL    HW150558   6.682   7.069   0.842 -2.2907  0.5601 -1.6866
15868SOL    HW250559   6.775   7.188   0.830 -1.7081  0.4258  0.9115
15869SOL     OW50560   5.856   7.544   5.752  0.0484  0.2814 -0.8817
15869SOL    HW150561   5.762   7.527   5.761  0.0777 -1.2583 -2.9196
15869SOL    HW250562   5.898   7.471   5.798  0.2852  0.7323 -0.3556
15870SOL     OW50563   1.910   7.556   0.336 -0.4379  0.2466  0.2360
15870SOL    HW150564   1.868   7.581   0.253  1.3608  0.5207 -0.6455
15870SOL    HW250565   1.841   7.512   0.385 -2.1977  2.0284 -0.4747
15871SOL     OW50566   0.108   2.258   5.427  0.5607 -0.0070 -0.2233
15871SOL    HW150567   0.055   2.319   5.376 -0.2886 -0.2743  0.3214
15871SOL    HW250568   0.199   2.280   5.404  0.2772  1.5823  0.1237
15872SOL     OW50569   1.431   6.737   3.968 -0.0501 -0.2717  0.6075
15872SOL    HW150570   1.340   6.714   3.950 -0.4794 -1.2824  3.5406
15872SOL    HW250571   1.428   6.785   4.050  2.0000  0.7357  0.1697
15873SOL     OW50572   0.337   6.758   3.904 -0.1197  0.5679  0.0979
15873SOL    HW150573   0.285   6.834   3.877  1.0104  1.7372  1.1279
15873SOL    HW250574   0.308   6.739   3.993  1.2999  1.3502  0.7571
15874SOL     OW50575   7.084   6.919   7.000  0.0131 -0.1062  0.2875
15874SOL    HW150576   6.997   6.897   7.033 -0.0358  0.5213  0.6017
15874SOL    HW250577   7.118   6.837   6.966  0.0162 -0.7843  1.8142
15875SOL     OW50578   1.435   5.237   5.982  0.1155  0.3004 -0.0333
15875SOL    HW150579   1.341   5.254   5.993  0.4576  1.3611  1.4718
15875SOL    HW250580   1.476   5.279   6.057  1.5745 -2.5321  0.8933
15876SOL     OW50581   5.391   2.233   5.906 -0.0714  0.2839  0.0438
15876SOL    HW150582   5.352   2.165   5.960  0.8852 -1.3004 -1.1611
15876SOL    HW250583   5.475   2.253   5.949  0.7937 -1.1383 -0.8921
15877SOL     OW50584   7.610   6.834   5.774 -0.2271 -0.5065  0.2670
15877SOL    HW150585   7.640   6.881   5.696  0.3359  0.9496  1.3198
15877SOL    HW250586   7.560   6.760   5.739 -0.2555  0.2710 -1.4756
15878SOL     OW50587   4.750   5.633   7.029 -0.3632  0.0785  0.1545
15878SOL    HW150588   4.699   5.580   6.968  0.1282 -0.9416  0.6113
15878SOL    HW250589   4.841   5.613   7.009 -0.1860  0.2663  0.7486
15879SOL     OW50590   5.114   0.049   8.001  0.1523 -0.7352 -0.1764
15879SOL    HW150591   5.040   0.012   8.050 -1.2956 -0.5108 -2.0657
15879SOL    HW250592   5.135  -0.018   7.936  0.6617 -0.2009 -0.5714
15880SOL     OW50593   1.699   3.613   0.112 -0.7507 -0.2046  0.1578
15880SOL    HW150594   1.651   3.621   0.029 -0.3047  2.0774  0.0749
15880SOL    HW250595   1.718   3.703   0.138 -0.4171 -0.8990  2.4981
15881SOL     OW50596   4.023   5.612   0.567  0.8303 -0.0940  0.6971
15881SOL    HW150597   4.038   5.706   0.580  0.9712 -0.1272  0.7807
15881SOL    HW250598   4.040   5.573   0.653  0.6414 -0.1812  0.6954
15882SOL     OW50599   5.507   5.506   4.392 -0.0669  0.4069 -0.1650
15882SOL    HW150600   5.435   5.562   4.362 -1.0174 -0.9550 -0.5145
15882SOL    HW250601   5.464   5.424   4.418  1.4212 -0.6213 -0.8735
15883SOL     OW50602   2.397   0.174   2.817  0.0268 -0.0247 -0.0556
15883SOL    HW150603   2.492   0.164   2.827 -0.1781 -1.5126  0.5946
15883SOL    HW250604   2.365   0.085   2.804 -1.1609  0.5760 -1.5443
15884SOL     OW50605   1.523   4.921   2.663 -0.2009 -0.1162  0.3531
15884SOL    HW150606   1.479   4.879   2.590 -0.8379  0.5767  0.3247
15884SOL    HW250607   1.561   4.849   2.714 -1.5869 -0.7495  0.5229
15885SOL     OW50608   6.945   2.545   3.358 -0.3879  0.1928  0.2083
15885SOL    HW150609   6.885   2.512   3.425 -1.0096 -0.0049 -0.4291
15885SOL    HW250610   6.925   2.492   3.280  2.2284 -1.5141  0.5747
15886SOL     OW50611   6.253   5.796   6.224  0.1365 -0.3351 -0.2575
15886SOL    HW150612   6.164   5.762   6.220  0.4588 -1.3009  0.4430
15886SOL    HW250613   6.267   5.836   6.138 -1.5259  1.3214  0.1828
15887SOL     OW50614   2.480   4.939   3.726  0.0453 -0.0497 -0.0137
15887SOL    HW150615   2.479   5.000   3.799  1.4504 -0.1694  0.1308
15887SOL    HW250616   2.473   4.852   3.767 -0.0989 -0.0756 -0.0917
15888SOL     OW50617   6.300   4.165   1.385  0.5276 -0.4287 -0.1207
15888SOL    HW150618   6.393   4.153   1.404  0.1344 -1.1402  1.4809
15888SOL    HW250619   6.271   4.230   1.449 -0.0041  0.0861 -0.8711
15889SOL     OW50620   5.024   4.903   7.157  1.0350  0.2898  0.2267
15889SOL    HW150621   5.037   4.941   7.244  0.5764  0.0109  0.4221
15889SOL    HW250622   4.960   4.960   7.115  1.0713  0.2831  0.1627
15890SOL     OW50623   2.346   2.479   2.934 -0.3084 -0.6595  0.7626
15890SOL    HW150624   2.287   2.479   3.009 -0.4657 -1.9925  0.6769
15890SOL    HW250625   2.404   2.404   2.949  1.1211  0.3985  0.6486
15891SOL     OW50626   3.139   8.100   3.426 -0.1590  0.4135  0.1727
15891SOL    HW150627   3.208   8.154   3.387 -1.1705  1.7688  0.1777
15891SOL    HW250628   3.164   8.092   3.518  0.0107  0.8706  0.1689
15892SOL     OW50629   3.746   6.336   5.049 -0.0071  0.0998  0.6912
15892SOL    HW150630   3.701   6.321   5.132  0.3756  0.5865  0.9930
15892SOL    HW250631   3.700   6.280   4.986 -0.1960 -0.3965  1.2608
15893SOL     OW50632   2.765   4.152   6.644 -0.0677 -0.4185  0.0574
15893SOL    HW150633   2.767   4.246   6.623  1.0010 -0.4943 -0.2767
15893SOL    HW250634   2.858   4.127   6.647 -0.3413 -1.7870 -1.3704
15894SOL     OW50635   5.692   1.868   3.643 -0.8641  0.2074  0.5202
15894SOL    HW150636   5.758   1.867   3.712 -0.2101  1.9233 -0.0218
15894SOL    HW250637   5.726   1.810   3.575 -0.2196  0.5679  0.5308
15895SOL     OW50638   2.359   0.588   4.820  0.3396 -0.6490 -0.3572
15895SOL    HW150639   2.390   0.595   4.910  1.4283  0.0580 -0.7663
15895SOL    HW250640   2.318   0.673   4.802 -0.2464 -0.9358 -0.4032
15896SOL     OW50641   7.443   1.485   1.963  0.3125  0.3267  0.4420
15896SOL    HW150642   7.377   1.491   2.031 -0.3052  0.7752 -0.1755
15896SOL    HW250643   7.474   1.395   1.966 -0.8307 -0.0819  0.2853
15897SOL     OW50644   4.404   4.271   7.750  0.3078  0.2297  0.1867
15897SOL    HW150645   4.481   4.247   7.697 -0.1955 -0.1538 -0.3836
15897SOL    HW250646   4.337   4.208   7.724 -0.1395  0.4299  0.8429
15898SOL     OW50647   1.171   1.597   5.067  0.4326  0.1429 -0.1388
15898SOL    HW150648   1.171   1.624   4.975  0.0821  1.1568  0.1455
15898SOL    HW250649   1.088   1.630   5.101  0.6323 -0.0838  0.5852
15899SOL     OW50650   4.819   7.011   2.111 -0.0537  0.2338 -0.1713
15899SOL    HW150651   4.796   6.972   2.196  0.1207  0.4185 -0.0381
15899SOL    HW250652   4.739   7.055   2.083 -1.3597 -2.9565 -1.8983
15900SOL     OW50653   5.759   0.879   6.357 -0.2601 -0.5520  0.1713
15900SOL    HW150654   5.686   0.855   6.414  0.1258 -2.1876  0.0316
15900SOL    HW250655   5.764   0.974   6.362 -1.8280 -0.4906  0.8810
15901SOL     OW50656   3.463   6.833   2.268 -0.0889 -0.0508  0.2746
15901SOL    HW150657   3.431   6.825   2.358 -0.6004  2.5172  0.4057
15901SOL    HW250658   3.512   6.915   2.268  1.0220 -0.6561 -1.5160
15902SOL     OW50659   3.605   7.689   5.958  0.2664  0.3414 -0.0120
15902SOL    HW150660   3.652   7.722   6.034 -1.2040 -0.2086  1.1696
15902SOL    HW250661   3.513   7.711   5.975 -0.0105  0.9673 -2.0272
15903SOL     OW50662   0.139   0.843   4.190 -0.2519  0.1370  0.3262
15903SOL    HW150663   0.128   0.924   4.141 -0.3598  0.3587  0.7162
15903SOL    HW250664   0.234   0.838   4.207 -0.0742 -0.4427 -0.7521
15904SOL     OW50665   6.413   3.867   3.351  0.4206  0.3073 -0.4992
15904SOL    HW150666   6.447   3.797   3.408 -2.1042  1.3231  2.5402
15904SOL    HW250667   6.462   3.945   3.379 -1.4746  0.9981  1.1305
15905SOL     OW50668   0.151   6.842   0.218 -0.5030 -0.0686 -0.0542
15905SOL    HW150669   0.179   6.761   0.176 -0.1943 -0.4188  0.8045
15905SOL    HW250670   0.181   6.834   0.309 -2.3277  0.0727  0.5988
15906SOL     OW50671   2.089   6.709   0.693 -0.3126 -0.1198 -0.0938
15906SOL    HW150672   2.034   6.745   0.762 -0.8383 -2.0824  0.5756
15906SOL    HW250673   2.029   6.690   0.622  0.0420  0.7734 -0.6453
15907SOL     OW50674   6.913   3.377   7.442 -0.2462 -0.0210  0.0868
15907SOL    HW150675   6.837   3.341   7.488  1.0178  0.2518  2.5578
15907SOL    HW250676   6.898   3.471   7.440  0.3758  0.1294  1.3758
15908SOL     OW50677   3.251   8.043   6.746  0.2246  0.1726 -0.4219
15908SOL    HW150678   3.158   8.027   6.765  0.1532  1.8530  0.8293
15908SOL    HW250679   3.290   7.956   6.749 -0.6363 -0.2834  3.1067
15909SOL     OW50680   5.520   0.783   0.731 -0.0020  0.2569 -0.6307
15909SOL    HW150681   5.534   0.873   0.758  0.3402  0.5721 -1.7711
15909SOL    HW250682   5.488   0.738   0.809  2.5868  0.6697  0.7807
15910SOL     OW50683   7.091   1.199   3.824 -0.3916  0.1060 -0.7006
15910SOL    HW150684   7.165   1.247   3.862 -1.2711  0.4424  0.6495
15910SOL    HW250685   7.125   1.110   3.812 -0.1461 -0.1115  1.2253
15911SOL     OW50686   8.046   1.062   3.385 -0.4949 -0.3565 -0.0727
15911SOL    HW150687   8.137   1.073   3.410 -0.5949 -1.4599  0.8542
15911SOL    HW250688   8.004   1.025   3.462 -1.1717 -2.3284 -1.3070
15912SOL     OW50689   5.645   6.325   5.229 -0.0491 -0.4767  0.2235
15912SOL    HW150690   5.712   6.369   5.176 -0.3130  0.8314  0.9213
15912SOL    HW250691   5.574   6.389   5.236 -1.6085 -1.9931 -0.8655
15913SOL     OW50692   1.670   3.949   5.284 -0.0032  0.1311 -0.5131
15913SOL    HW150693   1.606   4.020   5.283  0.0606  0.2438 -3.2203
15913SOL    HW250694   1.661   3.907   5.199  2.1428 -1.1395 -0.1858
15914SOL     OW50695   4.348   7.697   1.318  0.0451 -0.4359  0.8052
15914SOL    HW150696   4.436   7.691   1.278 -0.3909  1.6680 -0.6703
15914SOL    HW250697   4.349   7.781   1.364 -0.4146 -1.5620  2.9980
15915SOL     OW50698   3.118   3.757   3.767 -0.2018 -0.1615  0.2922
15915SOL    HW150699   3.023   3.752   3.768 -0.2534  0.3964 -0.6110
15915SOL    HW250700   3.139   3.809   3.689  0.8388 -0.2687  0.4787
15916SOL     OW50701   0.814   7.620   5.680 -0.1084 -0.3067 -0.1240
15916SOL    HW150702   0.899   7.662   5.695 -0.1256 -0.7095  1.3025
15916SOL    HW250703   0.817   7.590   5.590  1.7183 -1.2667  0.2052
15917SOL     OW50704   7.148   1.608   5.978  0.0868  0.0315 -0.0503
15917SOL    HW150705   7.174   1.640   5.891 -0.8138  0.6567 -0.1086
15917SOL    HW250706   7.205   1.655   6.039 -0.2887  0.7421 -0.2269
15918SOL     OW50707   2.458   1.302   2.028  0.1136 -0.4431  0.4313
15918SOL    HW150708   2.461   1.372   2.093  0.9153  0.4470 -0.5368
15918SOL    HW250709   2.511   1.232   2.066 -0.7699 -0.5975  1.4511
15919SOL     OW50710   0.254   7.552   0.534 -0.2366 -0.7283 -0.0855
15919SOL    HW150711   0.183   7.514   0.585  1.7639 -0.8715  2.8446
15919SOL    HW250712   0.318   7.481   0.525 -0.6009 -0.8085 -3.2390
15920SOL     OW50713   0.868   6.872   3.515  0.8452 -0.3101 -0.5574
15920SOL    HW150714   0.826   6.941   3.565  0.5744 -0.1120 -1.0495
15920SOL    HW250715   0.877   6.908   3.427  1.4978 -0.5775 -0.6073
15921SOL     OW50716   2.788   4.570   3.344 -0.3148  0.3060  0.2159
15921SOL    HW150717   2.858   4.507   3.325  0.5903  1.4158 -0.1940
15921SOL    HW250718   2.708   4.524   3.318  0.0242 -1.6823  2.3106
15922SOL     OW50719   7.829   1.458   0.691 -0.4799 -0.0875  0.0980
15922SOL    HW150720   7.756   1.499   0.644 -1.4376  1.5449  2.8029
15922SOL    HW250721   7.888   1.530   0.712  0.9794 -1.1036 -0.3111
15923SOL     OW50722   1.270   2.941   5.552  0.0522  0.0763 -0.2714
15923SOL    HW150723   1.200   2.876   5.552  0.5835 -0.5255  1.1482
15923SOL    HW250724   1.251   2.996   5.476 -0.5594 -1.5613 -1.3711
15924SOL     OW50725   0.488   3.808   0.909 -0.1046 -0.1944 -0.0322
15924SOL    HW150726   0.518   3.769   0.991  1.5266  0.0721 -0.4665
15924SOL    HW250727   0.396   3.782   0.901 -0.3396 -0.0823  1.9516
15925SOL     OW50728   0.886   7.013   6.799 -0.3859 -0.3375 -0.7556
15925SOL    HW150729   0.918   7.085   6.853 -0.0656  0.4212 -1.9084
15925SOL    HW250730   0.791   7.017   6.807 -0.3320 -0.3667 -0.0927
15926SOL     OW50731   6.273   6.512   6.258 -1.0358  0.0515  0.0969
15926SOL    HW150732   6.241   6.526   6.169 -1.5480  1.9259  0.5434
15926SOL    HW250733   6.263   6.418   6.272 -1.8379 -0.1283 -1.4804
15927SOL     OW50734   0.123   7.483   7.401  0.0673 -0.0075 -0.1548
15927SOL    HW150735   0.132   7.423   7.327 -0.3466 -0.1982 -0.0555
15927SOL    HW250736   0.196   7.460   7.459  0.7833  0.5811 -0.7919
15928SOL     OW50737   5.452   3.932   2.915  0.5501  0.0642  0.6964
15928SOL    HW150738   5.465   3.925   3.009  0.3358  0.0571  0.7249
15928SOL    HW250739   5.363   3.965   2.905  0.6858  0.3810  0.5051
15929SOL     OW50740   2.568   3.788   4.825 -0.4702 -0.0669 -0.4761
15929SOL    HW150741   2.574   3.789   4.920  2.9668 -0.3961 -0.5928
15929SOL    HW250742   2.532   3.702   4.804  0.0952 -0.5402  0.4673
15930SOL     OW50743   1.452   5.371   1.025  0.0371 -0.2163 -0.2179
15930SOL    HW150744   1.519   5.313   1.059  0.1078 -0.1000 -0.1588
15930SOL    HW250745   1.493   5.458   1.024  0.1817 -0.2886 -1.0072
15931SOL     OW50746   7.150   5.979   3.981 -0.4070 -0.1122  0.3027
15931SOL    HW150747   7.240   5.947   3.971 -0.5011 -0.3815  0.3038
15931SOL    HW250748   7.099   5.927   3.918 -0.2857  1.2549 -0.9717
15932SOL     OW50749   5.335   5.308   0.833 -0.1668 -0.0723  0.3882
15932SOL    HW150750   5.370   5.219   0.836 -0.9689 -0.3784  0.8779
15932SOL    HW250751   5.279   5.314   0.910 -1.4317  0.3082 -0.5378
15933SOL     OW50752   5.608   6.385   2.428 -0.1976 -0.6276  0.3038
15933SOL    HW150753   5.661   6.418   2.501 -0.1200 -0.0758  0.0020
15933SOL    HW250754   5.584   6.463   2.378 -0.2996 -0.9966 -0.2338
15934SOL     OW50755   7.769   0.375   6.204  1.0155 -0.3489  0.0295
15934SOL    HW150756   7.704   0.445   6.214  0.2844 -1.0331  0.2125
15934SOL    HW250757   7.750   0.337   6.118 -1.0514 -2.6933  1.3868
15935SOL     OW50758   7.797   6.800   7.309 -0.2442  0.2265  0.6435
15935SOL    HW150759   7.827   6.730   7.367  0.3771 -0.5857 -0.6155
15935SOL    HW250760   7.867   6.865   7.311  0.4027 -0.4260 -0.2145
15936SOL     OW50761   3.983   1.608   7.330 -0.2999 -0.4212  0.0503
15936SOL    HW150762   4.012   1.594   7.239 -0.9730 -0.0430 -0.2264
15936SOL    HW250763   4.006   1.526   7.374  1.2574 -0.1210 -0.1283
15937SOL     OW50764   3.440   2.650   2.471  0.2318  0.8172  0.3932
15937SOL    HW150765   3.480   2.608   2.395 -0.3206 -0.4792  0.7924
15937SOL    HW250766   3.422   2.578   2.531 -2.1343  1.3918  0.4741
15938SOL     OW50767   1.366   7.292   6.169 -0.0602  0.1198  0.5369
15938SOL    HW150768   1.393   7.374   6.210  1.0388  0.7348 -1.2767
15938SOL    HW250769   1.304   7.318   6.102  0.6554 -0.4420 -0.3709
15939SOL     OW50770   5.403   4.992   5.643  0.1062  0.3666 -0.2235
15939SOL    HW150771   5.463   5.039   5.701  1.3998 -0.6517 -0.6859
15939SOL    HW250772   5.334   4.959   5.701  0.3699  0.9531  0.4349
15940SOL     OW50773   4.090   4.301   7.282  0.0770  0.1630 -0.5029
15940SOL    HW150774   4.183   4.281   7.286 -0.0347 -0.2749  0.0329
15940SOL    HW250775   4.055   4.271   7.366 -0.2563  1.8605  0.0161
15941SOL     OW50776   0.284   7.060   2.797  0.1449  0.1641  0.2093
15941SOL    HW150777   0.208   7.111   2.767  1.2485  2.6577  1.3859
15941SOL    HW250778   0.354   7.086   2.737  0.8503  0.4835  1.1499
15942SOL     OW50779   0.723   5.578   0.207 -0.7197 -0.7876  0.6426
15942SOL    HW150780   0.696   5.571   0.115  0.6102 -2.5800  0.3336
15942SOL    HW250781   0.683   5.502   0.249 -2.3295  0.6771  1.8676
15943SOL     OW50782   3.373   5.051   6.145 -0.5991 -0.1833  0.5780
15943SOL    HW150783   3.421   4.984   6.096  1.2777  1.5979 -0.1775
15943SOL    HW250784   3.349   5.116   6.079  0.3766  1.3904  1.7123
15944SOL     OW50785   5.845   3.161   3.642 -0.2227 -0.3389 -0.3240
15944SOL    HW150786   5.767   3.214   3.657 -0.9287 -1.0337 -1.3994
15944SOL    HW250787   5.813   3.082   3.597  1.2063 -0.1752 -1.7271
15945SOL     OW50788   4.195   0.027   0.431 -0.2513 -0.0114 -0.1104
15945SOL    HW150789   4.156   0.114   0.438  1.5765  0.9507 -1.0639
15945SOL    HW250790   4.140  -0.019   0.367 -0.7146  0.7621 -0.2868
15946SOL     OW50791   2.981   1.115   7.449 -0.0572  0.3265  0.0651
15946SOL    HW150792   3.054   1.055   7.468 -0.0575 -0.2206 -1.5404
15946SOL    HW250793   2.913   1.059   7.412 -0.8468  1.0339  0.3990
15947SOL     OW50794   4.427   7.376   6.828 -0.0510 -0.0699  0.0399
15947SOL    HW150795   4.450   7.381   6.735  2.9796  0.0515  0.6913
15947SOL    HW250796   4.436   7.283   6.850  5.7928  0.4706  1.4516
15948SOL     OW50797   5.369   0.938   8.013 -0.1825 -0.1718 -0.5590
15948SOL    HW150798   5.420   0.878   8.068 -1.6110 -1.0665 -0.1355
15948SOL    HW250799   5.282   0.938   8.053  0.1716  3.6371  0.5617
15949SOL     OW50800   4.954   2.523   0.593 -0.1879  0.6580  0.1631
15949SOL    HW150801   5.035   2.476   0.576 -0.3750  0.4166 -0.0850
15949SOL    HW250802   4.950   2.590   0.525 -1.3012 -0.7812 -1.2703
15950SOL     OW50803   6.392   7.729   2.096  0.0801 -0.1578 -0.2890
15950SOL    HW150804   6.443   7.656   2.133 -1.3358 -1.5133 -0.9003
15950SOL    HW250805   6.452   7.771   2.034  0.7865 -1.1035 -0.2769
15951SOL     OW50806   0.959   7.312   8.054 -0.3792  0.2170  0.8732
15951SOL    HW150807   0.999   7.396   8.077 -1.4086  1.0885 -0.3498
15951SOL    HW250808   0.887   7.302   8.117 -2.0497  1.7035 -0.6875
15952SOL     OW50809   7.757   0.788   2.891  0.5110 -0.7630  0.3927
15952SOL    HW150810   7.766   0.882   2.905 -0.5510 -0.7570  1.0929
15952SOL    HW250811   7.721   0.780   2.802 -0.9382 -0.4261  0.9261
15953SOL     OW50812   2.198   4.560   5.225  0.5427 -0.2848 -0.2093
15953SOL    HW150813   2.226   4.470   5.245  2.3790  0.1518 -0.7054
15953SOL    HW250814   2.205   4.606   5.309 -0.1460 -0.5080 -0.0148
15954SOL     OW50815   5.524   7.750   6.243  0.1498  0.2267 -0.1430
15954SOL    HW150816   5.570   7.764   6.160  1.1330 -0.5079  0.2601
15954SOL    HW250817   5.436   7.721   6.217  0.7967 -1.1378 -0.9606
15955SOL     OW50818   3.979   3.335   5.458  0.1488 -0.0452 -0.6850
15955SOL    HW150819   3.996   3.286   5.538 -1.7569  0.4192  0.0643
15955SOL    HW250820   4.045   3.404   5.458  0.1633 -0.0378  0.5101
15956SOL     OW50821   6.463   7.788   4.187  0.4076  0.0351  0.8549
15956SOL    HW150822   6.511   7.867   4.162  0.8713 -0.5390 -0.1124
15956SOL    HW250823   6.480   7.725   4.117 -1.8351 -0.1813  0.4287
15957SOL     OW50824   6.038   5.610   7.220 -0.4435  0.5988 -0.0776
15957SOL    HW150825   6.069   5.520   7.208  1.5544  1.2870 -0.2979
15957SOL    HW250826   6.094   5.646   7.288 -2.6763  1.0433  1.6339
15958SOL     OW50827   3.868   2.070   7.355 -0.0174  0.1538 -0.7596
15958SOL    HW150828   3.868   2.018   7.436  1.1064 -0.2744 -1.0101
15958SOL    HW250829   3.881   2.160   7.385 -3.2347  0.5435 -0.2274
15959SOL     OW50830   7.113   8.105   4.946  0.1318  0.1431  0.4689
15959SOL    HW150831   7.018   8.092   4.954  0.2796 -0.8839  0.6923
15959SOL    HW250832   7.122   8.184   4.894 -0.8537  0.3317  0.5689
15960SOL     OW50833   3.053   5.206   2.895 -0.0643 -0.2005 -0.2443
15960SOL    HW150834   3.032   5.240   2.983  1.3896  0.1063 -0.0009
15960SOL    HW250835   2.971   5.165   2.866 -0.2072 -1.5829  1.8425
15961SOL     OW50836   0.288   1.432   5.687  0.0348  0.3997 -0.2501
15961SOL    HW150837   0.219   1.403   5.627  0.1950 -1.7724  0.5077
15961SOL    HW250838   0.349   1.480   5.632 -1.2369  0.9294 -1.2581
15962SOL     OW50839   5.929   6.168   2.399 -0.4413 -0.5541  0.0480
15962SOL    HW150840   6.012   6.148   2.441 -0.3189 -0.4704 -0.1510
15962SOL    HW250841   5.879   6.216   2.465  0.3084  0.8630 -0.3842
15963SOL     OW50842   6.926   1.684   7.884  0.4885  0.1547  0.1048
15963SOL    HW150843   6.899   1.642   7.802 -0.6654  2.7294 -0.9626
15963SOL    HW250844   6.852   1.670   7.944  1.8192 -2.7532  1.2226
15964SOL     OW50845   1.507   4.526   0.294 -0.0373  0.0665  0.3170
15964SOL    HW150846   1.518   4.575   0.376 -0.1780  0.3461  0.1712
15964SOL    HW250847   1.512   4.434   0.320  3.0852  0.0924  0.2567
15965SOL     OW50848   7.024   1.701   2.132  0.0091  0.2493 -0.3306
15965SOL    HW150849   7.001   1.715   2.224  0.4412 -0.5980 -0.0936
15965SOL    HW250850   6.944   1.666   2.093 -0.8513  2.4700 -0.7660
15966SOL     OW50851   0.934   0.864   8.049  0.4246  0.3258  0.1562
15966SOL    HW150852   1.004   0.872   7.983 -0.2954  0.9828 -0.5536
15966SOL    HW250853   0.976   0.888   8.131  1.1129  0.4317 -0.2175
15967SOL     OW50854   7.320   6.661   3.533 -0.0150 -0.0264 -0.0523
15967SOL    HW150855   7.360   6.604   3.598  1.7174  1.1814 -0.0108
15967SOL    HW250856   7.294   6.739   3.582  2.0229  1.2345 -0.8686
15968SOL     OW50857   4.047   7.358   3.479  0.4116 -0.5986  0.3006
15968SOL    HW150858   4.099   7.345   3.558 -0.7043  0.9016  1.3442
15968SOL    HW250859   4.111   7.386   3.412  1.0787  0.2884  1.2816
15969SOL     OW50860   1.565   2.730   4.344 -0.0986 -0.0775 -0.2295
15969SOL    HW150861   1.506   2.742   4.418  0.7316  0.4109  0.3679
15969SOL    HW250862   1.556   2.637   4.320  0.7320 -0.6203  1.4502
15970SOL     OW50863   0.093   6.424   7.590 -0.1680  0.2911  0.4111
15970SOL    HW150864   0.045   6.504   7.613 -3.1570 -1.6066  1.2505
15970SOL    HW250865   0.132   6.395   7.672  1.8329  1.3312 -0.0951
15971SOL     OW50866   5.124   3.020   4.315  0.7065 -0.0694 -0.3857
15971SOL    HW150867   5.072   2.946   4.284 -1.6105  0.8356  1.0743
15971SOL    HW250868   5.175   2.985   4.388 -1.2048 -0.0834  1.0300
15972SOL     OW50869   0.552   5.307   2.135 -0.1571 -0.3144  0.0249
15972SOL    HW150870   0.486   5.272   2.075  0.7881  0.2746 -1.4296
15972SOL    HW250871   0.506   5.373   2.187 -1.1526 -1.2968  0.4318
15973SOL     OW50872   5.235   2.656   7.176  0.2259  0.0059 -0.0101
15973SOL    HW150873   5.288   2.626   7.103  0.1496 -1.9821  0.6583
15973SOL    HW250874   5.181   2.726   7.141  0.2658 -0.8275 -1.8380
15974SOL     OW50875   0.210   1.434   3.465 -0.1021 -0.1474 -0.4201
15974SOL    HW150876   0.171   1.360   3.419  1.7430  0.1331 -2.6696
15974SOL    HW250877   0.296   1.402   3.492  0.1380  0.7299 -0.1264
15975SOL     OW50878   2.663   2.755   2.941 -0.3522  0.6185 -0.1723
15975SOL    HW150879   2.654   2.761   2.846 -0.6185  2.1231 -0.0772
15975SOL    HW250880   2.720   2.679   2.955 -0.9604 -0.1058 -1.4800
15976SOL     OW50881   3.433   7.730   1.573 -0.0573  0.3390 -0.3420
15976SOL    HW150882   3.442   7.825   1.559  0.9287  0.0510 -1.9680
15976SOL    HW250883   3.452   7.717   1.665  0.7638  1.6363 -0.3061
15977SOL     OW50884   2.016   7.823   0.141  0.5420 -0.2085 -0.6723
15977SOL    HW150885   2.039   7.731   0.132  1.2028 -0.3503  1.7582
15977SOL    HW250886   2.023   7.840   0.235 -0.5163  2.0816 -0.9441
15978SOL     OW50887   4.741   0.379   5.084  0.3222  0.2897 -0.6326
15978SOL    HW150888   4.669   0.441   5.077  1.2387  1.4281 -0.2742
15978SOL    HW250889   4.791   0.389   5.004  0.7807  0.4133 -0.3371
15979SOL     OW50890   1.532   4.924   0.057  0.0012  0.1286 -0.5677
15979SOL    HW150891   1.457   4.891   0.009 -0.8824  0.4406  0.5605
15979SOL    HW250892   1.533   5.018   0.039 -2.7598  1.0788  2.9957
15980SOL     OW50893   7.135   3.723   1.167 -0.2579 -0.2522  0.5030
15980SOL    HW150894   7.039   3.722   1.161 -0.2067  1.0897 -1.0349
15980SOL    HW250895   7.154   3.678   1.249 -2.1510 -1.6246  0.2565
15981SOL     OW50896   2.403   6.979   2.210 -0.0056  0.3971  0.0830
15981SOL    HW150897   2.448   6.912   2.160  2.1911 -1.2056  3.7442
15981SOL    HW250898   2.326   6.935   2.247 -0.9532  1.2074 -0.8613
15982SOL     OW50899   6.685   2.430   0.111 -0.2935  0.0082  0.4302
15982SOL    HW150900   6.612   2.440   0.173 -0.1556  2.9112  0.2666
15982SOL    HW250901   6.674   2.503   0.049  1.9918 -0.2651 -0.3974
15983SOL     OW50902   4.544   7.722   7.268  0.0636  0.4361  0.0338
15983SOL    HW150903   4.551   7.720   7.363  0.5681  0.8353  0.0109
15983SOL    HW250904   4.456   7.756   7.251 -0.3701 -0.4915  0.3515
15984SOL     OW50905   3.304   6.394   1.136  0.2438 -0.1817  0.0788
15984SOL    HW150906   3.297   6.416   1.228 -3.7082 -2.7830  0.6480
15984SOL    HW250907   3.265   6.468   1.090 -0.0720  0.0475  0.7067
15985SOL     OW50908   4.918   7.199   2.617  0.3864 -0.4021  0.0025
15985SOL    HW150909   4.902   7.294   2.621  0.2611 -0.3770 -0.8301
15985SOL    HW250910   4.980   7.182   2.688 -0.6497  0.0682  1.0535
15986SOL     OW50911   2.469   7.744   6.513 -0.5201 -0.0348  0.6392
15986SOL    HW150912   2.414   7.769   6.439  0.5676  1.1600  0.1807
15986SOL    HW250913   2.488   7.827   6.557  0.2744 -0.5190  1.2338
15987SOL     OW50914   5.325   5.668   5.884  0.5332  0.8353 -0.3983
15987SOL    HW150915   5.238   5.633   5.901  0.6974 -0.2284 -1.5868
15987SOL    HW250916   5.343   5.725   5.959 -0.8142  0.3902  0.3000
15988SOL     OW50917   3.506   0.709   0.551 -0.5943  0.1467  0.3003
15988SOL    HW150918   3.522   0.695   0.644 -0.6050 -0.5048  0.2111
15988SOL    HW250919   3.484   0.622   0.517  3.3817 -0.5103 -1.1285
15989SOL     OW50920   7.305   2.904   1.914  0.0407  0.5890 -0.2083
15989SOL    HW150921   7.291   2.906   2.009  2.4859  2.0959  0.2061
15989SOL    HW250922   7.217   2.916   1.877 -1.2493 -1.7818  1.7507
15990SOL     OW50923   6.999   5.349   7.599  0.0561 -0.6990  0.3409
15990SOL    HW150924   6.948   5.387   7.528  2.1099 -1.5271 -1.7305
15990SOL    HW250925   6.934   5.313   7.659 -1.8434  2.4099  0.3411
15991SOL     OW50926   2.956   5.217   6.236 -0.0537 -0.4021  0.0624
15991SOL    HW150927   2.949   5.132   6.191  1.6616 -1.1264  1.0529
15991SOL    HW250928   3.049   5.226   6.255 -0.5932  0.0640  3.0155
15992SOL     OW50929   0.150   7.919   3.477 -0.0009 -0.5140  0.1823
15992SOL    HW150930   0.107   8.003   3.462 -0.0035 -0.4124  0.7573
15992SOL    HW250931   0.148   7.876   3.391 -0.0494  0.0454 -0.1020
15993SOL     OW50932   2.667   6.329   1.776  0.3091  0.0784  0.1404
15993SOL    HW150933   2.754   6.307   1.744  0.0920  1.3715 -1.4614
15993SOL    HW250934   2.673   6.320   1.871  1.9403 -0.6420 -0.0082
15994SOL     OW50935   6.211   0.980   6.962  0.2093 -0.8952  1.2063
15994SOL    HW150936   6.202   0.925   7.039 -1.5185 -0.0185  1.6780
15994SOL    HW250937   6.304   0.976   6.940  0.4840 -2.2592  2.4872
15995SOL     OW50938   7.738   0.711   5.424  0.1452  0.3649  0.6357
15995SOL    HW150939   7.789   0.640   5.387  0.9618  1.2332  0.0599
15995SOL    HW250940   7.647   0.681   5.418  0.3345  0.0997 -1.2139
15996SOL     OW50941   1.338   6.181   4.130  0.5006 -0.4083 -0.6152
15996SOL    HW150942   1.304   6.109   4.076 -1.0360  0.7653 -1.2927
15996SOL    HW250943   1.336   6.147   4.219 -1.2681 -0.8846 -0.7893
15997SOL     OW50944   3.996   7.245   2.235 -0.1103  0.0098 -0.0402
15997SOL    HW150945   4.019   7.183   2.166  0.6270 -0.8393  0.9509
15997SOL    HW250946   3.933   7.304   2.193  0.3334 -0.4666 -1.4419
15998SOL     OW50947   0.998   1.700   5.252 -0.0167 -0.0936  0.3305
15998SOL    HW150948   0.961   1.655   5.328 -1.6323  2.6722  1.3217
15998SOL    HW250949   1.091   1.712   5.274  0.2225 -1.9255  0.4714
15999SOL     OW50950   4.437   6.766   3.869  0.4068  0.1361  0.1050
15999SOL    HW150951   4.366   6.813   3.914  0.7235  0.6749  0.0477
15999SOL    HW250952   4.517   6.811   3.896  0.8290 -1.0225  0.8869
16000SOL     OW50953   4.518   4.882   3.446  0.0572 -0.1384 -0.2054
16000SOL    HW150954   4.516   4.859   3.353 -1.9036  1.7202 -0.6974
16000SOL    HW250955   4.486   4.803   3.490  0.1833 -0.7515 -1.1757
16001SOL     OW50956   1.381   4.167   6.552 -0.3109  0.4280  0.2756
16001SOL    HW150957   1.345   4.204   6.633 -1.3141  0.2042 -0.0524
16001SOL    HW250958   1.330   4.210   6.483 -3.0118 -2.9777 -0.0980
16002SOL     OW50959   6.376   6.971   5.046  0.1660 -0.1237 -0.5611
16002SOL    HW150960   6.343   6.881   5.047  0.9418 -0.4099 -0.3905
16002SOL    HW250961   6.470   6.962   5.032  0.4911  0.5822  0.9478
16003SOL     OW50962   7.170   2.719   1.023 -0.3138  0.4236 -0.3904
16003SOL    HW150963   7.147   2.660   0.951 -0.6419 -0.7570  0.6461
16003SOL    HW250964   7.266   2.718   1.025 -0.1698  2.5543 -2.4517
16004SOL     OW50965   7.319   7.962   0.444  0.1320  0.0131  0.1872
16004SOL    HW150966   7.338   7.934   0.534  3.5767 -1.5512 -0.8584
16004SOL    HW250967   7.356   8.050   0.438 -0.9391  0.5011  0.5074
16005SOL     OW50968   2.122   6.848   5.616 -0.4839  0.1536 -0.0829
16005SOL    HW150969   2.149   6.937   5.592  1.1786  0.5594  2.8054
16005SOL    HW250970   2.201   6.795   5.607 -0.0295  0.1236  2.9802
16006SOL     OW50971   4.305   2.019   7.652  0.1365 -0.8462 -0.4642
16006SOL    HW150972   4.269   2.009   7.739  0.2500 -2.2351 -0.5558
16006SOL    HW250973   4.394   2.052   7.666 -1.0035  2.5631 -0.2391
16007SOL     OW50974   2.719   1.791   4.002 -0.4306  0.5796 -0.8251
16007SOL    HW150975   2.681   1.877   3.981 -0.5719  0.2549 -1.9712
16007SOL    HW250976   2.719   1.744   3.919 -0.2763 -0.5131 -0.2269
16008SOL     OW50977   0.972   1.982   4.493 -0.1712  0.0910 -0.7796
16008SOL    HW150978   1.011   2.029   4.566 -0.6863  0.6237 -0.8476
16008SOL    HW250979   1.028   2.003   4.418 -0.3395  0.5147 -0.7879
16009SOL     OW50980   0.594   0.560   2.063 -0.1703  0.4638  0.2280
16009SOL    HW150981   0.652   0.549   2.138 -1.3109  0.7320  1.1755
16009SOL    HW250982   0.644   0.614   2.002  1.2509 -0.7924  0.2240
16010SOL     OW50983   0.670   1.300   5.034  0.1532 -0.1455 -0.0349
16010SOL    HW150984   0.656   1.387   4.995  1.5050  0.1772  0.1382
16010SOL    HW250985   0.717   1.251   4.966  2.9365  0.5668  1.2551
16011SOL     OW50986   5.219   7.502   3.978  0.6265 -0.2866  0.2491
16011SOL    HW150987   5.203   7.485   4.071  0.1162 -1.8941 -0.0977
16011SOL    HW250988   5.141   7.469   3.934 -0.0360  2.2673 -0.6523
16012SOL     OW50989   2.182   4.068   4.045 -0.0824  0.4391  0.0571
16012SOL    HW150990   2.192   3.983   4.088 -0.0973 -0.0559 -0.8980
16012SOL    HW250991   2.272   4.097   4.029 -0.0778  0.1778 -0.4191
16013SOL     OW50992   6.389   7.000   7.900 -0.1805 -0.0910  0.2563
16013SOL    HW150993   6.389   7.017   7.994 -1.3408 -0.9081  0.4274
16013SOL    HW250994   6.468   6.948   7.885  0.5259  0.8454  0.5976
16014SOL     OW50995   1.975   1.226   1.761  0.6425 -0.0883  0.2588
16014SOL    HW150996   1.880   1.225   1.772  0.7239 -0.3003  0.9837
16014SOL    HW250997   2.003   1.137   1.782  0.8946 -0.3202 -1.0270
16015SOL     OW50998   2.044   7.947   4.725 -0.1769 -0.3404 -0.0846
16015SOL    HW150999   2.131   7.924   4.692 -1.0590 -0.7117 -2.3130
16015SOL    HW251000   2.040   8.042   4.719  0.0855 -0.3183  0.0679
16016SOL     OW51001   5.880   7.980   2.778 -0.2806 -0.3724  0.7337
16016SOL    HW151002   5.789   7.955   2.768 -0.0460 -1.3201  0.8270
16016SOL    HW251003   5.929   7.912   2.731  0.3877 -0.0623  0.9632
16017SOL     OW51004   1.082   7.595   6.734 -0.2165 -0.4675 -0.2479
16017SOL    HW151005   1.113   7.569   6.820  0.8008  1.3527 -0.0169
16017SOL    HW251006   0.990   7.621   6.748 -0.8524 -2.5328 -0.2529
16018SOL     OW51007   7.969   1.323   3.296  0.4018  0.2339  0.2163
16018SOL    HW151008   8.006   1.285   3.216  0.8761  1.3245 -0.1123
16018SOL    HW251009   7.980   1.256   3.363  1.9233  0.0783 -0.1502
16019SOL     OW51010   6.809   6.188   5.733  0.0011  0.1804 -0.7351
16019SOL    HW151011   6.739   6.175   5.670 -0.2594 -0.9506 -0.2213
16019SOL    HW251012   6.873   6.120   5.713 -0.4524 -0.7082  0.7198
16020SOL     OW51013   1.879   7.947   5.438 -0.4862  0.2827 -0.0042
16020SOL    HW151014   1.785   7.965   5.437 -0.2955  1.7907  1.9998
16020SOL    HW251015   1.888   7.871   5.496 -0.4287  0.5347  0.3195
16021SOL     OW51016   1.808   3.403   1.077  0.0254 -0.2050 -0.1628
16021SOL    HW151017   1.883   3.382   1.133  0.4869  0.6600 -0.4434
16021SOL    HW251018   1.748   3.330   1.090  1.2223 -1.2779 -0.4735
16022SOL     OW51019   7.649   2.197   0.213  0.4058  0.4679 -0.0497
16022SOL    HW151020   7.619   2.243   0.291  0.6908  0.9786 -0.2386
16022SOL    HW251021   7.735   2.161   0.238  1.0222  1.5978 -0.4822
16023SOL     OW51022   3.894   6.195   1.580  0.1686  0.3810 -0.0668
16023SOL    HW151023   3.910   6.285   1.552 -1.0835  0.2064 -1.4230
16023SOL    HW251024   3.933   6.190   1.667 -0.6005  2.5236  0.4508
16024SOL     OW51025   6.438   5.602   0.447 -0.1518  0.0984 -0.2055
16024SOL    HW151026   6.440   5.618   0.353  1.2651  3.3906  0.2339
16024SOL    HW251027   6.498   5.528   0.460 -1.1544 -1.0809 -1.9107
16025SOL     OW51028   2.309   1.579   1.587  0.6232  0.1770 -0.3311
16025SOL    HW151029   2.351   1.572   1.672  0.9957  1.2268 -0.4256
16025SOL    HW251030   2.227   1.625   1.604  0.5497  0.1106 -0.4979
16026SOL     OW51031   3.444   7.075   7.119  0.0157  0.1621 -0.8353
16026SOL    HW151032   3.478   7.128   7.191 -1.3830 -0.7532  0.5727
16026SOL    HW251033   3.363   7.119   7.093 -1.4118 -1.4443  0.6644
16027SOL     OW51034   3.530   2.677   4.216 -0.5696 -1.1234  0.3001
16027SOL    HW151035   3.512   2.737   4.143  1.8255 -1.3663 -0.5823
16027SOL    HW251036   3.503   2.726   4.294 -1.1671  0.0255 -0.5961
16028SOL     OW51037   3.679   7.000   6.487  0.1348 -0.0322  0.0869
16028SOL    HW151038   3.765   7.032   6.461  0.0125 -0.8124 -1.3856
16028SOL    HW251039   3.656   7.052   6.564  2.2716 -0.3850  1.0455
16029SOL     OW51040   6.304   5.973   6.726  0.2965  0.0990 -0.4979
16029SOL    HW151041   6.326   6.038   6.793  0.3638 -0.1244 -0.2986
16029SOL    HW251042   6.263   5.902   6.776  1.0171 -0.3966 -0.5912
16030SOL     OW51043   4.937   1.292   1.433 -0.2772 -0.3518  0.0804
16030SOL    HW151044   4.912   1.209   1.475  0.6999 -1.1782 -0.9191
16030SOL    HW251045   4.855   1.328   1.401 -0.7816 -0.6805  0.9736
16031SOL     OW51046   4.908   4.201   6.679 -0.1582 -0.4809 -0.4361
16031SOL    HW151047   4.944   4.246   6.602 -0.4869 -0.3088 -0.4928
16031SOL    HW251048   4.959   4.121   6.686  0.5232 -0.0469 -0.2672
16032SOL     OW51049   4.611   3.585   0.706 -0.6152 -0.5543 -0.4466
16032SOL    HW151050   4.639   3.525   0.637  0.6683 -3.8178  2.6282
16032SOL    HW251051   4.571   3.529   0.773 -1.7721  2.3888  1.5574
16033SOL     OW51052   4.681   5.857   5.035  0.5710  0.0713  0.0728
16033SOL    HW151053   4.618   5.788   5.055  2.4473 -1.3146  1.5923
16033SOL    HW251054   4.677   5.866   4.939 -1.3053 -0.5002  0.0440
16034SOL     OW51055   2.020   2.378   3.440 -0.0131  0.0054 -0.4851
16034SOL    HW151056   1.960   2.358   3.368 -2.7098 -0.9815  1.8233
16034SOL    HW251057   1.963   2.383   3.517  2.9244 -1.2184  1.9583
16035SOL     OW51058   2.783   0.291   5.739 -0.5525 -0.2012 -0.2738
16035SOL    HW151059   2.878   0.301   5.739 -0.4570 -1.0679 -0.3638
16035SOL    HW251060   2.762   0.262   5.651 -0.7493 -1.3122  0.1228
16036SOL     OW51061   3.826   6.638   3.342 -0.1643  0.4283 -0.1890
16036SOL    HW151062   3.813   6.592   3.426 -1.4568 -1.0220 -1.1358
16036SOL    HW251063   3.788   6.724   3.356 -0.4757  0.1676  0.6826
16037SOL     OW51064   1.040   5.671   3.884 -0.7461 -0.1158 -0.1883
16037SOL    HW151065   1.105   5.695   3.949 -1.9011  0.5870  0.7334
16037SOL    HW251066   0.998   5.593   3.919 -0.6528 -0.3608 -0.6096
16038SOL     OW51067   2.530   3.756   2.998 -0.1146  0.0180  0.3032
16038SOL    HW151068   2.600   3.819   3.010  1.2852 -0.6578 -3.2536
16038SOL    HW251069   2.558   3.679   3.047  0.3085  0.6160  1.0256
16039SOL     OW51070   1.296   0.534   3.539 -0.1511  0.2958  0.2098
16039SOL    HW151071   1.308   0.505   3.448  0.1433 -1.5662  0.8004
16039SOL    HW251072   1.202   0.524   3.555  0.0405 -1.0598  0.6111
16040SOL     OW51073   0.103   1.665   3.362  0.4505  0.2034 -0.3738
16040SOL    HW151074   0.128   1.583   3.405  1.1511  0.2688 -0.6542
16040SOL    HW251075   0.186   1.704   3.334  0.3201  1.9144  1.3680
16041SOL     OW51076   3.396   2.357   4.495  0.4241  0.0360 -0.0803
16041SOL    HW151077   3.390   2.300   4.572  0.7322  1.1779  0.8202
16041SOL    HW251078   3.489   2.365   4.478  0.5544  1.9002  1.1192
16042SOL     OW51079   2.677   6.665   7.506  0.4513 -0.5666  0.3908
16042SOL    HW151080   2.674   6.598   7.438 -0.5028 -0.6187  0.4645
16042SOL    HW251081   2.673   6.748   7.458  2.5531 -0.4954  0.2426
16043SOL     OW51082   5.898   3.651   2.931  0.0378 -0.4524 -0.5471
16043SOL    HW151083   5.989   3.671   2.910  0.0469  1.1716  0.7999
16043SOL    HW251084   5.881   3.568   2.887  2.1260 -0.7538 -0.8997
16044SOL     OW51085   3.005   0.234   0.322 -0.0806 -0.4968  0.0044
16044SOL    HW151086   2.969   0.146   0.312 -1.0632  0.0186 -1.2985
16044SOL    HW251087   2.929   0.292   0.323  0.6006  0.4376 -0.4012
16045SOL     OW51088   3.918   0.912   4.173 -0.4118  0.0537 -0.3144
16045SOL    HW151089   3.944   0.826   4.205 -1.2757  0.1824  0.7987
16045SOL    HW251090   4.000   0.958   4.158  0.1176 -1.3160 -2.0401
16046SOL     OW51091   0.624   4.778   3.580 -0.0715  0.6233  0.0669
16046SOL    HW151092   0.660   4.741   3.660 -0.8614  1.3871  0.8009
16046SOL    HW251093   0.651   4.870   3.581 -0.5700  0.7795 -0.2532
16047SOL     OW51094   5.891   3.360   6.174 -0.6679 -0.3225  0.4747
16047SOL    HW151095   5.969   3.331   6.222 -0.7837 -1.0644  0.2257
16047SOL    HW251096   5.913   3.347   6.082 -1.2730 -1.0450  0.4208
16048SOL     OW51097   7.433   2.224   4.011  0.2647  0.2632  0.0533
16048SOL    HW151098   7.457   2.219   4.103 -1.0788 -0.1214  0.3972
16048SOL    HW251099   7.514   2.200   3.964 -0.0633 -3.8921  1.2114
16049SOL     OW51100   5.618   2.734   4.192  0.2833  0.1602 -0.2775
16049SOL    HW151101   5.628   2.688   4.108  0.8610  1.1411 -0.7664
16049SOL    HW251102   5.664   2.817   4.179 -0.4776  0.7489  0.6864
16050SOL     OW51103   0.587   5.430   1.140 -0.1171 -0.4089  0.4675
16050SOL    HW151104   0.571   5.470   1.055  1.4718  0.5817  0.5868
16050SOL    HW251105   0.505   5.440   1.188 -0.8461 -0.4595 -0.7285
16051SOL     OW51106   5.517   1.062   4.766 -0.2245 -0.2380 -0.3096
16051SOL    HW151107   5.535   1.139   4.713 -0.1617  0.2642  0.4245
16051SOL    HW251108   5.438   1.084   4.814  0.6581  0.0242  1.0954
16052SOL     OW51109   2.350   1.963   6.297 -0.2465 -0.2281  0.1785
16052SOL    HW151110   2.407   1.894   6.331  0.5222  0.6802  0.7903
16052SOL    HW251111   2.271   1.957   6.350 -1.9261 -3.2271 -2.3996
16053SOL     OW51112   7.149   1.749   8.023 -0.1226  0.1093  1.2633
16053SOL    HW151113   7.175   1.669   8.070  0.5172  0.7704  2.0819
16053SOL    HW251114   7.065   1.728   7.984  0.3486 -1.1969  0.8851
16054SOL     OW51115   2.633   0.890   2.444 -0.1933 -0.3734 -0.1088
16054SOL    HW151116   2.667   0.980   2.436 -1.7586  0.1340 -1.6977
16054SOL    HW251117   2.652   0.866   2.534  1.2202  1.1600  0.0544
16055SOL     OW51118   4.364   4.813   7.382  0.1125  0.1504 -0.1392
16055SOL    HW151119   4.447   4.850   7.411 -0.0067 -0.5214  1.1333
16055SOL    HW251120   4.323   4.780   7.462 -1.7755  1.2208 -0.6138
16056SOL     OW51121   4.698   2.799   5.995  0.3297 -0.4346  0.0824
16056SOL    HW151122   4.791   2.793   6.017  0.2238  1.7309  1.4653
16056SOL    HW251123   4.663   2.862   6.058 -1.2991  1.6986 -2.7179
16057SOL     OW51124   5.237   2.182   5.004 -0.2106 -0.4206  0.1721
16057SOL    HW151125   5.176   2.127   5.053 -0.7559 -1.1231 -1.2516
16057SOL    HW251126   5.322   2.165   5.046 -0.5830 -1.3405  0.5830
16058SOL     OW51127   7.620   0.506   6.761 -0.0167  0.5701  0.1169
16058SOL    HW151128   7.652   0.452   6.689  0.9045  1.1560  0.0719
16058SOL    HW251129   7.542   0.549   6.726  1.7569  2.7628 -1.4344
16059SOL     OW51130   4.016   0.461   5.176  0.2791 -0.4862 -0.4693
16059SOL    HW151131   4.016   0.473   5.081 -0.7286 -0.9370 -0.5342
16059SOL    HW251132   3.937   0.506   5.206 -0.3649 -1.8399 -0.0478
16060SOL     OW51133   4.323   1.941   7.026  0.6917 -0.2996  0.1897
16060SOL    HW151134   4.370   1.872   7.074 -1.4106  0.0793  3.0829
16060SOL    HW251135   4.246   1.959   7.080 -0.3872  2.2753 -1.9845
16061SOL     OW51136   1.855   1.441   7.037 -0.1958 -0.1336  0.8580
16061SOL    HW151137   1.913   1.371   7.006 -1.9253 -0.5137 -1.8647
16061SOL    HW251138   1.913   1.505   7.077  2.1590 -0.5272 -1.6414
16062SOL     OW51139   6.851   0.001   5.490 -0.5370  0.4532  0.8979
16062SOL    HW151140   6.885   0.039   5.409 -0.8017 -0.4840  0.3300
16062SOL    HW251141   6.850  -0.094   5.473 -2.0289  0.3534  1.4343
16063SOL     OW51142   7.589   6.606   7.747  0.4125  0.6041 -0.0347
16063SOL    HW151143   7.660   6.629   7.807 -0.0217 -0.4562  0.9072
16063SOL    HW251144   7.625   6.536   7.693 -0.2170 -0.6667  1.1358
16064SOL     OW51145   4.122   4.778   2.899  0.0029 -0.5491 -0.1265
16064SOL    HW151146   4.086   4.762   2.812 -0.2639  1.1192 -0.3545
16064SOL    HW251147   4.213   4.750   2.893 -0.1519 -0.9243 -0.7894
16065SOL     OW51148   6.062   0.487   6.873 -0.4736 -0.1167 -0.1642
16065SOL    HW151149   6.143   0.454   6.834 -0.5754  0.5931 -1.0053
16065SOL    HW251150   6.067   0.582   6.862 -1.0634 -0.0023  0.4879
16066SOL     OW51151   0.893   4.958   2.919 -0.2875 -0.5208 -0.1431
16066SOL    HW151152   0.922   4.926   3.005 -2.5150 -0.9422  0.5332
16066SOL    HW251153   0.856   5.044   2.937  1.7693  0.6624 -1.2286
16067SOL     OW51154   2.774   4.264   3.929 -0.6185  0.4761  0.2451
16067SOL    HW151155   2.811   4.232   3.846  0.2943 -0.4837  0.9974
16067SOL    HW251156   2.813   4.208   3.996 -1.2032  1.3579  1.3566
16068SOL     OW51157   3.113   1.083   7.044 -0.2339  0.5390 -0.1067
16068SOL    HW151158   3.109   1.049   7.134  0.1513 -0.1649 -0.3415
16068SOL    HW251159   3.023   1.081   7.013 -0.2702  0.0841  0.0191
16069SOL     OW51160   7.245   0.697   6.890 -0.3151 -0.1024  0.1219
16069SOL    HW151161   7.274   0.777   6.933  0.4762  0.2074 -0.9411
16069SOL    HW251162   7.288   0.699   6.804  2.8607 -3.5025  1.3585
16070SOL     OW51163   4.182   7.063   7.759 -0.1941 -0.0094  0.0477
16070SOL    HW151164   4.234   7.063   7.679  0.7133 -1.6590  0.5873
16070SOL    HW251165   4.244   7.040   7.828 -1.1236  0.5668  1.1115
16071SOL     OW51166   5.672   7.627   4.350 -0.0900 -0.0545 -0.7153
16071SOL    HW151167   5.617   7.552   4.375 -0.2368  0.2382 -0.1338
16071SOL    HW251168   5.614   7.683   4.299 -0.3517  0.2730 -0.0693
16072SOL     OW51169   2.936   2.046   3.166 -0.1824 -0.2209 -0.5892
16072SOL    HW151170   2.886   2.020   3.243 -0.1880  0.0662 -0.4953
16072SOL    HW251171   2.895   1.999   3.093 -0.0964 -0.5921 -0.3992
16073SOL     OW51172   6.522   6.726   2.163  0.6241  0.8532 -0.0243
16073SOL    HW151173   6.480   6.655   2.212  0.7198  0.8978  0.1209
16073SOL    HW251174   6.611   6.693   2.145  0.5746  0.8166 -0.2107
16074SOL     OW51175   4.882   1.460   3.442  0.2755  0.2676  0.0373
16074SOL    HW151176   4.935   1.534   3.473 -0.6968  0.6501  0.7970
16074SOL    HW251177   4.914   1.385   3.492  2.1999 -0.1578 -1.6724
16075SOL     OW51178   7.646   1.360   2.965  0.1049  0.1714  0.3571
16075SOL    HW151179   7.668   1.267   2.971  1.3629  0.4933  1.0746
16075SOL    HW251180   7.649   1.379   2.871  2.4568  0.0307  0.3344
16076SOL     OW51181   5.469   7.740   6.857  0.6677 -0.2393  0.2582
16076SOL    HW151182   5.447   7.795   6.932  1.0001 -0.4373  0.5050
16076SOL    HW251183   5.406   7.764   6.790 -2.3815 -2.9211  1.8946
16077SOL     OW51184   4.252   5.795   3.114  0.3506  0.3020  0.3271
16077SOL    HW151185   4.231   5.879   3.154 -0.7956 -0.5267  1.5385
16077SOL    HW251186   4.237   5.730   3.183  0.1807 -1.0112 -0.8804
16078SOL     OW51187   7.798   4.056   7.125 -1.0441  0.0548 -0.1127
16078SOL    HW151188   7.832   4.144   7.138  0.9664 -1.0158  3.1403
16078SOL    HW251189   7.851   4.019   7.054 -1.9028  1.3442 -1.4976
16079SOL     OW51190   7.186   0.164   2.739  0.9451  0.6674 -0.4380
16079SOL    HW151191   7.186   0.136   2.831 -1.0063 -0.1635 -0.6288
16079SOL    HW251192   7.186   0.259   2.743 -0.9623  0.6753  0.5305
16080SOL     OW51193   2.350   2.211   3.164 -0.3751 -0.5815 -0.1881
16080SOL    HW151194   2.426   2.168   3.125  0.2012 -0.2066  0.4997
16080SOL    HW251195   2.338   2.167   3.249  0.8324  1.2018  0.9861
16081SOL     OW51196   6.591   2.526   6.490  0.1553 -0.3410 -0.2064
16081SOL    HW151197   6.506   2.483   6.480 -0.7661  1.4353 -0.2569
16081SOL    HW251198   6.650   2.455   6.515 -1.4095 -1.5434  0.2586
16082SOL     OW51199   5.831   4.768   8.116  0.1875 -0.1138  0.4093
16082SOL    HW151200   5.921   4.776   8.149 -0.5363  1.0428  2.2463
16082SOL    HW251201   5.789   4.850   8.142 -1.0511 -0.0323 -1.6678
16083SOL     OW51202   2.034   1.455   3.703 -0.3828 -0.3944  0.4272
16083SOL    HW151203   2.026   1.361   3.685 -0.1105 -0.0832 -1.5076
16083SOL    HW251204   2.124   1.466   3.732 -0.5507 -0.7869  1.1183
16084SOL     OW51205   7.264   7.729   3.190  0.3211  1.0578  0.3278
16084SOL    HW151206   7.254   7.753   3.282 -2.7809  0.9038  0.1454
16084SOL    HW251207   7.314   7.800   3.151  0.9898  1.5175  1.9661
16085SOL     OW51208   6.656   2.346   7.870 -0.2211  0.1087 -0.0956
16085SOL    HW151209   6.562   2.337   7.852 -0.1053  0.7313 -1.0511
16085SOL    HW251210   6.661   2.420   7.930 -0.4376 -0.7447  1.0098
16086SOL     OW51211   0.729   6.492   4.501 -0.0443 -0.3146  0.0180
16086SOL    HW151212   0.825   6.497   4.508 -0.1706 -0.2030  2.8565
16086SOL    HW251213   0.697   6.532   4.582 -2.6072  1.8064 -1.8811
16087SOL     OW51214   5.592   1.787   3.304 -0.0467  0.0470  0.0436
16087SOL    HW151215   5.542   1.714   3.269  1.5726 -0.4479 -1.3664
16087SOL    HW251216   5.649   1.748   3.371  0.2289  0.1679 -0.1199
16088SOL     OW51217   5.691   1.191   1.602  0.0200 -0.2057 -0.0436
16088SOL    HW151218   5.764   1.176   1.542  0.0570 -1.4369  0.2956
16088SOL    HW251219   5.732   1.211   1.686 -0.0175 -1.2933  0.2443
16089SOL     OW51220   4.219   4.570   0.345  0.3127 -0.1092 -0.6886
16089SOL    HW151221   4.286   4.507   0.317 -0.7508 -1.2307 -0.8208
16089SOL    HW251222   4.137   4.520   0.340 -0.4573  1.0557  0.0232
16090SOL     OW51223   2.868   0.902   0.607  0.9225  0.1629  0.2358
16090SOL    HW151224   2.777   0.882   0.586  1.1551 -0.4930 -0.1828
16090SOL    HW251225   2.869   0.914   0.702  0.9448 -2.9535  0.7227
16091SOL     OW51226   0.644   2.841   2.911  0.3225  0.2575 -0.2328
16091SOL    HW151227   0.605   2.926   2.929  0.8802  0.5787 -0.5142
16091SOL    HW251228   0.633   2.828   2.816 -1.6467 -0.9452  0.1024
16092SOL     OW51229   1.453   4.413   5.186  0.0254 -0.2686 -0.3208
16092SOL    HW151230   1.371   4.368   5.205  0.7752 -2.8956 -2.5851
16092SOL    HW251231   1.514   4.382   5.253 -1.0499  2.8782  2.3171
16093SOL     OW51232   3.670   0.577   2.893  0.5379 -0.0932 -0.0312
16093SOL    HW151233   3.593   0.625   2.862  1.7404  1.7362 -0.3278
16093SOL    HW251234   3.635   0.506   2.947 -1.3505  0.4011 -0.5559
16094SOL     OW51235   7.747   7.432   1.899 -0.6736 -0.4462 -0.1650
16094SOL    HW151236   7.677   7.439   1.835 -1.3323 -1.5713  0.3944
16094SOL    HW251237   7.825   7.465   1.854 -1.4662  0.4197 -0.9403
16095SOL     OW51238   0.225   4.099   3.584  0.1099  0.0427 -0.2777
16095SOL    HW151239   0.201   4.191   3.597  0.0255  0.0920 -0.7444
16095SOL    HW251240   0.204   4.057   3.667  2.2313  0.8524  0.7454
16096SOL     OW51241   6.649   6.034   2.284  0.3520  0.4540 -0.5378
16096SOL    HW151242   6.574   6.041   2.225 -0.1147  2.9939  0.2605
16096SOL    HW251243   6.610   6.011   2.369  0.5481  1.0019 -0.2968
16097SOL     OW51244   0.709   0.326   6.558 -0.2818  0.4056  0.3669
16097SOL    HW151245   0.749   0.297   6.476 -1.3349 -3.4279  1.0057
16097SOL    HW251246   0.776   0.310   6.624 -0.4481  0.6901  0.6079
16098SOL     OW51247   1.267   2.772   3.711  0.3178 -0.5314 -0.1759
16098SOL    HW151248   1.320   2.844   3.678  0.4148  0.2862  1.6658
16098SOL    HW251249   1.211   2.811   3.778 -0.9848 -1.8144 -0.4465
16099SOL     OW51250   5.017   3.298   0.524  0.1845  0.0615 -0.0712
16099SOL    HW151251   5.009   3.392   0.514  0.2226  0.1712  0.8199
16099SOL    HW251252   4.999   3.262   0.437 -0.8475  0.8273 -0.1902
16100SOL     OW51253   3.833   2.317   5.432  0.8204  0.8968 -0.7586
16100SOL    HW151254   3.852   2.286   5.521  0.9943  1.6198 -0.5293
16100SOL    HW251255   3.756   2.373   5.442  0.5881  0.6472 -1.1369
16101SOL     OW51256   6.172   2.839   6.533 -0.5771 -0.4003 -0.7229
16101SOL    HW151257   6.222   2.817   6.455  1.2677  0.2781  0.1944
16101SOL    HW251258   6.222   2.802   6.606 -0.0641  2.2821  0.4294
16102SOL     OW51259   0.716   2.061   0.957 -0.3342 -0.0349 -0.1958
16102SOL    HW151260   0.709   2.060   0.862 -1.0276  0.4314 -0.1582
16102SOL    HW251261   0.719   1.969   0.982  2.4840 -0.1939 -0.8202
16103SOL     OW51262   4.801   2.911   5.076 -0.0737 -0.2018 -0.3392
16103SOL    HW151263   4.815   2.824   5.040 -0.0220 -1.1005  1.7115
16103SOL    HW251264   4.869   2.965   5.035  1.4301 -1.6796  0.1084
16104SOL     OW51265   6.101   4.961   3.646 -0.2762  0.4627  0.0359
16104SOL    HW151266   6.054   5.009   3.714  1.3196  1.1133  0.7456
16104SOL    HW251267   6.183   4.934   3.688 -0.3035 -1.2453 -0.9253
16105SOL     OW51268   7.462   6.313   6.282  0.3325 -0.0017 -1.0035
16105SOL    HW151269   7.502   6.335   6.198 -3.1554 -0.7336 -3.0293
16105SOL    HW251270   7.412   6.391   6.306 -1.1608 -0.8462 -1.2525
16106SOL     OW51271   1.574   5.972   8.085  0.4538 -0.5786 -0.5910
16106SOL    HW151272   1.663   5.951   8.056  0.4134 -3.0862  0.7645
16106SOL    HW251273   1.525   5.985   8.004  2.0088  0.7636 -1.3674
16107SOL     OW51274   1.002   5.314   7.698  0.0229 -0.3510  0.1496
16107SOL    HW151275   0.976   5.384   7.637  0.1626  0.3062  0.8256
16107SOL    HW251276   0.919   5.281   7.732 -0.0336 -0.1993  0.1629
16108SOL     OW51277   1.306   8.080   4.283  0.1106  0.6519 -0.5542
16108SOL    HW151278   1.311   8.056   4.375  1.8571  2.5686 -0.0522
16108SOL    HW251279   1.224   8.042   4.252 -0.3135 -0.4019  1.6600
16109SOL     OW51280   2.453   3.078   3.294 -0.0156  0.9128  0.4060
16109SOL    HW151281   2.532   3.024   3.286 -0.6281  0.1233 -0.4726
16109SOL    HW251282   2.381   3.015   3.302 -0.6747  1.5981  0.0454
16110SOL     OW51283   2.440   4.223   4.726 -0.1082  0.2842  0.5552
16110SOL    HW151284   2.462   4.217   4.632  3.3275  0.8631  1.1719
16110SOL    HW251285   2.394   4.142   4.745 -0.2658 -0.1665 -1.4915
16111SOL     OW51286   4.040   3.100   6.756 -0.1325  0.1468 -0.2147
16111SOL    HW151287   4.067   3.186   6.789 -1.2569  0.3012  0.3507
16111SOL    HW251288   4.035   3.045   6.834  1.2764 -0.6452 -0.6591
16112SOL     OW51289   6.974   2.505   3.027 -0.4820 -0.4554  0.4037
16112SOL    HW151290   6.891   2.492   3.073 -0.0171 -1.4271  0.9985
16112SOL    HW251291   6.985   2.427   2.973  0.6569 -0.9494  1.3122
16113SOL     OW51292   5.394   3.163   5.442  1.0785 -0.0702 -0.1054
16113SOL    HW151293   5.301   3.185   5.437  0.9036 -0.7668 -0.1043
16113SOL    HW251294   5.430   3.194   5.360  1.0908  1.2577  0.3798
16114SOL     OW51295   0.354   0.227   4.836  0.2507  0.6921 -0.1929
16114SOL    HW151296   0.278   0.228   4.777  0.5153 -0.0626 -0.5562
16114SOL    HW251297   0.402   0.307   4.816 -0.3724  1.1070 -0.0571
16115SOL     OW51298   3.169   0.595   6.022 -0.0174 -0.2939 -0.4070
16115SOL    HW151299   3.074   0.608   6.016  0.3500  2.4658 -2.6796
16115SOL    HW251300   3.190   0.546   5.942  0.5646  0.1059 -0.5020
16116SOL     OW51301   2.939   6.240   3.777  0.1166  1.0401  0.6314
16116SOL    HW151302   2.988   6.306   3.729 -0.2109 -0.2824 -1.6672
16116SOL    HW251303   2.850   6.273   3.780 -0.2371  0.3873 -1.2956
16117SOL     OW51304   0.582   1.021   4.253 -0.7174  0.4395 -0.3626
16117SOL    HW151305   0.626   0.971   4.322 -0.0778 -1.6342 -2.1562
16117SOL    HW251306   0.621   1.108   4.258  1.4559 -0.5001  0.0263
16118SOL     OW51307   1.026   7.573   0.037  0.0562 -0.6531  0.4678
16118SOL    HW151308   1.017   7.660   0.075  1.1708 -0.0712 -0.5156
16118SOL    HW251309   1.044   7.516   0.111  0.6994  0.1995  0.9894
16119SOL     OW51310   7.436   4.621   7.983  0.2451 -0.6499 -0.2444
16119SOL    HW151311   7.462   4.539   7.942  0.2379 -1.7144  1.7545
16119SOL    HW251312   7.492   4.629   8.060 -1.8685 -0.4440  1.3912
16120SOL     OW51313   0.266   5.363   7.051  0.1664  0.3962  0.7502
16120SOL    HW151314   0.350   5.407   7.038  0.8459 -1.1994 -0.7849
16120SOL    HW251315   0.219   5.418   7.114  1.3892  2.6191 -0.1545
16121SOL     OW51316   1.843   4.909   4.622  0.1374  0.2131 -0.5420
16121SOL    HW151317   1.929   4.944   4.642 -1.3684  2.9171  1.9342
16121SOL    HW251318   1.799   4.979   4.573 -1.3124 -0.2355  0.0493
16122SOL     OW51319   1.956   8.063   0.511  0.3412  0.7087 -0.5972
16122SOL    HW151320   2.028   8.096   0.564 -0.7176  0.3139  1.1461
16122SOL    HW251321   1.998   8.005   0.448  1.5019  0.0156  0.7631
16123SOL     OW51322   2.881   5.225   6.673  0.2694 -0.2663 -0.3594
16123SOL    HW151323   2.862   5.318   6.683 -0.0314 -0.4329  0.7264
16123SOL    HW251324   2.801   5.190   6.633  0.6272  0.0344 -1.3716
16124SOL     OW51325   2.260   7.147   1.721  0.5505 -0.3235 -0.1428
16124SOL    HW151326   2.244   7.238   1.700 -0.9678 -0.3338  0.7937
16124SOL    HW251327   2.264   7.145   1.817 -1.5009 -1.4804 -0.0094
16125SOL     OW51328   2.923   2.389   0.568  0.3356 -0.0107 -0.1602
16125SOL    HW151329   2.939   2.373   0.661 -0.1867 -0.4137 -0.1352
16125SOL    HW251330   2.960   2.312   0.524  0.8408  0.3156 -0.3117
16126SOL     OW51331   5.893   1.331   5.409  0.3001 -0.1523  0.0056
16126SOL    HW151332   5.949   1.404   5.383  2.1348 -0.7829  1.8921
16126SOL    HW251333   5.948   1.253   5.397  0.2662 -0.7157  2.8508
16127SOL     OW51334   7.309   6.658   2.637 -0.2324  0.8383 -0.1001
16127SOL    HW151335   7.218   6.683   2.617 -0.1577  1.2723  0.1218
16127SOL    HW251336   7.341   6.726   2.695  0.4265  0.9923 -0.6333
16128SOL     OW51337   1.075   5.518   1.595  0.1381  0.4257 -0.4218
16128SOL    HW151338   1.011   5.477   1.654  0.4543  0.1805 -0.2510
16128SOL    HW251339   1.105   5.447   1.539  0.3407  0.5195 -0.4314
16129SOL     OW51340   6.543   6.816   2.629  0.2565  0.5293 -0.4616
16129SOL    HW151341   6.481   6.744   2.636  1.4082 -0.5602 -1.0409
16129SOL    HW251342   6.491   6.895   2.646 -1.3612 -0.2965 -1.3776
16130SOL     OW51343   5.632   4.566   8.095 -0.1334 -0.0555 -0.0789
16130SOL    HW151344   5.699   4.634   8.101  0.1783 -0.2620 -0.9296
16130SOL    HW251345   5.558   4.599   8.145  0.5111  0.2948  0.6641
16131SOL     OW51346   6.910   1.707   6.295  0.1735  0.4444  0.2201
16131SOL    HW151347   6.944   1.795   6.312  1.0776  0.0418  0.5493
16131SOL    HW251348   6.893   1.706   6.201 -1.4049  1.4882  0.4390
16132SOL     OW51349   1.367   7.351   7.537 -0.2943 -0.7424 -0.5484
16132SOL    HW151350   1.383   7.349   7.631  2.2784 -0.5366 -0.9344
16132SOL    HW251351   1.278   7.385   7.529 -0.7180 -1.1135  1.7945
16133SOL     OW51352   1.898   7.117   3.239  0.2450 -0.6550  0.2028
16133SOL    HW151353   1.982   7.104   3.283 -0.5658 -0.1917  1.9899
16133SOL    HW251354   1.904   7.205   3.202  0.9865 -1.0982 -0.7775
16134SOL     OW51355   3.812   5.554   5.865 -0.0049 -0.2941 -0.1683
16134SOL    HW151356   3.875   5.506   5.811 -1.2577 -0.3693 -1.6474
16134SOL    HW251357   3.771   5.486   5.919  0.5453 -0.3831  0.1386
16135SOL     OW51358   7.858   6.170   3.703 -0.2890 -0.3672  0.3018
16135SOL    HW151359   7.856   6.265   3.689  1.5628 -0.1849  1.0112
16135SOL    HW251360   7.828   6.133   3.620  0.1383  0.8328 -0.4176
16136SOL     OW51361   1.476   5.988   1.527  0.4195  0.4510 -0.4478
16136SOL    HW151362   1.519   5.979   1.442  0.6332  0.0977 -0.3025
16136SOL    HW251363   1.539   6.038   1.580  0.6363 -0.0243 -0.2503
16137SOL     OW51364   6.009   7.682   0.049 -0.0982 -1.4271 -0.5478
16137SOL    HW151365   6.012   7.722   0.135 -0.3139 -1.7447 -0.3943
16137SOL    HW251366   6.100   7.687   0.018 -0.4322  0.9892 -1.3742
16138SOL     OW51367   1.227   2.174   7.873  0.1193  0.0246 -0.4348
16138SOL    HW151368   1.179   2.102   7.832 -2.8076  0.8216  1.2933
16138SOL    HW251369   1.242   2.144   7.963  2.2390  0.1400 -0.7144
16139SOL     OW51370   7.105   6.579   1.670 -0.2668 -1.2843  0.2612
16139SOL    HW151371   7.040   6.520   1.631  0.7007 -1.4156 -1.2299
16139SOL    HW251372   7.186   6.528   1.669  0.8147  0.3401 -1.9291
16140SOL     OW51373   7.244   3.682   7.483 -0.0310 -0.1681  0.2027
16140SOL    HW151374   7.178   3.747   7.459  1.1262  1.8083  2.0787
16140SOL    HW251375   7.308   3.687   7.412 -0.5613 -0.1753 -0.2870
16141SOL     OW51376   4.495   0.457   2.564  0.3674 -0.5924  0.7696
16141SOL    HW151377   4.530   0.484   2.479  0.0813 -0.6013  0.6498
16141SOL    HW251378   4.543   0.377   2.585 -0.6635 -1.4712 -0.1162
16142SOL     OW51379   0.914   0.187   6.717 -0.4096  0.4178 -0.2976
16142SOL    HW151380   0.944   0.126   6.649  0.1856 -0.8275  1.0294
16142SOL    HW251381   0.983   0.253   6.722 -0.2984  0.3355 -0.6611
16143SOL     OW51382   0.804   7.022   7.815  0.7371  0.1279  0.2342
16143SOL    HW151383   0.726   6.984   7.776  0.3400 -0.5945  1.6681
16143SOL    HW251384   0.802   7.114   7.788 -0.5604  0.0957  0.1637
16144SOL     OW51385   7.728   5.929   4.598  0.0411 -0.3081  0.3313
16144SOL    HW151386   7.761   5.871   4.666 -1.4142 -0.5457  0.8851
16144SOL    HW251387   7.745   5.882   4.516  1.4542 -0.1956  0.5507
16145SOL     OW51388   3.265   0.840   7.843  0.5318 -0.3071 -0.2150
16145SOL    HW151389   3.171   0.825   7.848  0.4752 -0.0559 -0.4644
16145SOL    HW251390   3.305   0.759   7.875  0.2313 -0.3163  0.1345
16146SOL     OW51391   6.620   4.877   1.257 -0.1157  0.1113  0.0579
16146SOL    HW151392   6.571   4.835   1.186  1.0209 -0.5130 -0.3762
16146SOL    HW251393   6.588   4.834   1.336  0.4733 -1.0542 -0.3180
16147SOL     OW51394   2.741   5.484   0.070  0.4530 -0.3147  0.7052
16147SOL    HW151395   2.769   5.548   0.135 -1.7014  0.9125  0.5147
16147SOL    HW251396   2.726   5.535  -0.009  1.0002 -1.4694 -0.1732
16148SOL     OW51397   3.294   4.975   0.828 -0.1484 -0.5431 -0.1184
16148SOL    HW151398   3.379   4.931   0.825 -0.2053 -0.7111  0.5214
16148SOL    HW251399   3.231   4.905   0.816 -0.1852 -0.3493 -1.0722
16149SOL     OW51400   7.099   5.099   0.288  0.0026  0.1745 -0.2864
16149SOL    HW151401   7.166   5.148   0.240  1.4276 -0.7746  0.6755
16149SOL    HW251402   7.017   5.125   0.246  1.0304  0.6725 -2.1156
16150SOL     OW51403   5.001   4.259   7.315  0.2212  1.0045 -0.2530
16150SOL    HW151404   5.048   4.325   7.262  1.5711 -0.4846 -1.0069
16150SOL    HW251405   4.915   4.254   7.275  0.3669  1.7404 -0.6873
16151SOL     OW51406   3.981   0.059   6.125 -0.8280  0.0241  0.5205
16151SOL    HW151407   3.962   0.015   6.207 -0.2710  0.7163  1.0299
16151SOL    HW251408   4.040   0.131   6.149 -0.8658  0.3909 -0.4411
16152SOL     OW51409   6.440   2.176   6.654 -0.0550  0.4531  0.0782
16152SOL    HW151410   6.377   2.235   6.695 -1.2130  0.1434 -1.2000
16152SOL    HW251411   6.431   2.094   6.702 -1.7940 -0.0767 -1.0557
16153SOL     OW51412   3.166   6.821   3.631 -0.0443  0.3762 -0.3266
16153SOL    HW151413   3.120   6.739   3.614  0.8754 -0.2241  0.0159
16153SOL    HW251414   3.161   6.833   3.726  0.4050  0.3730 -0.3035
16154SOL     OW51415   0.436   6.294   4.210  0.0920 -0.3534 -0.3802
16154SOL    HW151416   0.496   6.267   4.279  0.6061 -0.0067 -0.6846
16154SOL    HW251417   0.349   6.268   4.241  0.3206 -0.2179  0.3771
16155SOL     OW51418   3.691   3.230   7.722  0.0662 -0.0229 -0.6682
16155SOL    HW151419   3.619   3.287   7.695 -1.0762 -1.2726 -0.3883
16155SOL    HW251420   3.759   3.245   7.656  0.2352  2.3756 -0.0420
16156SOL     OW51421   1.360   4.092   7.631 -0.2562 -0.0629  0.0975
16156SOL    HW151422   1.415   4.074   7.555 -0.7193 -1.9080  0.1738
16156SOL    HW251423   1.351   4.188   7.631 -1.0980 -0.0452 -2.7617
16157SOL     OW51424   1.714   2.336   1.703  0.1064 -0.2116 -0.1952
16157SOL    HW151425   1.783   2.349   1.767  0.5232 -2.2920 -0.1398
16157SOL    HW251426   1.635   2.318   1.754 -0.1258  0.5483 -0.2717
16158SOL     OW51427   4.392   1.457   6.816  0.0828 -0.4993  0.4223
16158SOL    HW151428   4.439   1.373   6.816 -1.4067 -1.3630  0.8763
16158SOL    HW251429   4.462   1.523   6.817  1.2922 -1.7143 -0.1650
16159SOL     OW51430   6.412   6.850   0.736 -0.0517 -0.3844 -0.2047
16159SOL    HW151431   6.422   6.868   0.829 -1.9446  2.9417 -0.4856
16159SOL    HW251432   6.469   6.775   0.720  2.1917  0.3638  3.1449
16160SOL     OW51433   0.855   6.355   6.590  0.1417 -0.0953 -0.7401
16160SOL    HW151434   0.842   6.403   6.671  0.3958  1.6941 -1.7120
16160SOL    HW251435   0.799   6.400   6.526 -0.8579 -2.0888 -1.3560
16161SOL     OW51436   3.961   7.667   7.935 -0.0944  0.5422  0.1815
16161SOL    HW151437   3.933   7.600   7.998 -1.0981  0.6507 -0.1310
16161SOL    HW251438   3.978   7.618   7.854  0.9025  0.4445  0.4302
16162SOL     OW51439   4.980   2.641   1.118  0.2567  0.1834 -0.3048
16162SOL    HW151440   4.896   2.613   1.081  1.7542 -1.4282 -2.7892
16162SOL    HW251441   5.003   2.720   1.068  0.3794  0.4296  0.1338
16163SOL     OW51442   7.229   4.981   5.222  0.1337  0.7041  0.3524
16163SOL    HW151443   7.258   4.897   5.187 -3.4924 -0.2971 -0.6963
16163SOL    HW251444   7.200   4.961   5.311 -1.6398  0.5537 -0.2265
16164SOL     OW51445   5.941   4.468   5.456  0.3843  0.4336  0.3018
16164SOL    HW151446   5.983   4.552   5.440  1.3558  0.0157  0.5724
16164SOL    HW251447   5.995   4.405   5.409 -0.6969  0.0307 -0.4129
16165SOL     OW51448   3.029   4.684   1.416  0.0338 -0.6297  0.8449
16165SOL    HW151449   3.098   4.723   1.361 -2.8706  1.6678 -1.5506
16165SOL    HW251450   2.970   4.642   1.354 -2.5801  0.6521  2.2645
16166SOL     OW51451   3.939   2.013   2.760 -0.1853  0.7729 -0.1310
16166SOL    HW151452   3.990   1.935   2.781  0.5569  1.1713 -0.4057
16166SOL    HW251453   3.849   1.990   2.781 -0.0858 -0.4387 -0.9511
16167SOL     OW51454   6.405   8.024   1.089  0.0145 -0.5320 -0.4672
16167SOL    HW151455   6.474   8.087   1.112  1.2550 -1.9546 -0.1057
16167SOL    HW251456   6.388   8.040   0.996  0.4780  0.1659 -0.4399
16168SOL     OW51457   4.535   1.765   7.823  0.6062  0.1214  0.3584
16168SOL    HW151458   4.499   1.828   7.885  0.4873  0.5077 -0.0992
16168SOL    HW251459   4.620   1.801   7.798 -0.4005  1.3003 -1.6306
16169SOL     OW51460   6.065   4.247   4.020 -0.0417  0.1142  0.1419
16169SOL    HW151461   6.072   4.336   4.054  0.6483 -1.2845  4.2336
16169SOL    HW251462   6.149   4.231   3.977  0.6097  0.8361  1.1084
16170SOL     OW51463   7.563   1.931   8.005 -0.1262  0.1848  0.5605
16170SOL    HW151464   7.475   1.960   8.028 -0.6066  1.2274 -2.2955
16170SOL    HW251465   7.556   1.835   8.001 -0.7985  0.1835  1.4986
16171SOL     OW51466   1.746   2.958   7.493  0.0229  0.7268 -0.1635
16171SOL    HW151467   1.762   3.024   7.425 -0.0905  0.3485 -0.5578
16171SOL    HW251468   1.829   2.952   7.541 -0.3583  2.1328  0.7370
16172SOL     OW51469   7.805   5.615   5.476  0.1607  0.5157  0.5374
16172SOL    HW151470   7.850   5.642   5.556 -0.4066  2.2497  0.3034
16172SOL    HW251471   7.736   5.680   5.464  0.4584  0.5022 -1.5623
16173SOL     OW51472   3.954   6.643   7.697 -0.1018 -0.3829  0.5101
16173SOL    HW151473   3.991   6.609   7.615 -0.7533 -2.3015  0.9544
16173SOL    HW251474   4.018   6.616   7.764  0.7938  1.8000  0.6044
16174SOL     OW51475   3.934   5.647   7.614 -0.0759 -0.6837 -0.0486
16174SOL    HW151476   3.879   5.725   7.611  1.7691  0.6563 -0.8224
16174SOL    HW251477   3.932   5.620   7.706  0.0272  0.8746  0.4288
16175SOL     OW51478   6.458   5.262   6.673 -0.5442  0.0414 -0.0484
16175SOL    HW151479   6.490   5.181   6.712 -1.6248  0.4108  1.7050
16175SOL    HW251480   6.528   5.290   6.615  0.8781 -0.8836  1.1618
16176SOL     OW51481   4.167   5.345   4.208 -0.0922 -0.3092  0.4965
16176SOL    HW151482   4.166   5.379   4.297 -1.5104  0.2685  0.2818
16176SOL    HW251483   4.175   5.250   4.218  0.4704 -0.1965  1.1948
16177SOL     OW51484   0.294   1.276   8.031  0.1477 -0.1411 -0.4086
16177SOL    HW151485   0.240   1.348   7.998  0.6424 -0.4201 -1.9259
16177SOL    HW251486   0.382   1.298   8.002  0.1721 -1.7876 -1.7479
16178SOL     OW51487   5.176   3.542   4.536  0.3282  0.0440 -0.1275
16178SOL    HW151488   5.177   3.449   4.560 -0.8607  0.2337  0.7760
16178SOL    HW251489   5.234   3.583   4.601 -0.8264  0.1945  0.8568
16179SOL     OW51490   3.343   7.280   3.698 -0.0609  0.1456 -0.2832
16179SOL    HW151491   3.262   7.294   3.649 -0.1832 -0.4813 -0.2734
16179SOL    HW251492   3.353   7.185   3.700 -0.0629  0.1623  0.9136
16180SOL     OW51493   1.938   7.165   5.361 -0.2715  0.2208 -0.2636
16180SOL    HW151494   1.955   7.092   5.300 -0.0990  0.6567 -0.7436
16180SOL    HW251495   1.911   7.122   5.442 -1.9481 -0.3557 -1.0734
16181SOL     OW51496   5.247   6.106   7.237  0.3308  0.4220  0.3997
16181SOL    HW151497   5.275   6.105   7.328  1.4731  1.8026  0.1152
16181SOL    HW251498   5.321   6.069   7.189  0.1665  0.6719 -0.0523
16182SOL     OW51499   4.002   6.026   4.015  0.0533 -0.1786 -0.2810
16182SOL    HW151500   4.011   5.936   3.984  0.5566 -0.3280  0.2796
16182SOL    HW251501   3.967   6.018   4.104 -0.6231  0.2124 -0.5056
16183SOL     OW51502   3.685   6.510   7.651 -0.2856  0.2038  0.1689
16183SOL    HW151503   3.735   6.576   7.699  0.2694 -0.7980  1.0263
16183SOL    HW251504   3.752   6.456   7.608 -0.5483 -1.3866  1.6382
16184SOL     OW51505   7.153   7.194   5.273 -0.2781  0.2238 -0.3374
16184SOL    HW151506   7.126   7.285   5.282 -0.5373 -0.0242  2.2680
16184SOL    HW251507   7.230   7.186   5.329 -0.4044 -1.2059 -0.3107
16185SOL     OW51508   4.456   5.433   7.046  0.3599  0.0601  0.2859
16185SOL    HW151509   4.455   5.388   7.130  1.4558  0.6829  0.6618
16185SOL    HW251510   4.500   5.372   6.987  0.4378  0.0046  0.4003
16186SOL     OW51511   2.889   5.829   7.443 -0.1983  0.5130 -0.0632
16186SOL    HW151512   2.869   5.797   7.531  1.6129  0.5511  0.4065
16186SOL    HW251513   2.824   5.897   7.427 -1.3565 -0.3773  0.7185
16187SOL     OW51514   6.611   6.128   3.250  0.1547  0.5301  0.0704
16187SOL    HW151515   6.528   6.107   3.206 -0.5924 -0.4638  1.8668
16187SOL    HW251516   6.634   6.048   3.297  2.2709  0.7351 -0.5385
16188SOL     OW51517   0.913   2.069   0.483 -0.2617 -0.6823 -0.1948
16188SOL    HW151518   0.850   1.997   0.487 -0.3901 -0.5285  1.4113
16188SOL    HW251519   0.915   2.103   0.572  0.6344  0.5905 -0.6762
16189SOL     OW51520   6.760   1.342   7.725 -0.3139 -0.2532 -0.3422
16189SOL    HW151521   6.854   1.338   7.707 -0.4264 -0.0541 -1.0081
16189SOL    HW251522   6.739   1.435   7.722 -0.2340 -0.1440  1.4729
16190SOL     OW51523   2.044   3.603   1.777 -0.0278 -0.0456  0.0782
16190SOL    HW151524   2.005   3.681   1.816 -0.4001  0.1003 -0.5788
16190SOL    HW251525   2.092   3.635   1.700  1.8323 -0.1405  1.1343
16191SOL     OW51526   2.665   7.351   4.573  0.7423  0.5060 -0.8230
16191SOL    HW151527   2.632   7.393   4.652 -0.3149 -0.9993 -0.4086
16191SOL    HW251528   2.598   7.368   4.506  1.6362  1.7840 -1.4466
16192SOL     OW51529   6.350   0.429   0.109  0.1525  0.3971  0.1168
16192SOL    HW151530   6.414   0.490   0.144  0.8083  0.3056 -0.8850
16192SOL    HW251531   6.308   0.476   0.038 -0.8733  0.4348  0.7274
16193SOL     OW51532   6.183   2.851   3.788  0.1665 -0.5246  0.0408
16193SOL    HW151533   6.148   2.939   3.775  0.3726 -0.1695  1.7284
16193SOL    HW251534   6.175   2.835   3.882  2.1243 -1.4603  0.0972
16194SOL     OW51535   7.325   1.460   0.645  0.5141  0.3013 -0.1288
16194SOL    HW151536   7.267   1.447   0.720 -1.2539  1.2514 -1.2730
16194SOL    HW251537   7.343   1.372   0.613  2.0625 -0.2058  1.8806
16195SOL     OW51538   0.184   5.247   4.285 -0.3371  0.5205  0.2697
16195SOL    HW151539   0.234   5.215   4.360  2.0243 -0.1158 -1.4443
16195SOL    HW251540   0.170   5.340   4.303 -2.0986 -0.0960  2.6078
16196SOL     OW51541   3.941   1.492   5.946 -0.6098  0.2249  0.1363
16196SOL    HW151542   3.950   1.516   5.854 -1.7203 -0.3955 -0.1640
16196SOL    HW251543   4.030   1.471   5.974 -0.1150  1.3876 -0.5070
16197SOL     OW51544   6.288   6.978   3.287  0.3401 -0.7938 -0.5291
16197SOL    HW151545   6.360   6.948   3.343  1.8216  3.9923  0.6296
16197SOL    HW251546   6.216   6.994   3.347 -0.1375 -1.2150 -0.9781
16198SOL     OW51547   5.132   3.178   5.320  0.0678 -0.0485  0.0468
16198SOL    HW151548   5.082   3.143   5.394 -1.0400 -0.6004 -0.9156
16198SOL    HW251549   5.119   3.113   5.251  0.2001  0.9622 -0.9478
16199SOL     OW51550   3.523   6.270   0.911 -0.7229 -0.1889 -0.1073
16199SOL    HW151551   3.508   6.357   0.873 -0.0541 -0.8504 -2.0009
16199SOL    HW251552   3.600   6.281   0.966 -0.1467  0.2688 -0.9748
16200SOL     OW51553   0.544   4.012   6.342  0.0078  0.2814 -0.2650
16200SOL    HW151554   0.543   4.047   6.253 -3.8991  0.6168 -0.2276
16200SOL    HW251555   0.636   3.990   6.358  1.0764  1.5991 -3.7896
16201SOL     OW51556   1.123   0.792   0.380 -0.8785 -0.4830  0.5489
16201SOL    HW151557   1.083   0.817   0.296 -1.0581 -0.0011  0.7720
16201SOL    HW251558   1.057   0.815   0.445  0.7941  3.1773  1.2208
16202SOL     OW51559   7.618   6.370   3.385 -0.2476  0.1686  0.0636
16202SOL    HW151560   7.672   6.408   3.454  2.8125 -2.3675 -0.6688
16202SOL    HW251561   7.651   6.408   3.304 -0.2322 -0.6611 -0.3361
16203SOL     OW51562   2.872   1.315   4.791 -0.3692  0.1653 -0.1605
16203SOL    HW151563   2.783   1.301   4.822 -0.4558 -0.8122 -0.8070
16203SOL    HW251564   2.914   1.367   4.860 -1.7784  1.6843 -0.4084
16204SOL     OW51565   4.236   3.753   6.553  0.4146  0.4539 -0.1778
16204SOL    HW151566   4.162   3.770   6.611  1.8725  2.5723  1.2231
16204SOL    HW251567   4.306   3.724   6.611  1.6447  1.7079 -0.9671
16205SOL     OW51568   0.008   6.222   7.419 -0.2604 -0.1283 -0.2008
16205SOL    HW151569   0.029   6.292   7.480 -0.3952 -0.3432  0.0972
16205SOL    HW251570  -0.043   6.264   7.350 -1.2961 -0.1325  0.5449
16206SOL     OW51571   2.351   6.109   8.117  0.4714  0.0464 -0.4544
16206SOL    HW151572   2.334   6.015   8.123  2.0379 -0.2905 -0.9173
16206SOL    HW251573   2.316   6.145   8.199 -1.5376 -0.6860 -0.9389
16207SOL     OW51574   4.963   3.131   0.270 -0.0266  0.1734 -0.6933
16207SOL    HW151575   4.933   3.186   0.198  0.8774  0.7872 -0.6153
16207SOL    HW251576   4.984   3.047   0.228  2.5578  1.1678 -1.5932
16208SOL     OW51577   4.802   1.345   7.906  0.7463  0.4141 -0.6417
16208SOL    HW151578   4.867   1.341   7.977  0.2335  1.4151 -0.1008
16208SOL    HW251579   4.798   1.255   7.874 -0.1148 -0.4412  1.6221
16209SOL     OW51580   5.985   5.193   7.421 -0.0793  0.1096  0.4499
16209SOL    HW151581   6.041   5.152   7.487  0.0842  0.9890  0.8680
16209SOL    HW251582   5.937   5.120   7.382 -0.5948 -0.3706  1.9367
16210SOL     OW51583   7.383   3.498   5.442  0.2229 -0.6248 -0.5342
16210SOL    HW151584   7.388   3.441   5.519 -1.5144 -0.7326 -0.4732
16210SOL    HW251585   7.465   3.548   5.445 -0.0729 -0.1481  1.7765
16211SOL     OW51586   7.692   4.403   5.664 -0.4165 -0.4352  0.0353
16211SOL    HW151587   7.688   4.311   5.639 -0.7161 -0.6717  0.9092
16211SOL    HW251588   7.785   4.425   5.660 -0.4796 -0.3489 -1.6106
16212SOL     OW51589   2.251   2.623   2.480 -0.1831 -0.2992  0.1914
16212SOL    HW151590   2.345   2.638   2.467 -0.7545  4.3234 -0.2648
16212SOL    HW251591   2.236   2.644   2.572 -0.8604 -0.3750  0.1020
16213SOL     OW51592   1.022   4.167   2.346 -0.1097 -0.1714 -0.4368
16213SOL    HW151593   0.981   4.134   2.425 -0.7431  0.2589 -0.5736
16213SOL    HW251594   0.981   4.117   2.275 -0.6974  0.5273 -0.6037
16214SOL     OW51595   5.750   7.232   6.503  0.0065 -0.4632 -0.0632
16214SOL    HW151596   5.726   7.307   6.449 -1.0651  0.7550  1.9907
16214SOL    HW251597   5.673   7.214   6.556  1.7653  0.1548  2.9649
16215SOL     OW51598   5.412   4.654   2.842 -0.2748 -0.1786  1.0246
16215SOL    HW151599   5.346   4.613   2.786  0.7003  0.1146 -0.4100
16215SOL    HW251600   5.411   4.747   2.816  1.9155 -0.4723 -0.3836
16216SOL     OW51601   1.712   0.430   6.300  0.1347 -0.5195 -0.1876
16216SOL    HW151602   1.629   0.432   6.350  0.7074  1.6025  0.8066
16216SOL    HW251603   1.777   0.400   6.364  0.2940 -1.2807 -0.7029
16217SOL     OW51604   7.587   2.586   7.035  0.3187  0.1152 -0.5300
16217SOL    HW151605   7.578   2.646   6.961 -0.5100 -1.1541 -1.5016
16217SOL    HW251606   7.568   2.639   7.112  1.5102  1.5452 -1.1657
16218SOL     OW51607   4.354   1.763   3.680  0.0458  0.4533  0.0987
16218SOL    HW151608   4.277   1.722   3.640  1.8971 -1.5006 -1.7502
16218SOL    HW251609   4.363   1.719   3.764 -1.0247  0.9534  0.4915
16219SOL     OW51610   0.452   5.194   3.578 -0.5108  0.1937 -0.1153
16219SOL    HW151611   0.419   5.192   3.668  0.6257  0.0023  0.3159
16219SOL    HW251612   0.384   5.150   3.527 -1.7628  1.4016  0.4210
16220SOL     OW51613   6.603   3.733   0.771 -0.1406  0.4186  0.1773
16220SOL    HW151614   6.529   3.758   0.716  1.0302  2.2437 -0.6991
16220SOL    HW251615   6.624   3.643   0.744 -1.1842  0.3768 -0.5422
16221SOL     OW51616   4.013   2.741   0.987 -0.2776  0.7540 -0.1213
16221SOL    HW151617   4.093   2.720   1.036 -0.1154 -0.1238 -0.7443
16221SOL    HW251618   3.991   2.830   1.015  0.1044  0.4738  1.1493
16222SOL     OW51619   4.346   1.486   4.668  0.0136 -0.1020  0.0563
16222SOL    HW151620   4.413   1.458   4.607  0.1050 -0.7903  0.4641
16222SOL    HW251621   4.377   1.456   4.754 -0.4222  0.2793  0.3554
16223SOL     OW51622   2.772   7.108   5.524  0.3359  0.3442 -0.4056
16223SOL    HW151623   2.825   7.131   5.601  1.1546 -1.7840 -0.2892
16223SOL    HW251624   2.835   7.071   5.462 -0.8249 -1.1281 -0.7436
16224SOL     OW51625   0.867   2.558   0.173  0.5905  0.1269 -0.6032
16224SOL    HW151626   0.849   2.509   0.254  0.2028  0.3309 -0.5665
16224SOL    HW251627   0.813   2.637   0.180  1.1986  0.5546 -0.6709
16225SOL     OW51628   4.810   4.704   1.409  0.1712  0.5366 -0.2431
16225SOL    HW151629   4.720   4.717   1.378 -0.3711  0.9741  1.4354
16225SOL    HW251630   4.806   4.624   1.461  0.6384  0.8508  0.2792
16226SOL     OW51631   4.343   0.202   6.945  0.1442  0.0696  0.1521
16226SOL    HW151632   4.349   0.297   6.939  0.5237 -0.0349 -1.3470
16226SOL    HW251633   4.260   0.186   6.990 -0.0911  1.0993  0.1015
16227SOL     OW51634   3.015   0.882   6.150 -0.3069  0.7853 -0.4990
16227SOL    HW151635   2.922   0.874   6.130 -0.4073  0.2121  0.1703
16227SOL    HW251636   3.045   0.954   6.095 -0.7983 -0.0390 -1.9165
16228SOL     OW51637   3.967   6.148   0.653 -0.4874 -0.6175 -0.3107
16228SOL    HW151638   3.893   6.088   0.645 -0.7135 -0.4154  0.1798
16228SOL    HW251639   3.934   6.231   0.619 -1.4690  0.2574  2.4491
16229SOL     OW51640   3.647   1.108   4.551 -0.0293  0.8105  0.4235
16229SOL    HW151641   3.715   1.106   4.484 -0.5341 -0.1429 -0.0738
16229SOL    HW251642   3.611   1.197   4.545  1.0157  1.2514  0.5502
16230SOL     OW51643   6.109   4.225   7.694 -1.1047 -0.1413  0.0083
16230SOL    HW151644   6.192   4.193   7.728 -0.2848 -0.5660 -2.2618
16230SOL    HW251645   6.129   4.310   7.656 -1.7246 -0.1958 -0.4656
16231SOL     OW51646   6.264   1.356   7.082 -0.4592  0.6442 -0.4055
16231SOL    HW151647   6.249   1.397   7.167 -0.9681 -3.5026  1.7378
16231SOL    HW251648   6.359   1.347   7.076 -0.4324  0.7459 -0.1646
16232SOL     OW51649   1.283   0.288   1.700 -0.1325 -0.2456  0.4126
16232SOL    HW151650   1.242   0.374   1.692 -1.3116 -0.7657  0.5893
16232SOL    HW251651   1.377   0.305   1.702 -0.2957  0.9199 -0.9339
16233SOL     OW51652   5.445   4.215   3.341 -0.0422 -0.1195 -0.0113
16233SOL    HW151653   5.365   4.166   3.361 -0.7196  0.1984 -1.6936
16233SOL    HW251654   5.413   4.298   3.304  1.0672  0.0524 -0.6236
16234SOL     OW51655   1.119   1.474   1.567 -0.2587 -0.4832 -0.2496
16234SOL    HW151656   1.191   1.527   1.601 -1.2393  0.5145  0.3321
16234SOL    HW251657   1.117   1.397   1.624 -0.3024 -0.0186  0.3855
16235SOL     OW51658   4.777   1.590   7.804 -0.0819  0.6899  0.1838
16235SOL    HW151659   4.684   1.572   7.789 -0.3130  2.0202 -0.1419
16235SOL    HW251660   4.807   1.518   7.859 -0.9257 -0.5872 -0.9651
16236SOL     OW51661   4.879   2.979   1.187 -0.4319 -0.5518 -0.1465
16236SOL    HW151662   4.931   2.972   1.267 -0.7572  1.8065  0.3528
16236SOL    HW251663   4.941   3.010   1.121 -0.0089 -3.1418 -1.0489
16237SOL     OW51664   0.070   4.210   6.383  0.8124  0.4517 -0.5926
16237SOL    HW151665  -0.009   4.260   6.359 -0.8037 -1.2520  0.8693
16237SOL    HW251666   0.075   4.141   6.316  0.1990 -0.2815  0.0942
16238SOL     OW51667   3.399   7.619   8.002 -0.2355 -0.7739 -0.2504
16238SOL    HW151668   3.436   7.621   8.090  0.0920 -2.1122 -0.3386
16238SOL    HW251669   3.453   7.556   7.954 -1.5609 -1.4833 -0.8662
16239SOL     OW51670   4.854   2.120   5.073 -0.2121 -0.3474 -0.3398
16239SOL    HW151671   4.838   2.186   5.006  0.1005 -0.9157 -0.9864
16239SOL    HW251672   4.781   2.059   5.066 -0.4381 -0.1374  0.1723
16240SOL     OW51673   2.414   5.259   1.884 -0.6681  0.5089  0.1819
16240SOL    HW151674   2.493   5.284   1.933  0.0027 -0.7941 -0.1922
16240SOL    HW251675   2.361   5.210   1.947 -0.5980  0.3037  0.0813
16241SOL     OW51676   1.622   6.333   5.320 -0.3721  0.3801  0.1775
16241SOL    HW151677   1.533   6.317   5.288 -0.4148 -0.4622  0.6752
16241SOL    HW251678   1.638   6.262   5.382  0.5853  0.6286  0.2305
16242SOL     OW51679   6.648   6.412   4.492 -0.1745 -0.2690 -0.2036
16242SOL    HW151680   6.604   6.496   4.504 -2.0094 -1.0568 -0.9605
16242SOL    HW251681   6.588   6.362   4.437  0.6491 -2.2471  0.6136
16243SOL     OW51682   6.261   6.668   3.781 -0.3283 -0.7798 -0.2235
16243SOL    HW151683   6.183   6.679   3.727 -0.6123  0.6375  0.4340
16243SOL    HW251684   6.235   6.701   3.867  0.8925 -0.6272  0.0985
16244SOL     OW51685   0.552   1.843   0.814  0.1043 -0.1599  0.1603
16244SOL    HW151686   0.458   1.836   0.797  0.3526 -0.5524 -1.1998
16244SOL    HW251687   0.582   1.752   0.814  0.5974  0.0026 -0.1503
16245SOL     OW51688   5.088   3.193   3.044  0.4015  0.2219 -0.2379
16245SOL    HW151689   5.057   3.281   3.019  1.0575  0.7001  0.5740
16245SOL    HW251690   5.066   3.185   3.136  0.4662 -0.4160 -0.2772
16246SOL     OW51691   5.949   7.284   2.390 -0.5314  0.1002 -0.5672
16246SOL    HW151692   5.870   7.288   2.336 -1.3598 -0.7601  0.5271
16246SOL    HW251693   6.013   7.337   2.343 -1.7570  0.8218 -1.4813
16247SOL     OW51694   3.946   5.312   4.517 -0.0744  0.1081  0.4687
16247SOL    HW151695   3.894   5.346   4.444 -0.0027  0.5777  0.6309
16247SOL    HW251696   4.018   5.374   4.526 -0.0111 -0.0202  0.8557
16248SOL     OW51697   6.815   3.402   7.763 -0.1515  0.3682 -0.5546
16248SOL    HW151698   6.801   3.428   7.854 -1.7142  0.8861 -0.9114
16248SOL    HW251699   6.910   3.407   7.751  0.0657  0.3894  1.0092
16249SOL     OW51700   4.734   5.256   4.457 -0.1260 -0.1708 -0.0798
16249SOL    HW151701   4.724   5.310   4.536 -1.9537  0.9114 -0.9873
16249SOL    HW251702   4.806   5.196   4.478 -1.2896 -0.7106  2.8361
16250SOL     OW51703   5.448   4.811   1.900 -0.3604  0.0405 -0.2382
16250SOL    HW151704   5.492   4.895   1.897  1.0570 -0.6117  1.2661
16250SOL    HW251705   5.373   4.822   1.840  1.0849  1.5729 -1.9050
16251SOL     OW51706   5.084   0.967   2.833  0.6330  0.2411 -0.1669
16251SOL    HW151707   5.054   0.905   2.900  0.7750  0.0820 -0.2475
16251SOL    HW251708   5.165   0.927   2.800 -0.0253 -0.2434 -1.2169
16252SOL     OW51709   6.407   5.319   2.430  0.2392 -0.1766  0.1346
16252SOL    HW151710   6.360   5.257   2.486 -0.6452  0.1078 -0.2811
16252SOL    HW251711   6.350   5.396   2.426  1.4801  0.8248  0.9275
16253SOL     OW51712   1.795   6.007   2.381  0.5348 -0.1934 -0.1230
16253SOL    HW151713   1.776   5.968   2.466  1.1299 -0.8984 -0.3049
16253SOL    HW251714   1.891   6.016   2.380  0.3667  2.8085  0.5822
16254SOL     OW51715   8.088   5.533   4.961 -0.3615 -0.3728  0.0425
16254SOL    HW151716   8.094   5.588   5.039  1.4653  0.4613 -0.6186
16254SOL    HW251717   8.173   5.542   4.919 -0.1459 -3.3703 -0.3812
16255SOL     OW51718   6.212   0.427   0.341 -0.2145  0.3520 -0.0207
16255SOL    HW151719   6.270   0.444   0.416 -0.1633 -1.2854  0.3320
16255SOL    HW251720   6.269   0.391   0.274 -0.6690 -0.5096  0.0417
16256SOL     OW51721   0.984   2.186   1.874  0.1211 -0.1967 -0.7052
16256SOL    HW151722   1.045   2.169   1.945 -1.1987 -0.0962  0.4948
16256SOL    HW251723   1.027   2.252   1.820  0.3310  1.2406  1.1202
16257SOL     OW51724   1.233   0.624   0.911 -0.2494  0.0321 -0.1991
16257SOL    HW151725   1.159   0.626   0.972  0.8101  0.0846  1.1171
16257SOL    HW251726   1.290   0.695   0.940  0.0342  0.4149 -1.6001
16258SOL     OW51727   1.588   7.096   5.362 -0.4128  0.1311 -0.0637
16258SOL    HW151728   1.582   7.092   5.458 -0.1380  0.2407 -0.0408
16258SOL    HW251729   1.533   7.170   5.338  0.6522  1.0282  0.1317
16259SOL     OW51730   8.009   3.908   1.360  0.2599  0.8763  0.0851
16259SOL    HW151731   7.942   3.907   1.428  0.0607  1.4393 -0.1047
16259SOL    HW251732   8.053   3.823   1.370 -0.1456  0.7111  0.5347
16260SOL     OW51733   0.580   1.603   2.585 -0.5645  0.3914 -0.1012
16260SOL    HW151734   0.627   1.558   2.656  0.5284  1.1695 -0.3138
16260SOL    HW251735   0.572   1.693   2.616 -0.2331  0.6965 -0.8963
16261SOL     OW51736   1.153   2.444   6.014 -0.4612  0.1119 -0.4716
16261SOL    HW151737   1.203   2.414   6.090 -0.5935  2.1941  0.5169
16261SOL    HW251738   1.072   2.394   6.018  0.7457 -2.0355 -1.0843
16262SOL     OW51739   4.053   3.529   1.251  0.0533  0.2012 -0.0619
16262SOL    HW151740   4.085   3.511   1.339  1.0055 -0.3608 -0.5062
16262SOL    HW251741   4.085   3.617   1.231 -1.4054  0.9240  0.6905
16263SOL     OW51742   1.161   5.600   3.488 -0.2470 -0.2050  0.4352
16263SOL    HW151743   1.245   5.599   3.443 -0.5241  1.6094 -0.2244
16263SOL    HW251744   1.179   5.642   3.572 -0.4212 -0.2207  0.4808
16264SOL     OW51745   3.560   1.146   5.783  0.3752 -0.3388 -0.1283
16264SOL    HW151746   3.619   1.098   5.841  1.5080  0.9034 -0.2035
16264SOL    HW251747   3.616   1.212   5.742 -0.7783 -0.0693 -1.3195
16265SOL     OW51748   6.952   3.521   3.488  0.0655 -0.4737  0.5184
16265SOL    HW151749   6.860   3.497   3.489 -0.1455  0.3096  1.0175
16265SOL    HW251750   6.989   3.483   3.568  0.0563 -0.3431  0.5850
16266SOL     OW51751   6.788   2.114   4.472  0.4527  0.3943  0.2805
16266SOL    HW151752   6.834   2.106   4.556  0.0718  0.4207  0.4968
16266SOL    HW251753   6.820   2.040   4.421 -0.0176 -0.1892  0.8026
16267SOL     OW51754   7.018   0.836   1.684  0.1842  0.4871 -0.1934
16267SOL    HW151755   7.017   0.757   1.739 -0.5677  0.7577  0.2018
16267SOL    HW251756   7.043   0.804   1.597  2.8576  0.2556  0.5601
16268SOL     OW51757   2.858   0.826   5.894 -0.0556  0.6984 -0.0965
16268SOL    HW151758   2.912   0.857   5.822 -1.0856  0.4054 -1.0247
16268SOL    HW251759   2.840   0.735   5.873 -0.9591  0.8112  0.1521
16269SOL     OW51760   5.295   6.940   2.361  0.0165  0.6104  0.6421
16269SOL    HW151761   5.343   6.919   2.442 -0.8066  0.8377  1.2046
16269SOL    HW251762   5.332   7.023   2.332 -0.5704  1.1996  1.5213
16270SOL     OW51763   6.022   2.412   6.140 -0.3270 -0.8569  0.2647
16270SOL    HW151764   6.092   2.351   6.161  0.3842  0.4278  1.8671
16270SOL    HW251765   5.943   2.358   6.138  0.2410 -1.8258  1.9035
16271SOL     OW51766   2.536   7.116   2.817  0.1511 -0.0893 -0.2825
16271SOL    HW151767   2.567   7.206   2.827  0.2226  0.0623 -1.7677
16271SOL    HW251768   2.515   7.089   2.907  1.9136  0.7391  0.4409
16272SOL     OW51769   0.529   3.635   6.216 -0.6498  0.5262  0.2981
16272SOL    HW151770   0.440   3.671   6.217 -1.3322 -1.0721  0.8955
16272SOL    HW251771   0.546   3.617   6.123 -2.1046 -1.7455  0.3997
16273SOL     OW51772   5.491   4.265   2.617 -0.5255 -0.1171 -0.0058
16273SOL    HW151773   5.532   4.201   2.559 -0.9014  0.0375 -0.4490
16273SOL    HW251774   5.538   4.346   2.601 -0.0787 -0.2635  0.5238
16274SOL     OW51775   1.860   4.268   4.441  0.0279  0.5511  0.4733
16274SOL    HW151776   1.832   4.307   4.358  1.8153 -1.0353 -0.9738
16274SOL    HW251777   1.836   4.333   4.508 -0.6730  2.2718 -1.3496
16275SOL     OW51778   6.822   4.209   7.677  0.3577 -0.0562  0.0348
16275SOL    HW151779   6.832   4.265   7.599 -0.9240  1.0708  0.6252
16275SOL    HW251780   6.765   4.138   7.648 -0.6041  0.6832  0.0723
16276SOL     OW51781   4.872   3.221   4.050  0.1646 -0.0342 -0.7211
16276SOL    HW151782   4.869   3.313   4.026  0.4125  0.0424 -0.4613
16276SOL    HW251783   4.893   3.221   4.143 -1.2487 -0.3066 -0.3743
16277SOL     OW51784   0.672   6.620   0.515  0.4667  0.8485 -0.0517
16277SOL    HW151785   0.737   6.651   0.453 -0.8313 -1.2897 -2.6762
16277SOL    HW251786   0.588   6.648   0.478 -0.5480 -2.8606 -0.9343
16278SOL     OW51787   5.473   2.873   1.146  0.1305 -0.3974  0.4012
16278SOL    HW151788   5.449   2.799   1.092  0.0269  0.4293 -0.7175
16278SOL    HW251789   5.415   2.944   1.118  1.1406  0.4923  0.4853
16279SOL     OW51790   4.168   7.479   1.292  0.0664  0.0539  0.4865
16279SOL    HW151791   4.241   7.539   1.304  1.3596 -1.5786  1.2719
16279SOL    HW251792   4.100   7.512   1.350  1.1542  0.1755  1.7451
16280SOL     OW51793   1.424   6.458   1.721  0.4605 -0.5489 -0.0068
16280SOL    HW151794   1.461   6.454   1.633  2.1921 -0.1573  0.6588
16280SOL    HW251795   1.411   6.551   1.738 -1.9015 -0.7158 -0.6068
16281SOL     OW51796   3.877   4.590   0.100  0.0931  0.2766 -0.0659
16281SOL    HW151797   3.855   4.570   0.191  0.1534  1.8568  0.3262
16281SOL    HW251798   3.891   4.505   0.059 -2.1509 -0.5990  0.8207
16282SOL     OW51799   7.540   4.289   6.345  0.0854 -0.2819  0.2654
16282SOL    HW151800   7.526   4.232   6.270  0.0357 -1.2485  0.9858
16282SOL    HW251801   7.616   4.342   6.321  1.2247 -1.8384  0.2293
16283SOL     OW51802   1.716   3.048   4.874 -0.2243  0.0760 -0.3528
16283SOL    HW151803   1.696   3.080   4.962  2.0126 -1.0372  0.6636
16283SOL    HW251804   1.733   3.127   4.823 -0.1495  0.6990  0.6015
16284SOL     OW51805   1.716   3.144   2.333 -0.0987 -0.0167 -0.0081
16284SOL    HW151806   1.777   3.072   2.347  3.4583  2.7106  0.0184
16284SOL    HW251807   1.755   3.195   2.261 -1.8451  2.4220  0.6352
16285SOL     OW51808   4.078   2.743   4.076  0.0288 -0.1617 -1.0774
16285SOL    HW151809   3.992   2.730   4.115 -0.0148  0.9460 -0.7855
16285SOL    HW251810   4.065   2.725   3.983 -0.1893 -1.3606 -0.8411
16286SOL     OW51811   4.172   3.375   2.583  0.4639  0.0322  0.4685
16286SOL    HW151812   4.171   3.312   2.511  0.2188  2.0083 -1.3876
16286SOL    HW251813   4.239   3.343   2.643 -0.1701 -2.3326 -0.0061
16287SOL     OW51814   8.088   7.564   4.836  0.1691  0.1706 -0.0520
16287SOL    HW151815   8.119   7.577   4.746  0.4063  2.3879  0.2958
16287SOL    HW251816   8.152   7.504   4.874  1.5545  1.2070 -0.6456
16288SOL     OW51817   7.271   2.915   4.735  0.4993  0.0074  0.6489
16288SOL    HW151818   7.209   2.850   4.768 -0.4572  1.7463  2.4771
16288SOL    HW251819   7.347   2.908   4.792  1.6345 -1.3868 -0.9311
16289SOL     OW51820   2.903   6.108   5.813 -0.6154  0.8879 -0.3645
16289SOL    HW151821   2.962   6.184   5.812 -1.6272  2.0192  4.1337
16289SOL    HW251822   2.955   6.038   5.852 -1.4653  1.2382  1.4976
16290SOL     OW51823   4.946   4.597   0.232  0.4350 -0.6574  0.1306
16290SOL    HW151824   4.858   4.601   0.271  0.4895  0.0243  0.1907
16290SOL    HW251825   4.990   4.526   0.279 -0.3332 -1.5356 -0.4328
16291SOL     OW51826   4.035   5.800   4.229  0.6340  0.5608  0.0591
16291SOL    HW151827   3.965   5.798   4.295  0.3155  0.7396 -0.2757
16291SOL    HW251828   4.005   5.742   4.160  0.2313  1.6216 -0.6741
16292SOL     OW51829   6.336   4.761   4.676 -0.0564  0.4544  0.2898
16292SOL    HW151830   6.266   4.768   4.611  0.2468 -0.7841 -0.1980
16292SOL    HW251831   6.413   4.800   4.633  0.0467 -0.0034  0.0615
16293SOL     OW51832   2.196   4.348   0.691  0.3939 -0.5985  0.4109
16293SOL    HW151833   2.288   4.365   0.710  0.3040 -0.0370  0.3671
16293SOL    HW251834   2.151   4.431   0.710  0.0751 -0.5000 -0.6912
16294SOL     OW51835   6.988   5.971   5.671 -0.0348  0.0295  0.2047
16294SOL    HW151836   6.991   5.923   5.754 -0.3077 -0.2093  0.0807
16294SOL    HW251837   6.987   5.902   5.604 -2.2239  0.1377  0.0543
16295SOL     OW51838   5.117   1.025   6.377  0.4222 -0.5749 -0.1342
16295SOL    HW151839   5.179   1.049   6.308  0.5173 -1.1422 -0.2560
16295SOL    HW251840   5.045   0.983   6.330  0.9454 -1.8826  0.1784
16296SOL     OW51841   7.617   7.815   0.727  0.5697 -0.2319 -0.5707
16296SOL    HW151842   7.523   7.831   0.736  0.7108  0.9859 -1.0829
16296SOL    HW251843   7.648   7.887   0.672  1.7463 -0.8162 -0.6913
16297SOL     OW51844   2.512   3.206   3.601  0.3872 -0.4892 -0.2987
16297SOL    HW151845   2.441   3.180   3.542  0.1718 -0.6728  0.0389
16297SOL    HW251846   2.470   3.217   3.686  1.1299 -2.9877  0.4960
16298SOL     OW51847   2.498   4.738   0.333 -1.4653 -0.0206 -0.0478
16298SOL    HW151848   2.528   4.814   0.383 -0.0134 -1.0133  0.6662
16298SOL    HW251849   2.545   4.664   0.371 -2.9298 -1.3213 -0.6389
16299SOL     OW51850   1.216   2.746   0.701  0.2604  0.3023 -0.6817
16299SOL    HW151851   1.251   2.686   0.767 -1.7789 -1.3571 -1.0023
16299SOL    HW251852   1.142   2.789   0.743 -1.0814 -0.7921 -1.8283
16300SOL     OW51853   7.135   0.458   6.511  0.0285  0.1335  0.6677
16300SOL    HW151854   7.047   0.434   6.540 -0.1343  1.2348  1.1659
16300SOL    HW251855   7.121   0.507   6.430  0.2512 -0.3167  0.3507
16301SOL     OW51856   5.829   1.503   1.245 -0.0874  0.6660  0.4435
16301SOL    HW151857   5.839   1.591   1.208  0.7768  0.2561 -0.3513
16301SOL    HW251858   5.735   1.487   1.244 -0.1419  0.9659 -0.9180
16302SOL     OW51859   5.404   7.337   1.310 -0.1363 -0.0710  0.6843
16302SOL    HW151860   5.470   7.349   1.378 -0.5452  0.5585  0.9776
16302SOL    HW251861   5.323   7.372   1.348 -0.7727 -1.2810  0.5232
16303SOL     OW51862   5.113   7.446   4.527 -0.3972  0.2089  0.7329
16303SOL    HW151863   5.093   7.491   4.609 -2.2900  0.0075  0.4338
16303SOL    HW251864   5.133   7.356   4.553 -0.5778  0.2480  1.0089
16304SOL     OW51865   0.327   2.589   6.398 -0.2639  0.0073  0.6214
16304SOL    HW151866   0.393   2.591   6.468  0.1065 -1.2072  0.3364
16304SOL    HW251867   0.378   2.584   6.317 -0.6808 -1.0193  0.4023
16305SOL     OW51868   6.241   2.291   1.054 -0.0779  0.1622 -0.0390
16305SOL    HW151869   6.159   2.340   1.043 -0.8126 -0.9724  0.1464
16305SOL    HW251870   6.262   2.259   0.967 -0.6535 -0.7666  0.1422
16306SOL     OW51871   4.128   2.900   3.182  0.5186 -0.1134  0.7824
16306SOL    HW151872   4.216   2.865   3.192  0.4365 -0.4184  0.4384
16306SOL    HW251873   4.078   2.831   3.139 -0.2253 -0.4359  2.0909
16307SOL     OW51874   2.892   1.649   1.538 -0.7106 -0.2539  0.2285
16307SOL    HW151875   2.982   1.621   1.522 -1.0172 -1.6885  0.9358
16307SOL    HW251876   2.876   1.715   1.470  0.8434 -0.0120  0.0532
16308SOL     OW51877   5.161   6.290   0.286 -0.5600 -1.0044 -0.2580
16308SOL    HW151878   5.102   6.360   0.258 -0.3862 -1.8912 -3.2890
16308SOL    HW251879   5.230   6.335   0.335 -0.8045  0.8963 -1.5267
16309SOL     OW51880   2.435   1.501   2.615  0.2446  0.1459 -0.0234
16309SOL    HW151881   2.461   1.417   2.653  1.9513  0.7052  0.1194
16309SOL    HW251882   2.443   1.488   2.520 -0.9415 -0.2733 -0.0906
16310SOL     OW51883   1.788   1.463   7.565 -0.7206  0.2945  0.3467
16310SOL    HW151884   1.744   1.494   7.644 -1.0440 -1.1522  0.7658
16310SOL    HW251885   1.717   1.448   7.503 -0.9153 -2.1886  1.0717
16311SOL     OW51886   5.636   4.994   0.340  0.4138 -0.9080  0.1571
16311SOL    HW151887   5.598   5.007   0.254 -1.3033  2.8542  1.2702
16311SOL    HW251888   5.568   4.948   0.390  0.2578 -0.6033  0.2280
16312SOL     OW51889   5.876   0.256   3.994 -0.5100  0.7583 -0.2925
16312SOL    HW151890   5.845   0.246   4.084 -1.3880  0.5014 -0.6105
16312SOL    HW251891   5.904   0.347   3.988  0.3255  0.5622  0.4704
16313SOL     OW51892   2.720   5.268   4.737 -0.1450  0.1476 -0.3865
16313SOL    HW151893   2.774   5.282   4.815 -0.0748 -0.1723 -0.3755
16313SOL    HW251894   2.778   5.220   4.677 -0.8906 -1.5733  0.2056
16314SOL     OW51895   5.404   5.023   4.370  0.2269  0.1292 -0.1467
16314SOL    HW151896   5.481   4.975   4.399 -0.5383  0.4683  2.8395
16314SOL    HW251897   5.331   4.962   4.385 -0.4733  1.2454  1.1795
16315SOL     OW51898   2.400   4.392   7.014  0.1480  0.3104 -0.0888
16315SOL    HW151899   2.409   4.355   6.927  1.1494 -1.8260  0.8586
16315SOL    HW251900   2.479   4.364   7.061 -0.9348  0.3172  1.8559
16316SOL     OW51901   1.094   2.133   7.496 -0.2434 -0.7392 -0.3819
16316SOL    HW151902   1.094   2.228   7.508 -0.4620 -0.8687  0.8261
16316SOL    HW251903   1.007   2.106   7.526 -0.3117 -1.2785 -1.0650
16317SOL     OW51904   7.266   1.481   6.243 -0.0663  0.0480 -0.4177
16317SOL    HW151905   7.186   1.471   6.294  0.4863  0.1827  0.4940
16317SOL    HW251906   7.278   1.576   6.235 -0.5487  0.0416 -1.4664
16318SOL     OW51907   7.876   0.421   3.801 -0.3515  0.0491 -0.0273
16318SOL    HW151908   7.811   0.478   3.843 -0.8084 -1.3753  1.2920
16318SOL    HW251909   7.927   0.385   3.873  0.0828 -1.0305 -0.8400
16319SOL     OW51910   6.247   0.944   5.044 -0.1551  0.4511 -0.0107
16319SOL    HW151911   6.152   0.943   5.062 -0.2897 -0.2662 -0.6964
16319SOL    HW251912   6.267   1.036   5.027 -0.6994  0.6297  0.2709
16320SOL     OW51913   1.421   2.528   7.728  0.0327 -0.8405 -0.0792
16320SOL    HW151914   1.381   2.528   7.816  0.7616 -2.1429  0.2725
16320SOL    HW251915   1.513   2.546   7.744  0.7866 -4.0370 -0.2217
16321SOL     OW51916   6.442   7.278   4.794  0.4221 -0.0882 -0.0333
16321SOL    HW151917   6.446   7.374   4.789 -0.3544 -0.0698 -0.4384
16321SOL    HW251918   6.424   7.260   4.886 -1.8946  0.2724 -0.3668
16322SOL     OW51919   2.318   6.717   6.471  0.4452  0.0631  0.0395
16322SOL    HW151920   2.279   6.741   6.555 -0.8953  0.0334 -0.5480
16322SOL    HW251921   2.408   6.692   6.492  0.6705  1.7027  1.2298
16323SOL     OW51922   2.896   4.208   5.466  0.0449 -0.0650 -1.0761
16323SOL    HW151923   2.916   4.136   5.407 -0.2639 -0.5913 -0.5505
16323SOL    HW251924   2.818   4.250   5.428 -0.3040 -0.5568 -0.9167
16324SOL     OW51925   0.915   6.711   7.561 -0.0865 -0.0570 -0.5409
16324SOL    HW151926   0.931   6.743   7.650 -0.4254 -1.3910  0.0374
16324SOL    HW251927   0.941   6.619   7.565 -0.7475 -0.3058 -1.6402
16325SOL     OW51928   0.099   1.701   5.422 -0.0726 -0.2705 -0.5835
16325SOL    HW151929   0.187   1.675   5.394 -0.4295  0.9834 -3.2677
16325SOL    HW251930   0.041   1.654   5.362 -1.1116  0.5341 -0.2301
16326SOL     OW51931   6.990   6.715   1.331  0.1691  0.4540  0.0977
16326SOL    HW151932   6.924   6.681   1.390  1.3617 -0.8828  0.7308
16326SOL    HW251933   6.998   6.649   1.262 -0.8204  1.7327 -1.3203
16327SOL     OW51934   6.813   4.022   1.441 -0.7558  0.1420  0.1517
16327SOL    HW151935   6.796   3.946   1.385 -0.9976 -0.2214  0.7074
16327SOL    HW251936   6.879   4.072   1.394 -1.6208  0.3338 -0.9077
16328SOL     OW51937   5.929   5.303   7.111 -0.1348  0.3766 -0.1705
16328SOL    HW151938   6.016   5.322   7.147  0.1013  0.2587 -0.6632
16328SOL    HW251939   5.884   5.255   7.180  0.4603 -0.2141 -0.1805
16329SOL     OW51940   7.613   1.661   6.889 -0.0343  0.6093  0.4128
16329SOL    HW151941   7.666   1.630   6.963  2.1726 -0.3318 -1.4311
16329SOL    HW251942   7.551   1.590   6.873  1.2713 -0.4306 -0.2565
16330SOL     OW51943   5.156   5.384   1.477  0.0338  0.2935  0.1521
16330SOL    HW151944   5.118   5.308   1.521 -0.5776  0.9518  0.7644
16330SOL    HW251945   5.233   5.406   1.529 -0.5276  0.8952  0.7351
16331SOL     OW51946   3.931   7.073   6.438  0.1510 -0.4531 -0.2677
16331SOL    HW151947   3.989   6.998   6.443 -1.6848 -1.9946 -0.9520
16331SOL    HW251948   3.948   7.112   6.352  1.9709  0.7348  0.5620
16332SOL     OW51949   7.298   2.946   2.757  0.5246 -0.0104 -0.3690
16332SOL    HW151950   7.363   3.005   2.719 -0.1387  1.1735  0.2449
16332SOL    HW251951   7.313   2.862   2.715  1.5223  0.5975 -1.2673
16333SOL     OW51952   7.510   0.896   4.745 -1.1146 -0.0295  0.1653
16333SOL    HW151953   7.577   0.870   4.808 -0.9580 -0.2326 -0.0819
16333SOL    HW251954   7.468   0.814   4.719 -0.3051 -0.1036 -0.9655
16334SOL     OW51955   2.308   1.528   3.776  0.3369  0.7163  0.3916
16334SOL    HW151956   2.350   1.595   3.721  0.0412 -0.1751 -0.9548
16334SOL    HW251957   2.360   1.450   3.763  0.0305  0.3837  1.0992
16335SOL     OW51958   1.884   4.511   7.921  0.3530 -0.2737 -0.0431
16335SOL    HW151959   1.834   4.588   7.949  0.0568 -0.4239 -0.1607
16335SOL    HW251960   1.950   4.499   7.989  0.6358  0.3032 -0.2015
16336SOL     OW51961   5.978   3.371   4.180  0.5741  0.3819 -0.5806
16336SOL    HW151962   5.968   3.402   4.270  3.5681  2.6341 -0.8434
16336SOL    HW251963   5.900   3.402   4.135 -0.7102 -0.3068  1.0924
16337SOL     OW51964   5.784   0.311   6.332  0.0816  0.4144  0.1747
16337SOL    HW151965   5.717   0.378   6.318 -1.6468 -1.1841  0.3320
16337SOL    HW251966   5.747   0.255   6.401  2.2051  0.2329  1.2328
16338SOL     OW51967   5.705   3.434   5.808 -0.0085 -0.0085  0.3290
16338SOL    HW151968   5.681   3.524   5.831 -0.6037  0.2468 -1.2054
16338SOL    HW251969   5.755   3.403   5.883  2.1111  2.3330 -0.0076
16339SOL     OW51970   6.373   2.262   4.266  0.4508  0.7640  0.4861
16339SOL    HW151971   6.357   2.304   4.351 -1.3024 -1.1399  1.1749
16339SOL    HW251972   6.466   2.240   4.268  0.6607  1.6461  1.4738
16340SOL     OW51973   4.646   2.939   5.370 -0.4677 -0.2850  0.0923
16340SOL    HW151974   4.568   2.991   5.351 -0.1462 -0.2994 -1.4120
16340SOL    HW251975   4.719   2.997   5.348 -0.0776 -0.7891  0.0515
16341SOL     OW51976   7.257   5.655   4.102 -0.8651  0.1711  0.0417
16341SOL    HW151977   7.300   5.681   4.020  0.9645 -2.0136  0.1933
16341SOL    HW251978   7.302   5.705   4.170  0.7762 -1.2271  0.0717
16342SOL     OW51979   3.414   4.746   4.946 -0.1368 -0.1163 -0.4319
16342SOL    HW151980   3.368   4.812   4.998 -0.2564 -0.0974 -0.5612
16342SOL    HW251981   3.500   4.783   4.931 -0.2899  0.1227 -0.7241
16343SOL     OW51982   1.212   2.599   6.553  0.4868  0.0357  0.0362
16343SOL    HW151983   1.147   2.602   6.624 -0.9033 -1.0989 -1.1112
16343SOL    HW251984   1.251   2.512   6.560  0.5632  0.0343 -0.3860
16344SOL     OW51985   2.852   4.194   7.354  0.5781  0.2013 -0.1529
16344SOL    HW151986   2.923   4.146   7.310  1.2611 -0.7573  1.8771
16344SOL    HW251987   2.848   4.278   7.308  1.2009 -0.7441 -2.0380
16345SOL     OW51988   7.722   0.304   3.060  0.0965  0.3648  0.4876
16345SOL    HW151989   7.760   0.320   2.974 -1.8953  2.5838 -0.1145
16345SOL    HW251990   7.747   0.380   3.112 -0.5610  0.1432  1.1501
16346SOL     OW51991   3.242   2.438   3.448 -0.2621 -0.1286  0.4267
16346SOL    HW151992   3.195   2.418   3.529  1.1420  1.3345  1.6791
16346SOL    HW251993   3.238   2.358   3.397 -0.4052 -1.4075  2.3448
16347SOL     OW51994   3.488   3.432   3.085 -0.4568  0.5025 -0.0204
16347SOL    HW151995   3.517   3.365   3.146 -2.0846 -0.3416 -0.1195
16347SOL    HW251996   3.546   3.423   3.009 -1.1751 -1.3924 -0.3817
16348SOL     OW51997   3.508   6.675   5.326 -1.0232 -0.2180  0.0157
16348SOL    HW151998   3.459   6.593   5.325  0.4825 -1.1546 -1.7968
16348SOL    HW251999   3.491   6.715   5.241  1.6505 -0.8540 -0.9350
16349SOL     OW52000   2.915   2.572   0.379 -0.2046 -0.4534  0.6427
16349SOL    HW152001   2.959   2.649   0.414  2.6772 -0.5642 -2.1948
16349SOL    HW252002   2.923   2.507   0.449 -0.1923  0.9809  2.0447
16350SOL     OW52003   7.241   4.605   7.759  0.6561 -0.3001  0.2380
16350SOL    HW152004   7.156   4.611   7.715  0.7264 -0.1016  0.1260
16350SOL    HW252005   7.219   4.586   7.850  0.5138 -0.7948  0.1011
16351SOL     OW52006   1.230   4.510   7.062 -0.1334 -0.0091  0.5126
16351SOL    HW152007   1.318   4.517   7.099  0.0209 -0.7299  0.3074
16351SOL    HW252008   1.194   4.599   7.066  1.9777  1.1703 -2.8723
16352SOL     OW52009   4.241   4.795   7.904  0.0973  0.0571  0.0329
16352SOL    HW152010   4.187   4.784   7.983 -0.1743 -0.2998 -0.1972
16352SOL    HW252011   4.301   4.721   7.906 -1.5480 -1.3880 -1.3762
16353SOL     OW52012   7.545   2.103   6.124  0.4876 -0.4766 -0.6663
16353SOL    HW152013   7.635   2.117   6.093  0.7596 -2.0496 -0.6557
16353SOL    HW252014   7.506   2.045   6.059 -0.6876  0.5293 -0.9030
16354SOL     OW52015   7.387   6.176   7.161  0.0367  0.2984 -0.3307
16354SOL    HW152016   7.325   6.185   7.234 -0.4313  3.3097 -0.9700
16354SOL    HW252017   7.340   6.124   7.096 -0.0152 -1.3486  0.9658
16355SOL     OW52018   7.983   4.470   3.195  0.4211  0.0198  0.3104
16355SOL    HW152019   7.973   4.496   3.103  2.1759  0.0539  0.1002
16355SOL    HW252020   7.896   4.484   3.233 -0.5540 -0.7704 -1.5141
16356SOL     OW52021   4.679   3.163   5.955 -0.2537 -0.2345 -0.7512
16356SOL    HW152022   4.721   3.186   6.038  0.3944 -0.8599 -0.8950
16356SOL    HW252023   4.599   3.216   5.953  0.9965  1.7572 -0.9418
16357SOL     OW52024   3.118   4.371   3.861  0.1669 -0.3046  0.4423
16357SOL    HW152025   3.156   4.341   3.779  0.8259 -0.5929  0.8471
16357SOL    HW252026   3.053   4.437   3.835  0.2168 -0.5507 -0.3148
16358SOL     OW52027   6.782   3.937   6.142 -0.5352  0.1440 -0.0045
16358SOL    HW152028   6.698   3.967   6.107 -0.2924 -0.3271 -1.0350
16358SOL    HW252029   6.779   3.958   6.235 -1.1341  1.6182 -0.3301
16359SOL     OW52030   2.154   6.410   0.790  0.3685  0.4349  0.0331
16359SOL    HW152031   2.225   6.357   0.826  0.8861  1.5121  0.6571
16359SOL    HW252032   2.196   6.491   0.762 -0.6203  1.1395  0.5198
16360SOL     OW52033   5.787   0.145   4.310  0.4924 -0.0113  0.1059
16360SOL    HW152034   5.757   0.069   4.360  0.7046  0.2533  0.6526
16360SOL    HW252035   5.708   0.196   4.292  0.4212 -0.0733  0.2443
16361SOL     OW52036   7.652   5.421   2.675 -0.1808  0.1198 -0.2301
16361SOL    HW152037   7.689   5.444   2.590 -0.5851  0.4675 -0.3166
16361SOL    HW252038   7.630   5.506   2.715 -0.9391 -0.0790 -0.2120
16362SOL     OW52039   5.487   7.686   1.173  0.9018  0.2694 -0.0620
16362SOL    HW152040   5.499   7.695   1.078  0.9205  1.0519  0.0141
16362SOL    HW252041   5.571   7.653   1.205  0.3396 -1.8174 -0.5390
16363SOL     OW52042   1.553   3.534   0.324 -0.2765  0.7821 -0.3258
16363SOL    HW152043   1.624   3.541   0.260  0.1683  0.7400  0.1572
16363SOL    HW252044   1.560   3.615   0.376  1.5160 -0.6352  1.8465
16364SOL     OW52045   4.693   1.377   1.319 -0.0137 -0.1143 -0.6927
16364SOL    HW152046   4.691   1.428   1.238 -2.5315  2.2237  0.6359
16364SOL    HW252047   4.601   1.376   1.349  0.1398 -4.2022  0.2556
16365SOL     OW52048   0.920   7.514   3.351  1.1621 -0.8616  0.0135
16365SOL    HW152049   0.969   7.491   3.272 -0.0189  1.2459 -1.4273
16365SOL    HW252050   0.952   7.600   3.375 -1.5950  0.5188 -0.8869
16366SOL     OW52051   3.965   0.673   3.969  0.2631 -0.0652 -0.2286
16366SOL    HW152052   3.975   0.693   4.063  0.2298 -0.9284 -0.0345
16366SOL    HW252053   4.005   0.748   3.925 -0.5308  0.7834  0.4598
16367SOL     OW52054   5.374   7.604   3.314  0.3518  0.1923  1.1338
16367SOL    HW152055   5.299   7.663   3.317  0.5518  0.7134 -1.5902
16367SOL    HW252056   5.349   7.530   3.368 -1.5908  0.9310  1.3131
16368SOL     OW52057   4.867   0.357   8.134  0.5549  0.0288 -0.2678
16368SOL    HW152058   4.879   0.438   8.184 -0.3808  0.6754 -1.0442
16368SOL    HW252059   4.781   0.325   8.162  0.8681 -0.6413 -0.0578
16369SOL     OW52060   4.400   4.732   2.828 -0.4696 -0.5334  0.3783
16369SOL    HW152061   4.432   4.653   2.785 -0.4552 -0.2477 -0.1567
16369SOL    HW252062   4.421   4.721   2.920  0.8694 -0.5113  0.0900
16370SOL     OW52063   4.912   3.947   5.425 -0.6944 -0.7950  0.4771
16370SOL    HW152064   4.996   3.915   5.457 -0.8557 -1.2122  0.4962
16370SOL    HW252065   4.902   3.907   5.339 -1.1541 -1.2597  0.7362
16371SOL     OW52066   7.370   7.160   7.098 -0.1460  0.3995  0.0441
16371SOL    HW152067   7.407   7.086   7.050 -1.8165 -0.0685 -0.5578
16371SOL    HW252068   7.379   7.234   7.038 -2.4048 -0.2202 -1.1566
16372SOL     OW52069   1.110   5.864   5.065 -0.0610 -0.0512 -0.1698
16372SOL    HW152070   1.094   5.769   5.068  0.1991 -0.1492 -1.3909
16372SOL    HW252071   1.201   5.872   5.036  0.2401  0.5824  0.8712
16373SOL     OW52072   2.615   2.578   4.844 -0.3358 -0.4363 -0.3531
16373SOL    HW152073   2.683   2.609   4.783 -0.3997 -1.3983 -0.9276
16373SOL    HW252074   2.597   2.655   4.899 -0.0191  0.3512 -1.3038
16374SOL     OW52075   8.040   6.802   6.440 -0.0380 -0.2269 -0.3194
16374SOL    HW152076   8.024   6.811   6.534 -0.0354  1.2797 -0.4398
16374SOL    HW252077   8.107   6.733   6.434  1.2227  0.8220  0.9110
16375SOL     OW52078   7.123   2.997   6.717 -0.2098 -0.1827  0.0283
16375SOL    HW152079   7.182   2.982   6.642  0.0489 -1.4107  0.4566
16375SOL    HW252080   7.062   2.924   6.714 -0.9205  0.3846  0.3612
16376SOL     OW52081   7.031   1.101   4.493  0.0263  0.0542 -0.0881
16376SOL    HW152082   6.979   1.172   4.455  1.4047  1.1332 -0.0220
16376SOL    HW252083   7.007   1.024   4.442 -3.7886 -0.2241  1.7186
16377SOL     OW52084   3.564   4.039   2.970  0.6383 -0.4232  0.4350
16377SOL    HW152085   3.542   3.952   2.936  0.0332 -0.4116  0.7872
16377SOL    HW252086   3.562   4.030   3.065 -1.5411  0.4431  0.5539
16378SOL     OW52087   7.117   7.250   3.154 -0.0323 -0.3499  0.4215
16378SOL    HW152088   7.070   7.230   3.235  1.4981  0.5443  1.5936
16378SOL    HW252089   7.110   7.345   3.146  1.2035 -0.2467  0.4213
16379SOL     OW52090   6.694   7.963   1.520 -0.0886 -0.4716 -0.6072
16379SOL    HW152091   6.599   7.977   1.510 -0.3012 -0.4861  1.1319
16379SOL    HW252092   6.701   7.882   1.570  0.8661 -0.7090 -1.1098
16380SOL     OW52093   3.903   0.618   0.531 -0.1018 -0.1854 -0.3824
16380SOL    HW152094   3.928   0.707   0.558 -1.2954  0.0715 -0.0172
16380SOL    HW252095   3.912   0.618   0.436 -0.1060  0.3415 -0.3888
16381SOL     OW52096   5.052   7.354   0.108  0.1620 -0.1993  0.4068
16381SOL    HW152097   5.094   7.343   0.023 -0.7415  0.4667 -0.1443
16381SOL    HW252098   5.040   7.265   0.141 -0.6162 -0.5337 -0.7385
16382SOL     OW52099   2.677   1.510   1.685 -0.1134 -0.4480  0.3048
16382SOL    HW152100   2.738   1.531   1.614  0.3826 -0.7890  0.6243
16382SOL    HW252101   2.653   1.595   1.722 -1.6862 -0.1245 -1.3232
16383SOL     OW52102   7.499   0.126   7.211  0.1278 -0.7769 -0.2829
16383SOL    HW152103   7.503   0.124   7.116  0.4636 -2.9489 -0.2942
16383SOL    HW252104   7.421   0.075   7.233 -0.4276  0.4207  0.6128
16384SOL     OW52105   2.454   3.940   4.393  0.2473  0.5889 -0.4983
16384SOL    HW152106   2.400   3.866   4.365  0.7348 -0.4109  1.1140
16384SOL    HW252107   2.538   3.927   4.349  0.6922 -0.4382  0.6246
16385SOL     OW52108   2.446   1.067   7.724 -0.1921 -0.3794 -0.5317
16385SOL    HW152109   2.431   1.059   7.818 -1.5467 -1.6831 -0.8197
16385SOL    HW252110   2.361   1.093   7.688  0.0774 -0.7483 -1.4733
16386SOL     OW52111   5.034   1.222   2.886 -0.4809 -0.6635 -0.0421
16386SOL    HW152112   5.057   1.130   2.868 -1.9060 -0.8547 -1.0532
16386SOL    HW252113   5.098   1.272   2.835 -1.0100 -1.1404 -1.2070
16387SOL     OW52114   6.057   4.090   1.357  0.4837 -0.0904  0.3571
16387SOL    HW152115   6.152   4.102   1.362  0.6293 -0.9136 -0.1965
16387SOL    HW252116   6.043   4.049   1.272 -0.4480  0.6675  0.1202
16388SOL     OW52117   3.231   0.609   5.764  0.0284 -0.2761 -0.2076
16388SOL    HW152118   3.154   0.596   5.709 -0.2810  2.0049 -0.4153
16388SOL    HW252119   3.279   0.680   5.721  1.0396 -0.0876  1.1680
16389SOL     OW52120   1.143   5.095   4.139  0.2049  0.3029 -0.1038
16389SOL    HW152121   1.069   5.148   4.169 -0.8958 -0.5923 -1.0984
16389SOL    HW252122   1.177   5.054   4.219 -0.4016  0.7175  0.3743
16390SOL     OW52123   2.854   2.848   1.817  0.0494  0.2718 -0.4018
16390SOL    HW152124   2.918   2.836   1.746 -0.0383 -0.2528 -0.4012
16390SOL    HW252125   2.782   2.790   1.793 -0.3051  0.6555 -0.2603
16391SOL     OW52126   3.791   2.734   7.897  0.2646  0.4461  0.1129
16391SOL    HW152127   3.836   2.742   7.813  1.4709  1.8992  0.8587
16391SOL    HW252128   3.840   2.790   7.957 -0.7811 -0.2629  1.7203
16392SOL     OW52129   3.296   5.214   2.969  0.3929 -0.4706 -0.2367
16392SOL    HW152130   3.354   5.173   2.904  1.7533  2.0375 -0.7321
16392SOL    HW252131   3.208   5.192   2.939  1.0130 -0.4158 -2.2579
16393SOL     OW52132   0.609   6.023   4.973 -0.2547 -0.4904  0.1440
16393SOL    HW152133   0.680   6.083   4.997 -0.4755  0.0921 -0.5854
16393SOL    HW252134   0.577   5.987   5.056  0.3892 -0.1747  0.5321
16394SOL     OW52135   2.171   0.609   8.003 -0.2423 -0.6285 -0.3690
16394SOL    HW152136   2.119   0.614   8.084 -0.4254 -1.2469 -0.4394
16394SOL    HW252137   2.233   0.538   8.020 -1.5695 -2.1094 -1.4841
16395SOL     OW52138   8.010   1.265   5.172 -0.3103 -0.6294  0.4524
16395SOL    HW152139   7.917   1.276   5.192 -0.3471 -2.4237  1.4923
16395SOL    HW252140   8.052   1.342   5.210 -1.1136 -0.9821  2.1450
16396SOL     OW52141   5.067   1.574   1.842 -0.0064 -0.0971 -0.1494
16396SOL    HW152142   5.082   1.485   1.874  0.5186  0.2602  0.6146
16396SOL    HW252143   5.121   1.580   1.763  1.0842 -0.0073  0.5785
16397SOL     OW52144   5.806   5.311   0.367 -0.0803 -0.3849 -0.4466
16397SOL    HW152145   5.860   5.367   0.423  0.6489 -1.1203 -0.3977
16397SOL    HW252146   5.720   5.353   0.367  0.2091  0.2317  0.3238
16398SOL     OW52147   6.699   4.516   4.929  0.0533  0.0208 -0.0766
16398SOL    HW152148   6.794   4.508   4.924 -0.0707 -1.0502 -1.2938
16398SOL    HW252149   6.679   4.601   4.890  0.4752  0.0240 -0.2915
16399SOL     OW52150   3.975   6.709   8.015 -0.1702  0.4353 -0.6322
16399SOL    HW152151   3.972   6.744   8.104 -0.2433 -1.1733  0.0411
16399SOL    HW252152   3.976   6.786   7.959  1.3984  1.5449  0.7884
16400SOL     OW52153   1.475   4.737   1.072 -0.1727  0.4190 -0.2783
16400SOL    HW152154   1.427   4.723   0.990 -0.3779  1.2705 -0.3104
16400SOL    HW252155   1.432   4.678   1.134  0.1903 -0.4689 -0.8470
16401SOL     OW52156   3.918   8.127   8.091  0.0254 -0.3613 -0.7087
16401SOL    HW152157   3.972   8.060   8.048 -1.3229 -2.1432  0.2078
16401SOL    HW252158   3.876   8.174   8.019  2.3464  0.7525 -1.4245
16402SOL     OW52159   4.946   7.202   1.888  0.1837  0.1045 -0.3622
16402SOL    HW152160   4.994   7.120   1.897  0.8096  0.2676 -1.8935
16402SOL    HW252161   5.001   7.267   1.932 -1.2222 -0.5245  2.5927
16403SOL     OW52162   6.922   7.343   5.832 -0.2395  0.4924 -0.2433
16403SOL    HW152163   6.919   7.432   5.867  0.7274 -0.6088  2.9103
16403SOL    HW252164   6.988   7.348   5.762  1.3438  1.8623  1.2348
16404SOL     OW52165   1.433   3.213   8.016 -0.1072 -0.0717 -0.0532
16404SOL    HW152166   1.484   3.134   8.032 -1.1385 -0.5606  0.9205
16404SOL    HW252167   1.495   3.285   8.031  0.1241 -0.6264  1.9017
16405SOL     OW52168   4.196   3.871   4.835 -0.8606  0.5635  0.2948
16405SOL    HW152169   4.137   3.799   4.858  0.7291 -0.0906  2.6055
16405SOL    HW252170   4.143   3.928   4.778 -2.6816 -1.5422 -0.2557
16406SOL     OW52171   6.166   4.294   0.012 -0.1769 -0.1479  0.2214
16406SOL    HW152172   6.242   4.346  -0.011 -0.3579 -0.3515 -0.8835
16406SOL    HW252173   6.167   4.291   0.108  1.1147 -0.0388  0.2240
16407SOL     OW52174   3.457   3.679   7.594 -0.5009  0.2381  0.1735
16407SOL    HW152175   3.364   3.668   7.578 -0.4521  1.2179 -0.9824
16407SOL    HW252176   3.462   3.750   7.658 -0.5555 -0.4350  0.9440
16408SOL     OW52177   1.352   1.804   5.417 -0.4279  0.3133  0.0124
16408SOL    HW152178   1.444   1.786   5.435 -0.4503 -0.1610 -0.3253
16408SOL    HW252179   1.321   1.852   5.494  0.1616  0.6928  0.0149
16409SOL     OW52180   3.940   1.330   5.289 -0.2135  0.2292  0.3991
16409SOL    HW152181   3.898   1.245   5.274 -0.1866  0.2158  0.4001
16409SOL    HW252182   4.025   1.322   5.246  0.4379 -0.3020  1.7182
16410SOL     OW52183   4.889   1.781   1.930 -0.4596  0.6099  0.4681
16410SOL    HW152184   4.932   1.695   1.924  1.7620  1.7374 -1.3805
16410SOL    HW252185   4.821   1.778   1.862  0.4855  0.7332 -0.5077
16411SOL     OW52186   1.725   0.781   8.121  0.1856  0.8956  0.3219
16411SOL    HW152187   1.737   0.690   8.148  1.2808  0.8584 -0.2358
16411SOL    HW252188   1.630   0.792   8.114  0.0559 -0.3806 -0.2013
16412SOL     OW52189   7.903   2.349   0.459 -0.2290  0.2346 -0.0514
16412SOL    HW152190   7.832   2.285   0.450  0.1621 -0.3068  0.5703
16412SOL    HW252191   7.864   2.432   0.433 -1.5608  0.2333  1.7590
16413SOL     OW52192   7.838   3.389   0.839  0.1428  0.1572 -0.4407
16413SOL    HW152193   7.875   3.333   0.907 -1.8989  0.9604  1.4674
16413SOL    HW252194   7.776   3.333   0.793 -0.3044  0.2593  0.0302
16414SOL     OW52195   4.119   1.188   4.769  0.4661 -0.2716 -0.3216
16414SOL    HW152196   4.085   1.239   4.696 -0.9683 -1.6079 -0.6329
16414SOL    HW252197   4.132   1.252   4.840  0.7865  0.8428 -1.3588
16415SOL     OW52198   3.636   3.025   6.394 -0.2794 -0.5532  0.4352
16415SOL    HW152199   3.574   2.964   6.434  0.3693 -2.2327 -1.0279
16415SOL    HW252200   3.675   3.071   6.469  0.2529 -2.9381  1.7154
16416SOL     OW52201   3.550   2.174   2.598 -1.1734 -0.0557  0.5993
16416SOL    HW152202   3.530   2.111   2.668 -0.6269  0.4139  1.1830
16416SOL    HW252203   3.645   2.183   2.601 -1.2242  0.5687  0.3127
16417SOL     OW52204   1.348   1.568   1.640  0.2451  0.3987 -0.3244
16417SOL    HW152205   1.438   1.536   1.648 -0.2992 -0.9106  1.2705
16417SOL    HW252206   1.356   1.652   1.596  2.0550 -0.5677 -2.0252
16418SOL     OW52207   5.754   5.831   8.123 -0.3740 -0.2584  0.0167
16418SOL    HW152208   5.692   5.881   8.069 -0.4903 -1.1096 -0.6676
16418SOL    HW252209   5.797   5.772   8.061  0.9750  0.1613  0.5132
16419SOL     OW52210   4.888   8.122   2.043 -0.3628 -0.2599 -0.1129
16419SOL    HW152211   4.950   8.189   2.013  1.6808 -1.7086  0.7075
16419SOL    HW252212   4.852   8.158   2.124  1.0016 -0.2868  0.5250
16420SOL     OW52213   6.171   4.638   5.798  0.0136 -0.1378 -0.0133
16420SOL    HW152214   6.205   4.558   5.759 -3.3397 -0.2960 -3.2031
16420SOL    HW252215   6.222   4.708   5.757  0.5748 -0.4875  0.0698
16421SOL     OW52216   6.174   6.705   0.661  0.0667 -0.2029  0.1610
16421SOL    HW152217   6.146   6.748   0.580 -2.3144 -0.0858  0.9709
16421SOL    HW252218   6.243   6.762   0.696 -0.7358  1.1917 -0.4564
16422SOL     OW52219   4.100   0.585   6.987  0.6771  0.1010  0.3177
16422SOL    HW152220   4.030   0.536   7.030 -0.7001  1.7381  0.0381
16422SOL    HW252221   4.056   0.658   6.944  2.4754  0.7349 -0.5711
16423SOL     OW52222   2.371   5.732   1.240  0.4117  0.7833 -0.4034
16423SOL    HW152223   2.397   5.743   1.148  1.2064 -0.2877 -0.3386
16423SOL    HW252224   2.372   5.637   1.253 -0.8587  0.8587  0.4011
16424SOL     OW52225   5.176   2.506   3.756 -0.1938 -0.2379 -0.0837
16424SOL    HW152226   5.267   2.500   3.726 -0.3334 -0.4707 -0.4662
16424SOL    HW252227   5.175   2.459   3.839  0.1533  0.2417  0.2037
16425SOL     OW52228   5.014   1.563   6.981  0.1400  0.1724 -0.3974
16425SOL    HW152229   4.942   1.512   6.945 -0.6246  1.2498 -0.4542
16425SOL    HW252230   5.081   1.562   6.912 -0.5980  0.7522 -1.1445
16426SOL     OW52231   2.870   2.868   4.861 -0.3637  0.0275  0.2509
16426SOL    HW152232   2.944   2.901   4.811 -0.7087 -0.0806 -0.3446
16426SOL    HW252233   2.909   2.821   4.935  0.2034 -1.3254 -0.8765
16427SOL     OW52234   1.694   0.988   7.678 -0.2367  0.1933  0.0684
16427SOL    HW152235   1.630   0.959   7.613 -0.0395  0.0265 -0.0540
16427SOL    HW252236   1.754   1.044   7.629 -0.3609  0.4528  0.2090
16428SOL     OW52237   3.987   2.189   3.076 -0.0976 -0.1642 -0.2598
16428SOL    HW152238   3.946   2.237   3.004  0.2284  0.2172 -0.1989
16428SOL    HW252239   3.932   2.112   3.088 -0.3703 -0.0381 -0.6663
16429SOL     OW52240   3.469   5.582   2.331 -0.5563 -0.2033 -0.3433
16429SOL    HW152241   3.543   5.526   2.355 -0.8884 -0.9043 -0.9161
16429SOL    HW252242   3.463   5.646   2.402  1.0338  0.3114 -0.6220
16430SOL     OW52243   5.033   2.045   0.217 -0.3692 -0.1962  0.1476
16430SOL    HW152244   5.073   2.015   0.135  0.8796 -1.8738  1.2842
16430SOL    HW252245   5.098   2.023   0.284 -0.9347  2.0062  1.5018
16431SOL     OW52246   2.948   3.570   7.098 -0.1083  0.1557  0.1573
16431SOL    HW152247   3.025   3.520   7.123  0.7803  0.6533 -1.4175
16431SOL    HW252248   2.874   3.516   7.126  0.8121 -1.3934 -0.2549
16432SOL     OW52249   6.070   3.139   4.546 -0.6250 -0.0997  0.3605
16432SOL    HW152250   6.003   3.177   4.603  0.3176 -0.3624  1.7099
16432SOL    HW252251   6.152   3.151   4.595  0.2862 -0.0209 -1.1150
16433SOL     OW52252   4.791   4.796   4.111  0.1509  0.7331  0.0369
16433SOL    HW152253   4.877   4.786   4.069 -0.7861 -0.0022 -1.7829
16433SOL    HW252254   4.756   4.877   4.075  0.9165  2.2878  2.4673
16434SOL     OW52255   0.914   3.688   6.404  0.0727  0.1950  0.5773
16434SOL    HW152256   0.858   3.613   6.420 -1.1162  0.5926 -1.4533
16434SOL    HW252257   0.876   3.759   6.457  0.8974 -0.4485  2.0912
16435SOL     OW52258   3.687   3.189   2.681  0.1985 -0.5934 -0.0372
16435SOL    HW152259   3.600   3.185   2.720 -0.4946  0.2893 -1.4247
16435SOL    HW252260   3.677   3.152   2.593  0.9079  0.6962 -0.6930
16436SOL     OW52261   7.206   1.534   5.676  0.3645 -0.2630 -0.3401
16436SOL    HW152262   7.145   1.590   5.628 -0.9404 -1.4317 -0.1339
16436SOL    HW252263   7.288   1.583   5.678 -0.0137  0.5425 -2.2991
16437SOL     OW52264   6.112   7.556   3.676 -0.0975  0.3765 -0.0205
16437SOL    HW152265   6.113   7.521   3.765 -0.9987 -2.4689 -1.0120
16437SOL    HW252266   6.056   7.633   3.681 -0.6149 -0.0654  1.7842
16438SOL     OW52267   5.551   4.025   1.903  0.0469  0.2976  0.1206
16438SOL    HW152268   5.536   4.003   1.811  0.0056 -0.2114  0.2412
16438SOL    HW252269   5.466   4.054   1.936 -0.6032 -1.9691  0.6412
16439SOL     OW52270   7.816   6.316   0.909  0.2962 -0.0839  0.3957
16439SOL    HW152271   7.902   6.335   0.871 -0.3507  1.4017 -0.4116
16439SOL    HW252272   7.758   6.381   0.870 -1.2794 -1.2788  0.6565
16440SOL     OW52273   7.237   1.677   1.432 -0.4026  0.6076 -0.1942
16440SOL    HW152274   7.191   1.712   1.356 -2.7894  0.6227  1.1653
16440SOL    HW252275   7.296   1.747   1.459  1.3976  0.1864 -2.6227
16441SOL     OW52276   1.459   5.644   4.580  0.5993 -0.2879  0.3495
16441SOL    HW152277   1.543   5.673   4.544  0.3939 -0.3708 -0.2086
16441SOL    HW252278   1.459   5.675   4.670  1.4772 -0.7739  0.5301
16442SOL     OW52279   4.302   5.044   5.753  0.2415 -0.1612 -0.4552
16442SOL    HW152280   4.383   5.073   5.711  1.3107 -1.1128  0.8529
16442SOL    HW252281   4.249   5.010   5.681  1.9128 -1.5394 -1.1274
16443SOL     OW52282   2.534   2.226   2.553 -0.8390  0.3552  0.2449
16443SOL    HW152283   2.611   2.176   2.577 -0.8694  0.0843 -0.2031
16443SOL    HW252284   2.556   2.267   2.469 -0.5931  1.5951  0.8979
16444SOL     OW52285   4.595   1.305   7.032 -0.0758  0.3546  0.4737
16444SOL    HW152286   4.576   1.226   6.981 -1.6873  1.2554 -0.4081
16444SOL    HW252287   4.652   1.357   6.974 -0.2676  0.5079  0.4232
16445SOL     OW52288   1.705   4.037   0.950  0.9647 -0.2800 -0.3392
16445SOL    HW152289   1.788   3.990   0.954  1.5204  0.7220  0.2510
16445SOL    HW252290   1.730   4.129   0.945 -0.1143  0.0540  0.1637
16446SOL     OW52291   7.959   0.797   7.215 -0.5426  0.1009 -0.2124
16446SOL    HW152292   8.006   0.745   7.150  0.8253  0.7936  0.1853
16446SOL    HW252293   7.894   0.737   7.251  0.9035 -1.3285  0.1543
16447SOL     OW52294   1.392   7.831   6.756  0.0504  0.0529 -0.2691
16447SOL    HW152295   1.388   7.915   6.711  0.4890  0.6336  0.7409
16447SOL    HW252296   1.322   7.835   6.820  0.9047  0.2118  0.6878
16448SOL     OW52297   1.743   7.248   7.458 -0.1450 -0.0356 -0.3930
16448SOL    HW152298   1.810   7.237   7.390 -0.2170 -0.7111 -0.3561
16448SOL    HW252299   1.700   7.163   7.464  0.9393 -0.4940  1.6397
16449SOL     OW52300   7.500   4.783   3.965 -0.2931  0.3673  0.2754
16449SOL    HW152301   7.546   4.795   3.881 -0.5542  0.4376  0.1425
16449SOL    HW252302   7.460   4.696   3.957 -1.3293  0.8684 -0.1578
16450SOL     OW52303   5.002   4.523   3.968 -0.4208 -0.5175  0.0373
16450SOL    HW152304   4.965   4.517   3.880  0.4057 -0.5446 -0.3188
16450SOL    HW252305   4.937   4.480   4.024 -1.2438  0.0486 -0.4609
16451SOL     OW52306   7.605   1.462   2.237 -0.7403 -0.3205 -0.1733
16451SOL    HW152307   7.583   1.435   2.148  0.8093 -0.4044 -0.5609
16451SOL    HW252308   7.699   1.478   2.235 -0.8975  1.0150  1.1166
16452SOL     OW52309   1.945   0.535   3.354  0.6609  0.2563 -0.0772
16452SOL    HW152310   1.880   0.498   3.413 -0.6004  0.3611 -1.3568
16452SOL    HW252311   2.027   0.492   3.379  0.2293  0.4853  1.8818
16453SOL     OW52312   1.160   3.730   6.520  0.6149 -0.2075 -0.2309
16453SOL    HW152313   1.079   3.699   6.479 -0.8423  3.0911 -0.1987
16453SOL    HW252314   1.218   3.654   6.519 -2.2385 -2.5887 -0.8119
16454SOL     OW52315   6.226   5.266   3.945 -0.5479 -0.4502  0.5642
16454SOL    HW152316   6.148   5.225   3.982 -0.8474 -1.5898 -1.2097
16454SOL    HW252317   6.290   5.195   3.940  0.2567  0.2242  0.9829
16455SOL     OW52318   4.468   4.693   3.163 -0.2115  0.0376 -0.1895
16455SOL    HW152319   4.476   4.598   3.153  1.7946  0.2723 -1.5190
16455SOL    HW252320   4.393   4.705   3.221  0.3349 -2.4023  1.1894
16456SOL     OW52321   0.309   7.345   3.441  0.0444 -0.0266 -0.0299
16456SOL    HW152322   0.383   7.368   3.497 -0.4002  1.9081 -0.1698
16456SOL    HW252323   0.232   7.361   3.496 -0.3184 -1.3663 -0.1126
16457SOL     OW52324   2.299   0.685   6.192  0.1485 -0.2261 -0.2211
16457SOL    HW152325   2.388   0.652   6.185  0.3282 -0.4553  2.1616
16457SOL    HW252326   2.245   0.607   6.206  0.0381  0.1169  1.4873
16458SOL     OW52327   5.432   4.230   6.393 -0.1513 -0.6086 -0.0787
16458SOL    HW152328   5.397   4.277   6.317 -1.2502 -0.2838  0.6017
16458SOL    HW252329   5.404   4.282   6.468  0.9906 -0.8761  0.5555
16459SOL     OW52330   2.329   8.079   2.429  0.2259  0.4848 -0.4013
16459SOL    HW152331   2.256   8.129   2.466 -0.2087 -0.5206  0.1421
16459SOL    HW252332   2.293   7.991   2.414  1.9532 -0.7809  2.1863
16460SOL     OW52333   6.129   0.884   3.919 -0.7354  0.3480  0.1249
16460SOL    HW152334   6.170   0.967   3.898  0.8424 -1.1792 -3.9155
16460SOL    HW252335   6.036   0.897   3.898 -0.4456  1.0495 -0.7811
16461SOL     OW52336   5.728   1.548   4.638  0.1240  0.0134  0.2295
16461SOL    HW152337   5.781   1.627   4.638 -1.1451  0.9010  1.6642
16461SOL    HW252338   5.662   1.562   4.570  0.1812 -0.0176  0.1672
16462SOL     OW52339   2.353   6.717   5.499 -0.5894  0.6107 -0.1274
16462SOL    HW152340   2.442   6.699   5.530 -0.3684 -0.0409 -1.1132
16462SOL    HW252341   2.313   6.631   5.488 -0.6024  0.7957 -1.7847
16463SOL     OW52342   7.452   3.939   1.247 -0.5120  0.3254 -0.0001
16463SOL    HW152343   7.483   4.029   1.257  0.9701 -0.1775  0.1504
16463SOL    HW252344   7.460   3.901   1.334 -2.0252  0.2776  0.1548
16464SOL     OW52345   2.986   3.498   3.519  0.5089 -0.3354 -0.5575
16464SOL    HW152346   2.955   3.444   3.447  3.2930 -2.7113 -0.1454
16464SOL    HW252347   3.009   3.436   3.588  2.4395  1.4575  0.5587
16465SOL     OW52348   4.434   3.388   8.012 -0.7048 -0.3544  0.7788
16465SOL    HW152349   4.377   3.462   8.030 -0.6434 -0.4534  1.3844
16465SOL    HW252350   4.458   3.353   8.098  1.4410  0.5913  0.6317
16466SOL     OW52351   7.925   4.640   2.309  0.0198  0.7435  0.4885
16466SOL    HW152352   7.981   4.688   2.248 -0.6370 -0.3032 -0.9982
16466SOL    HW252353   7.836   4.666   2.285 -0.5116 -2.5640 -1.7133
16467SOL     OW52354   5.744   0.829   7.751 -0.5489 -0.6430  0.1738
16467SOL    HW152355   5.830   0.869   7.742  0.1415 -2.4442 -2.1371
16467SOL    HW252356   5.724   0.837   7.845  0.5009  2.8823  0.2402
16468SOL     OW52357   2.314   2.582   1.377  0.2790  1.1876 -0.2665
16468SOL    HW152358   2.394   2.632   1.357  1.2143 -0.6802 -1.4735
16468SOL    HW252359   2.246   2.624   1.325 -0.0775  4.0332  2.2326
16469SOL     OW52360   1.757   5.789   1.023 -0.3865  0.4467 -0.5187
16469SOL    HW152361   1.755   5.697   1.050 -1.6036  0.5665 -0.1729
16469SOL    HW252362   1.717   5.836   1.096  3.5244  1.7641  1.0893
16470SOL     OW52363   6.270   3.469   5.618  0.5067 -0.2230 -0.0161
16470SOL    HW152364   6.211   3.515   5.679 -1.1696 -2.7210  0.4267
16470SOL    HW252365   6.247   3.377   5.629  1.8389 -0.9673 -2.7506
16471SOL     OW52366   8.094   6.265   5.633 -0.4857 -0.0943 -0.4017
16471SOL    HW152367   8.031   6.263   5.705  1.1828  0.0564  1.1677
16471SOL    HW252368   8.130   6.354   5.636  0.8143 -0.5987 -0.2747
16472SOL     OW52369   3.078   0.920   6.414  0.1403  0.1277  0.2596
16472SOL    HW152370   3.082   0.898   6.321 -0.5498 -1.8354  0.6402
16472SOL    HW252371   3.000   0.973   6.423 -1.3427 -1.8863  0.0481
16473SOL     OW52372   5.020   6.461   5.570  0.0743  0.2866 -0.0735
16473SOL    HW152373   5.015   6.396   5.640 -2.4215  0.2650 -0.1659
16473SOL    HW252374   5.092   6.518   5.595  0.7317 -1.0741  1.2905
16474SOL     OW52375   2.192   1.433   2.114  0.5337  0.1288 -0.9640
16474SOL    HW152376   2.245   1.456   2.190 -0.7632 -1.1615  0.3747
16474SOL    HW252377   2.237   1.359   2.074  0.7613  0.2636 -0.9556
16475SOL     OW52378   2.693   4.226   2.828  0.4506  0.2264 -0.0868
16475SOL    HW152379   2.724   4.316   2.818  0.7765 -0.0199 -1.4487
16475SOL    HW252380   2.672   4.198   2.739  1.7574 -1.5428  0.1149
16476SOL     OW52381   1.822   1.416   4.975 -0.0760 -0.2764 -0.3145
16476SOL    HW152382   1.846   1.423   5.067 -0.2873  1.9418 -0.3760
16476SOL    HW252383   1.733   1.382   4.976  0.6550 -2.2838  0.1745
16477SOL     OW52384   1.758   0.691   1.462 -0.0285 -0.1691 -0.0249
16477SOL    HW152385   1.765   0.684   1.367  2.4560 -1.7518  0.1655
16477SOL    HW252386   1.802   0.613   1.495  1.1375  1.3867  2.4300
16478SOL     OW52387   7.680   3.636   3.073 -0.0893  0.4380  0.6124
16478SOL    HW152388   7.766   3.614   3.037 -0.0772 -0.8670  1.3835
16478SOL    HW252389   7.652   3.557   3.118 -1.8014  0.7874  0.2108
16479SOL     OW52390   7.008   4.897   7.597 -0.3634  0.4911 -0.3130
16479SOL    HW152391   7.070   4.970   7.602 -0.9536  1.0659 -1.0216
16479SOL    HW252392   6.980   4.882   7.687 -1.5169  2.3055 -0.3168
16480SOL     OW52393   5.757   0.872   3.191  0.1133 -0.1264 -0.0310
16480SOL    HW152394   5.708   0.796   3.163 -0.8474  0.4840 -0.0603
16480SOL    HW252395   5.703   0.911   3.261  1.6994 -0.7603  1.6192
16481SOL     OW52396   4.834   2.078   1.794  0.0533  0.0916 -0.2765
16481SOL    HW152397   4.815   1.992   1.831 -1.6690 -0.3605 -2.0704
16481SOL    HW252398   4.797   2.140   1.857  0.1380 -0.5078  0.3807
16482SOL     OW52399   2.993   3.459   7.654  0.4905 -0.0959  0.2380
16482SOL    HW152400   2.908   3.500   7.634  0.5236  0.6290  1.4676
16482SOL    HW252401   3.042   3.527   7.700  1.3904 -0.8236  0.3795
16483SOL     OW52402   4.453   0.211   7.236  0.6157 -0.6372 -0.4910
16483SOL    HW152403   4.436   0.295   7.279 -0.8557 -0.8163 -0.6709
16483SOL    HW252404   4.547   0.211   7.221  0.8439  0.4083  0.6922
16484SOL     OW52405   6.693   6.179   7.466  0.1435  0.0596  0.1163
16484SOL    HW152406   6.657   6.164   7.379 -0.5407  0.6127  0.2947
16484SOL    HW252407   6.686   6.094   7.510 -0.4021  0.0112 -0.0523
16485SOL     OW52408   3.591   1.645   5.248  0.1130 -0.5720  0.0939
16485SOL    HW152409   3.606   1.609   5.335 -1.4063  1.3413  1.2345
16485SOL    HW252410   3.544   1.728   5.264 -0.1989 -0.1549 -2.5351
16486SOL     OW52411   1.679   8.089   6.807 -0.7564 -0.0512 -0.0818
16486SOL    HW152412   1.667   8.025   6.877  2.0202 -0.8821 -0.2128
16486SOL    HW252413   1.740   8.153   6.844 -0.2140  0.1777 -1.3198
16487SOL     OW52414   6.872   1.164   1.874 -0.5307  0.0837  0.0013
16487SOL    HW152415   6.803   1.148   1.938 -1.1189  1.7485 -0.1588
16487SOL    HW252416   6.857   1.254   1.844  1.3028  0.2711 -0.5273
16488SOL     OW52417   1.031   1.198   5.569 -0.4810  0.2620  0.2031
16488SOL    HW152418   1.091   1.250   5.515  1.2205 -0.4789  1.2703
16488SOL    HW252419   0.956   1.255   5.583  0.6499  1.8714  0.0503
16489SOL     OW52420   1.104   4.994   1.756  0.1374 -0.5705 -0.4902
16489SOL    HW152421   1.187   4.972   1.799  0.3785  0.7334 -0.2342
16489SOL    HW252422   1.038   4.986   1.824 -0.3046 -3.5437 -1.1523
16490SOL     OW52423   1.856   0.494   7.469 -0.3828 -0.2490  0.0168
16490SOL    HW152424   1.935   0.542   7.447 -0.1572 -1.0892 -1.0565
16490SOL    HW252425   1.823   0.537   7.548 -0.4556  1.9667 -1.1568
16491SOL     OW52426   2.979   8.090   6.761  0.3135 -0.0864  0.0046
16491SOL    HW152427   2.989   8.106   6.667  1.2064  0.0629  0.1170
16491SOL    HW252428   2.956   8.176   6.798  0.6155 -0.0100  0.0124
16492SOL     OW52429   6.089   7.624   0.829 -0.2698 -0.5047 -0.0957
16492SOL    HW152430   6.025   7.690   0.856  0.5863  0.4375 -0.2989
16492SOL    HW252431   6.101   7.638   0.735  2.3613  1.3262  0.4053
16493SOL     OW52432   2.445   1.254   2.711  0.1156 -0.1098 -0.1213
16493SOL    HW152433   2.527   1.218   2.746 -1.2334 -1.1687  2.1650
16493SOL    HW252434   2.402   1.179   2.670 -1.1187 -0.3845  1.5691
16494SOL     OW52435   6.673   4.795   2.097 -0.0216 -0.1008 -0.1972
16494SOL    HW152436   6.705   4.760   2.014  0.2134 -0.8911  0.2118
16494SOL    HW252437   6.681   4.722   2.159  0.4971  0.6776  0.6932
16495SOL     OW52438   7.770   8.118   7.555  0.3182 -0.2442  0.3393
16495SOL    HW152439   7.842   8.067   7.518  0.8287  0.7751 -0.0966
16495SOL    HW252440   7.710   8.052   7.589  1.8445 -1.1134  1.4783
16496SOL     OW52441   5.483   2.884   1.414  0.6959 -0.5030  0.7125
16496SOL    HW152442   5.495   2.880   1.320 -0.0874 -0.1800  0.5865
16496SOL    HW252443   5.479   2.793   1.443  0.0807 -0.6029  0.3144
16497SOL     OW52444   8.002   4.612   0.068  0.3027 -0.4515  0.4852
16497SOL    HW152445   8.082   4.607   0.016 -1.7985  0.2392 -3.1517
16497SOL    HW252446   7.947   4.541   0.036 -1.1598  0.0677  1.7069
16498SOL     OW52447   0.178   4.016   3.831  0.2789 -0.5812 -0.4147
16498SOL    HW152448   0.110   3.961   3.870  0.5516  0.3275  1.4505
16498SOL    HW252449   0.199   4.080   3.899  2.7270 -0.5674 -1.0933
16499SOL     OW52450   0.569   0.572   6.467  0.5308 -0.6166  0.5277
16499SOL    HW152451   0.633   0.593   6.399  1.4642  0.4121  1.6922
16499SOL    HW252452   0.600   0.490   6.505  1.2019 -0.0997  1.1163
16500SOL     OW52453   6.091   5.794   5.218  0.4743  0.5321 -0.3200
16500SOL    HW152454   6.134   5.801   5.303  1.1222 -1.5035 -0.4222
16500SOL    HW252455   6.001   5.769   5.238  1.1032 -1.8669 -0.2076
16501SOL     OW52456   1.903   6.137   6.756  0.3003 -0.4066  0.1987
16501SOL    HW152457   1.887   6.079   6.682  0.9760  0.9041 -1.0372
16501SOL    HW252458   1.816   6.165   6.785 -0.0626 -2.3979  1.1727
16502SOL     OW52459   4.606   4.369   3.392  0.1870  0.9265 -0.2549
16502SOL    HW152460   4.527   4.320   3.416  1.3941 -0.7920  0.4248
16502SOL    HW252461   4.580   4.418   3.314 -1.5455  0.4252 -0.0497
16503SOL     OW52462   1.254   1.070   6.224 -0.2676 -0.5158 -0.6444
16503SOL    HW152463   1.279   1.058   6.316  0.2805 -1.7360 -0.9304
16503SOL    HW252464   1.297   1.151   6.198  1.8990 -1.5778 -0.5758
16504SOL     OW52465   2.267   0.596   7.183  0.0796  0.4590 -0.0656
16504SOL    HW152466   2.247   0.583   7.091 -0.4873  0.4070  0.0612
16504SOL    HW252467   2.295   0.688   7.189 -2.7233  1.3709  0.1705
16505SOL     OW52468   1.376   7.884   1.870 -0.0718 -0.0487 -0.5043
16505SOL    HW152469   1.281   7.890   1.883 -0.3715  0.1662 -2.4640
16505SOL    HW252470   1.391   7.926   1.785  1.9054  0.7292  0.1695
16506SOL     OW52471   4.209   4.261   0.114 -0.6621  0.2785 -0.0939
16506SOL    HW152472   4.192   4.251   0.207 -1.5182  0.6276 -0.2035
16506SOL    HW252473   4.276   4.196   0.094 -0.1208  0.5292  0.8594
16507SOL     OW52474   3.755   3.946   0.965 -0.4861 -0.0684 -0.2901
16507SOL    HW152475   3.763   3.940   1.060 -1.5044 -0.3289 -0.2105
16507SOL    HW252476   3.795   3.866   0.932  1.0986  0.6358 -0.1771
16508SOL     OW52477   2.577   6.219   3.202 -0.4390 -0.0081  0.0057
16508SOL    HW152478   2.548   6.308   3.220  2.3976  0.3807  3.7120
16508SOL    HW252479   2.658   6.229   3.153 -0.8280 -0.6746 -0.8120
16509SOL     OW52480   5.480   6.169   4.315  0.7508  0.5655  0.5204
16509SOL    HW152481   5.517   6.254   4.293  1.5940  0.0993  0.0810
16509SOL    HW252482   5.556   6.110   4.320  0.3871  0.1808  2.5170
16510SOL     OW52483   3.365   7.988   7.246  0.1085 -0.3148 -0.3626
16510SOL    HW152484   3.404   7.904   7.268 -0.5830 -0.5122  0.1611
16510SOL    HW252485   3.437   8.040   7.209  1.2203 -0.1794  1.8288
16511SOL     OW52486   6.465   5.945   6.325 -0.1274 -0.1385 -0.0879
16511SOL    HW152487   6.526   5.887   6.280  1.4452 -0.0234  1.7750
16511SOL    HW252488   6.379   5.906   6.311  0.7951 -2.4548  0.4069
16512SOL     OW52489   6.346   4.685   0.605 -0.1580 -0.3479  0.2118
16512SOL    HW152490   6.277   4.704   0.542  0.9957  2.2289 -0.3955
16512SOL    HW252491   6.357   4.590   0.600 -0.3716 -0.3039 -3.2033
16513SOL     OW52492   1.189   4.428   7.386  0.4361 -0.2127 -0.3242
16513SOL    HW152493   1.269   4.377   7.400  0.2528 -0.7132 -1.0485
16513SOL    HW252494   1.132   4.371   7.334  1.0821  1.4938 -3.1351
16514SOL     OW52495   7.136   0.572   7.807  0.2184  0.4006 -0.3475
16514SOL    HW152496   7.150   0.627   7.729  3.3552 -0.1996 -0.3354
16514SOL    HW252497   7.132   0.634   7.880  1.7801  0.8005 -0.5564
16515SOL     OW52498   2.946   4.618   6.265  0.4581 -0.1736  0.0340
16515SOL    HW152499   2.921   4.659   6.348  0.8045  0.1352 -0.0148
16515SOL    HW252500   2.886   4.543   6.257 -1.4047  1.3039 -0.7343
16516SOL     OW52501   2.475   4.766   1.104 -0.5596  0.0377 -0.0987
16516SOL    HW152502   2.523   4.762   1.021 -1.2520 -0.3111 -0.4993
16516SOL    HW252503   2.420   4.844   1.096  0.9024  1.2345  0.9247
16517SOL     OW52504   2.205   4.892   4.629 -0.1881  0.4313  0.0779
16517SOL    HW152505   2.296   4.911   4.608 -0.5579  1.1596 -1.0067
16517SOL    HW252506   2.192   4.930   4.716  1.1235 -1.7313  1.2911
16518SOL     OW52507   4.916   5.636   2.495 -0.2341 -0.4244  0.1982
16518SOL    HW152508   4.922   5.580   2.573  1.3597  0.0486  0.4561
16518SOL    HW252509   4.879   5.579   2.428 -2.0447 -0.7198  1.3798
16519SOL     OW52510   5.911   4.365   1.406  0.6326  0.0515  0.0052
16519SOL    HW152511   5.944   4.277   1.421  1.0871 -0.1541 -1.9751
16519SOL    HW252512   5.982   4.412   1.363 -0.8848  0.1633 -2.5969
16520SOL     OW52513   2.464   4.269   4.193  0.5125  0.0393  0.0429
16520SOL    HW152514   2.471   4.187   4.145  0.1339  0.0785 -0.0793
16520SOL    HW252515   2.380   4.263   4.240  1.1619 -0.2744  1.2156
16521SOL     OW52516   4.580   5.005   6.211  0.6057  0.0476  0.2150
16521SOL    HW152517   4.638   5.077   6.186 -0.1522  0.3522 -0.7115
16521SOL    HW252518   4.508   5.047   6.258 -0.8122  0.1815 -1.9389
16522SOL     OW52519   0.828   4.682   6.819 -0.7545  0.7657 -0.2489
16522SOL    HW152520   0.805   4.607   6.874 -1.2989  1.4562  0.5001
16522SOL    HW252521   0.885   4.736   6.874 -1.5938  1.6454 -0.2105
16523SOL     OW52522   3.557   7.929   1.119  0.8936 -0.1903 -0.0316
16523SOL    HW152523   3.519   7.850   1.081  2.8667 -1.9848  1.4693
16523SOL    HW252524   3.535   7.998   1.058 -0.6610 -1.9502 -1.5774
16524SOL     OW52525   5.155   5.077   2.279 -0.1954 -0.2018 -0.7719
16524SOL    HW152526   5.074   5.026   2.278  0.6310 -1.7396  1.5268
16524SOL    HW252527   5.134   5.155   2.330  0.3116 -1.8620  2.2030
16525SOL     OW52528   1.857   4.623   5.007 -0.2273  0.3628 -0.9898
16525SOL    HW152529   1.818   4.540   5.032 -1.3594  1.0011 -0.5464
16525SOL    HW252530   1.939   4.627   5.055 -0.0412 -0.6071 -1.2245
16526SOL     OW52531   7.085   1.354   4.078  0.0245  0.4937  0.2440
16526SOL    HW152532   7.149   1.332   4.147 -1.0865  0.7707  1.3905
16526SOL    HW252533   7.025   1.280   4.076  0.4683  0.1441 -0.9710
16527SOL     OW52534   4.434   5.726   3.889 -0.0317 -0.5670 -0.4091
16527SOL    HW152535   4.514   5.778   3.875  0.5657 -0.7651  1.8230
16527SOL    HW252536   4.466   5.644   3.927 -1.2246 -1.0838 -0.4967
16528SOL     OW52537   4.527   7.150   5.253 -0.1287  0.5973  0.2717
16528SOL    HW152538   4.514   7.061   5.288 -1.2578  0.3634 -0.6457
16528SOL    HW252539   4.444   7.170   5.209  0.1856  2.0383  0.2878
16529SOL     OW52540   2.529   2.566   3.997 -0.0948 -0.1114 -0.1101
16529SOL    HW152541   2.506   2.475   4.017 -0.4235 -0.7287 -2.9492
16529SOL    HW252542   2.616   2.578   4.035 -1.1895 -0.6298  2.8089
16530SOL     OW52543   3.836   2.178   4.477 -0.2371  0.0014 -0.2192
16530SOL    HW152544   3.878   2.238   4.538 -2.5191  1.0608  0.4273
16530SOL    HW252545   3.891   2.100   4.477  0.0619  0.1063  2.9448
16531SOL     OW52546   1.476   4.567   4.567  0.3435  0.4692  0.0483
16531SOL    HW152547   1.518   4.612   4.494 -1.3749  1.4457 -0.3920
16531SOL    HW252548   1.456   4.637   4.630 -1.3835  0.2115 -0.1588
16532SOL     OW52549   6.431   4.742   4.130 -0.4678  0.2791  0.4400
16532SOL    HW152550   6.448   4.650   4.147  0.2643  0.8508  3.3195
16532SOL    HW252551   6.337   4.752   4.144 -0.6893 -0.1397 -0.6567
16533SOL     OW52552   6.430   6.216   2.209  0.5081  0.2443  0.8859
16533SOL    HW152553   6.395   6.144   2.158  2.1533  0.6387 -0.8887
16533SOL    HW252554   6.376   6.217   2.289 -0.8649 -1.6106  0.0524
16534SOL     OW52555   7.963   3.236   5.650  0.1937  0.0243 -0.6112
16534SOL    HW152556   8.058   3.243   5.637  0.1619 -1.1105 -1.7074
16534SOL    HW252557   7.926   3.254   5.564 -0.5705  0.0424 -0.2852
16535SOL     OW52558   5.644   7.616   3.215 -0.0075 -0.4559 -1.0294
16535SOL    HW152559   5.663   7.572   3.298  0.7886  1.0477 -0.3787
16535SOL    HW252560   5.551   7.639   3.220  0.2265  0.3535 -0.1828
16536SOL     OW52561   5.425   1.825   4.181 -0.1974 -0.3451  0.0586
16536SOL    HW152562   5.399   1.834   4.089  0.3266 -0.7928 -0.1358
16536SOL    HW252563   5.486   1.898   4.195 -0.9477  0.2397  0.2959
16537SOL     OW52564   1.673   7.800   2.526  0.0484 -0.2513  0.0235
16537SOL    HW152565   1.598   7.842   2.484 -1.8257 -1.8863  1.5507
16537SOL    HW252566   1.722   7.872   2.565 -2.3678  0.7111  1.5112
16538SOL     OW52567   2.253   5.330   5.931 -0.4358  0.3027  0.0965
16538SOL    HW152568   2.284   5.337   5.841  1.3193  1.9130  0.7598
16538SOL    HW252569   2.323   5.369   5.984 -0.8343 -1.7301  2.3016
16539SOL     OW52570   4.919   2.584   6.077  0.0293  0.4110  0.3901
16539SOL    HW152571   4.928   2.581   6.172 -0.1449 -0.0957  0.3932
16539SOL    HW252572   4.893   2.496   6.052  0.6941  0.3669 -0.1963
16540SOL     OW52573   1.246   6.888   6.557 -0.3101  0.2706  0.2248
16540SOL    HW152574   1.247   6.887   6.461  1.0583 -0.4787  0.2210
16540SOL    HW252575   1.335   6.913   6.581 -0.8411  1.1905  1.3117
16541SOL     OW52576   1.969   0.373   8.110 -0.5331  0.1038  0.1738
16541SOL    HW152577   1.888   0.326   8.129  0.2717 -1.6387 -0.4746
16541SOL    HW252578   1.952   0.419   8.028 -0.8355 -0.3180 -0.0004
16542SOL     OW52579   7.897   2.346   5.291  0.5316  0.2680 -0.2307
16542SOL    HW152580   7.976   2.323   5.242 -0.6225 -0.5849 -1.7660
16542SOL    HW252581   7.834   2.277   5.269 -0.6368  0.8823  1.0154
16543SOL     OW52582   4.405   2.341   1.182  0.2325  0.0549  0.5250
16543SOL    HW152583   4.432   2.432   1.171  0.1990  0.0946  0.7637
16543SOL    HW252584   4.452   2.294   1.113  0.8619  0.1352  0.8862
16544SOL     OW52585   4.721   3.365   0.203 -0.1080 -0.2137 -0.1303
16544SOL    HW152586   4.695   3.280   0.168 -1.1067  0.1741 -0.3492
16544SOL    HW252587   4.801   3.388   0.155 -1.5195  0.3879 -2.3080
16545SOL     OW52588   3.748   4.722   7.566 -0.0311 -0.6017 -0.2024
16545SOL    HW152589   3.660   4.759   7.567 -0.1024 -0.7262 -1.2709
16545SOL    HW252590   3.807   4.798   7.565 -0.1510 -0.5170 -0.8643
16546SOL     OW52591   1.901   2.719   6.848 -0.1328  0.1486 -0.1090
16546SOL    HW152592   1.868   2.717   6.938 -0.1583 -1.7777 -0.1072
16546SOL    HW252593   1.996   2.712   6.858 -0.1753 -0.6585 -0.2309
16547SOL     OW52594   1.513   1.988   3.439  0.1966 -0.2793  0.9996
16547SOL    HW152595   1.492   1.950   3.354  1.5339 -0.8928  0.9173
16547SOL    HW252596   1.435   1.972   3.493 -0.2826 -0.7633  0.1762
16548SOL     OW52597   5.816   0.019   3.690  0.1827 -0.2130 -0.2373
16548SOL    HW152598   5.778   0.018   3.602 -0.8744  2.4122  0.1119
16548SOL    HW252599   5.911   0.022   3.675  0.0516 -0.5894 -1.2380
16549SOL     OW52600   0.548   5.621   7.282  0.8520 -0.6625  0.7221
16549SOL    HW152601   0.501   5.553   7.330 -1.3115 -0.0498 -0.4201
16549SOL    HW252602   0.515   5.614   7.192  0.2896  2.1045  0.6384
16550SOL     OW52603   5.303   0.614   6.716 -0.1277  0.5610  0.2561
16550SOL    HW152604   5.234   0.651   6.772  0.1629 -0.3871  1.2822
16550SOL    HW252605   5.378   0.671   6.730 -0.6896  1.5938 -0.8582
16551SOL     OW52606   6.087   1.028   0.995  0.4146  0.1725 -0.0235
16551SOL    HW152607   6.095   1.112   1.041  0.0222  0.8057 -1.0778
16551SOL    HW252608   6.058   0.967   1.062  1.7883  0.6119  1.0226
16552SOL     OW52609   0.183   6.956   3.819  0.3068 -0.0827  0.0934
16552SOL    HW152610   0.097   6.998   3.818 -0.1622 -1.0404 -0.1862
16552SOL    HW252611   0.245   7.029   3.817 -0.4556  0.7266  2.2867
16553SOL     OW52612   7.008   2.475   4.251 -0.2012 -0.1289  0.1637
16553SOL    HW152613   6.983   2.411   4.185 -1.3936 -0.1267  0.5974
16553SOL    HW252614   6.996   2.560   4.208  0.4396 -0.1544 -0.0847
16554SOL     OW52615   5.383   4.699   1.567 -0.3581 -0.1693  0.1844
16554SOL    HW152616   5.345   4.783   1.542 -0.2824 -0.7103 -1.9721
16554SOL    HW252617   5.310   4.637   1.562  0.1187 -0.6708 -0.9027
16555SOL     OW52618   2.292   1.352   7.618  0.5838  0.3587  0.4361
16555SOL    HW152619   2.258   1.273   7.577 -0.0705  1.3662 -1.0482
16555SOL    HW252620   2.240   1.362   7.698  0.0024 -0.1633  0.1287
16556SOL     OW52621   0.725   5.732   6.066 -0.3245 -0.0646 -0.3330
16556SOL    HW152622   0.652   5.673   6.053 -0.8773  0.6058 -0.3383
16556SOL    HW252623   0.801   5.675   6.077 -0.7613 -0.7515 -0.8521
16557SOL     OW52624   1.186   3.577   4.491  0.6907 -0.5430  0.1390
16557SOL    HW152625   1.246   3.629   4.545  0.8688 -0.9165  0.3016
16557SOL    HW252626   1.243   3.526   4.433  0.5016 -0.1346 -0.4205
16558SOL     OW52627   2.590   3.581   4.461  0.7259 -0.1287 -0.8259
16558SOL    HW152628   2.672   3.625   4.440  0.5850 -0.0182 -1.1451
16558SOL    HW252629   2.610   3.530   4.540  0.4252  1.9752  0.7208
16559SOL     OW52630   2.958   0.245   3.912 -0.3095 -0.1218 -0.3495
16559SOL    HW152631   3.015   0.213   3.842 -0.5200 -2.5317  0.4755
16559SOL    HW252632   2.913   0.166   3.943 -0.0557  0.7820  2.6295
16560SOL     OW52633   4.686   3.163   1.925  0.2137 -0.1035  0.4136
16560SOL    HW152634   4.716   3.189   1.838 -0.9795  0.5755  0.1752
16560SOL    HW252635   4.662   3.246   1.967  1.7235 -0.3115  1.7778
16561SOL     OW52636   5.125   6.662   5.956 -0.0134  0.3239  0.0427
16561SOL    HW152637   5.162   6.575   5.939  0.3672  0.1202  1.6991
16561SOL    HW252638   5.201   6.720   5.959  0.0784  0.1772  1.8554
16562SOL     OW52639   6.728   2.656   4.511 -0.0181  0.6830 -0.4296
16562SOL    HW152640   6.707   2.674   4.603 -0.4496  0.8017 -0.5500
16562SOL    HW252641   6.750   2.563   4.510 -1.8546  0.2055 -0.5152
16563SOL     OW52642   8.009   7.716   4.551  0.9876 -0.3825  0.0861
16563SOL    HW152643   7.986   7.666   4.473  2.0763 -1.5238  0.4605
16563SOL    HW252644   8.099   7.690   4.570  1.3554  1.2324  0.6980
16564SOL     OW52645   3.731   1.922   2.928  0.0596 -0.2898  0.0225
16564SOL    HW152646   3.717   1.854   2.993 -0.9767  0.1159  0.2566
16564SOL    HW252647   3.681   1.997   2.961  0.8055  0.4305 -0.4558
16565SOL     OW52648   6.453   5.649   6.611 -0.2232 -0.0842 -0.0789
16565SOL    HW152649   6.448   5.580   6.677 -0.5689 -0.2029 -0.2242
16565SOL    HW252650   6.362   5.672   6.593 -0.1190  1.7609  1.3636
16566SOL     OW52651   7.144   4.102   6.692  0.0136  0.4791 -0.6973
16566SOL    HW152652   7.063   4.133   6.649 -0.2073 -0.6727 -1.1350
16566SOL    HW252653   7.214   4.148   6.646 -0.3678  1.2269 -0.5487
16567SOL     OW52654   0.463   1.343   4.723  0.3041  0.6008  0.0613
16567SOL    HW152655   0.440   1.403   4.651 -1.1402  0.5929  0.5038
16567SOL    HW252656   0.479   1.259   4.679 -0.2813  0.6656 -0.2876
16568SOL     OW52657   1.947   1.066   4.487 -0.2161 -0.4549 -0.1458
16568SOL    HW152658   1.892   1.089   4.412 -1.3593 -1.1395  0.4685
16568SOL    HW252659   2.006   1.141   4.497 -0.6783  0.0601 -1.1318
16569SOL     OW52660   2.008   4.670   7.084 -0.3214 -0.5887 -0.3497
16569SOL    HW152661   2.015   4.734   7.156  0.2555  0.5404 -1.3747
16569SOL    HW252662   2.069   4.600   7.108  0.4293  0.1377 -0.1010
16570SOL     OW52663   4.941   3.596   5.417  0.5699 -0.1455 -0.3673
16570SOL    HW152664   5.020   3.564   5.371  0.8705  1.0375 -0.7267
16570SOL    HW252665   4.967   3.600   5.509  0.6165 -0.6841 -0.3577
16571SOL     OW52666   4.541   7.845   2.524 -0.4285 -0.1336 -0.1832
16571SOL    HW152667   4.519   7.924   2.573  0.0344 -0.1448  0.0467
16571SOL    HW252668   4.598   7.876   2.454  2.1049 -0.5923  1.5424
16572SOL     OW52669   6.371   5.712   1.854  0.7529 -0.3577 -0.2151
16572SOL    HW152670   6.307   5.780   1.833  1.3308  0.6546  1.1165
16572SOL    HW252671   6.436   5.719   1.785  0.7236  0.3632 -0.1858
16573SOL     OW52672   3.901   1.391   0.447 -0.0871 -0.3573 -0.6728
16573SOL    HW152673   3.910   1.299   0.424 -0.3041 -0.8023  0.9056
16573SOL    HW252674   3.815   1.398   0.487  0.3544  0.2895  0.2202
16574SOL     OW52675   2.764   3.560   7.570  0.5498  0.1751 -0.0502
16574SOL    HW152676   2.727   3.646   7.553 -0.0781 -0.2256 -0.7607
16574SOL    HW252677   2.755   3.513   7.487  1.6603 -0.2981  0.0734
16575SOL     OW52678   5.935   2.128   3.126  0.1829  0.5842  0.0462
16575SOL    HW152679   6.022   2.089   3.134 -0.0379  0.3524  1.7250
16575SOL    HW252680   5.931   2.192   3.197 -0.0315  2.6115 -1.6810
16576SOL     OW52681   5.549   1.900   6.068 -0.0159 -0.5095 -0.1628
16576SOL    HW152682   5.485   1.957   6.112 -0.8717 -1.4780 -0.1074
16576SOL    HW252683   5.510   1.881   5.983  0.5999 -0.4438 -0.4660
16577SOL     OW52684   2.999   2.010   6.636 -0.8334  0.0696  0.5197
16577SOL    HW152685   3.043   1.932   6.669  1.6012  0.8953 -0.5418
16577SOL    HW252686   2.970   1.987   6.548 -0.5105  0.2154  0.3736
16578SOL     OW52687   6.974   4.225   5.159 -0.4099  0.0360 -0.0642
16578SOL    HW152688   6.883   4.220   5.129 -0.5444  0.4237  0.2768
16578SOL    HW252689   7.018   4.277   5.091 -0.4351 -0.1624 -0.2359
16579SOL     OW52690   4.804   7.730   5.062  0.1082  0.3466  0.4156
16579SOL    HW152691   4.871   7.728   5.130 -1.6912  1.1766  2.3645
16579SOL    HW252692   4.764   7.817   5.072 -0.0347  0.6000 -1.9384
16580SOL     OW52693   8.089   6.377   1.109 -0.3946 -0.1227 -0.5823
16580SOL    HW152694   8.182   6.377   1.087 -0.1609  0.1336  0.3616
16580SOL    HW252695   8.054   6.300   1.063 -0.0035  0.5408 -2.0430
16581SOL     OW52696   5.565   3.872   1.644 -0.0878 -0.0566  0.2349
16581SOL    HW152697   5.616   3.931   1.588 -0.2155 -0.2114 -0.0414
16581SOL    HW252698   5.522   3.812   1.584  0.1685 -0.5346  0.5242
16582SOL     OW52699   3.023   0.130   0.707  0.0832  0.1153 -0.3640
16582SOL    HW152700   2.941   0.168   0.740  0.4006  1.5240 -1.1474
16582SOL    HW252701   2.998   0.088   0.625  0.2215  0.9579 -0.8449
16583SOL     OW52702   2.860   0.422   7.049  0.4428  0.1625  0.1912
16583SOL    HW152703   2.871   0.373   7.131 -0.5100 -0.7665 -0.2186
16583SOL    HW252704   2.769   0.406   7.024  0.1749  1.9310 -0.1105
16584SOL     OW52705   3.731   0.179   1.318  0.5002 -0.6704  0.1501
16584SOL    HW152706   3.766   0.094   1.344 -0.2127 -1.0152  0.0199
16584SOL    HW252707   3.699   0.165   1.229 -1.5138 -0.8706  0.8590
16585SOL     OW52708   7.518   1.232   1.984 -0.0227  0.0701 -0.1917
16585SOL    HW152709   7.588   1.189   2.033  0.5391  0.5992 -0.5013
16585SOL    HW252710   7.505   1.177   1.907  2.6022  1.7336 -2.0280
16586SOL     OW52711   6.207   2.288   3.103  0.9439  0.3860 -0.0397
16586SOL    HW152712   6.247   2.206   3.073  1.9289  1.4511 -1.8062
16586SOL    HW252713   6.193   2.338   3.023 -2.7940  0.6367  0.6091
16587SOL     OW52714   3.231   7.089   4.250  0.0224 -0.6290  0.0312
16587SOL    HW152715   3.172   7.118   4.321  0.5870  0.8709 -0.0777
16587SOL    HW252716   3.317   7.082   4.292  0.0268 -1.5339 -0.1106
16588SOL     OW52717   6.964   4.618   2.405  0.0194  0.1140 -0.3632
16588SOL    HW152718   7.053   4.644   2.380  0.5154 -0.4001  0.8031
16588SOL    HW252719   6.961   4.524   2.389 -0.6814  0.2964 -1.4045
16589SOL     OW52720   6.849   5.238   5.337  0.2034  0.0841 -0.1618
16589SOL    HW152721   6.858   5.152   5.296  0.3713  0.5070 -1.0310
16589SOL    HW252722   6.905   5.232   5.415  0.1521 -0.6171 -0.1666
16590SOL     OW52723   0.315   2.117   0.579  0.0661  0.3160  0.5408
16590SOL    HW152724   0.222   2.130   0.596  0.4662  1.2366  2.2069
16590SOL    HW252725   0.358   2.189   0.624  1.7226 -1.2143  1.5315
16591SOL     OW52726   2.063   4.872   4.360  0.3650  0.3190  0.1436
16591SOL    HW152727   2.083   4.880   4.454  0.3409 -0.5039  0.2230
16591SOL    HW252728   2.079   4.960   4.325  0.7107  0.5484  0.8539
16592SOL     OW52729   5.895   2.928   2.063 -0.2166  0.1157  0.0107
16592SOL    HW152730   5.812   2.884   2.042 -0.6709  1.5293 -1.2883
16592SOL    HW252731   5.870   2.998   2.123  0.3780 -0.7650  1.3352
16593SOL     OW52732   5.828   7.799   6.323 -0.1571  0.2502  0.6794
16593SOL    HW152733   5.743   7.796   6.367 -1.3515  1.1822 -1.4003
16593SOL    HW252734   5.841   7.711   6.289 -0.1309  0.0303  1.2480
16594SOL     OW52735   2.630   1.110   4.677  0.7420 -0.3360  0.2607
16594SOL    HW152736   2.620   1.022   4.712 -0.6113 -0.2579  0.1236
16594SOL    HW252737   2.630   1.167   4.755  0.0137 -0.3409  0.2708
16595SOL     OW52738   7.500   5.523   6.502 -0.1053 -0.2143 -0.3028
16595SOL    HW152739   7.567   5.511   6.570  1.0351  2.4704 -0.8387
16595SOL    HW252740   7.418   5.532   6.551  0.1657 -1.6468  0.4743
16596SOL     OW52741   5.744   5.685   5.582  0.0713 -0.1095 -0.0916
16596SOL    HW152742   5.691   5.611   5.611  0.4350 -0.0250  0.8340
16596SOL    HW252743   5.685   5.738   5.528 -0.8447  0.0644  1.0365
16597SOL     OW52744   4.152   6.725   1.427 -0.4603  0.2108 -0.0230
16597SOL    HW152745   4.204   6.783   1.483  0.7551  0.0894 -0.9759
16597SOL    HW252746   4.096   6.784   1.377 -1.2376  0.3476  0.9893
16598SOL     OW52747   3.507   5.361   4.660 -0.1838 -0.1063 -0.3761
16598SOL    HW152748   3.494   5.299   4.587  0.0452 -0.0677 -0.4502
16598SOL    HW252749   3.422   5.404   4.669 -0.0676  0.2535 -0.9593
16599SOL     OW52750   5.072   0.649   2.980  0.7679  0.4660 -0.1066
16599SOL    HW152751   5.012   0.710   3.023  0.0204 -1.0534  1.0919
16599SOL    HW252752   5.025   0.620   2.902  0.4943  0.2979  0.1186
16600SOL     OW52753   0.915   1.595   0.082  0.5550  0.4289 -0.0765
16600SOL    HW152754   0.966   1.548   0.148 -0.3501  1.4156  1.3713
16600SOL    HW252755   0.900   1.530   0.013  0.0791 -1.1686  1.4701
16601SOL     OW52756   3.869   5.652   4.070  0.1808  0.7130 -0.4075
16601SOL    HW152757   3.861   5.614   3.983 -0.0992  0.7443 -0.3952
16601SOL    HW252758   3.779   5.656   4.104  0.4351 -0.7300  0.5045
16602SOL     OW52759   6.736   6.004   5.062 -0.0940  0.1395  0.3394
16602SOL    HW152760   6.735   6.083   5.117  1.2440  1.0999 -0.9374
16602SOL    HW252761   6.822   5.966   5.076  0.3668  0.5259 -1.1877
16603SOL     OW52762   2.973   2.493   0.104  0.3183  0.0021  0.1393
16603SOL    HW152763   3.057   2.533   0.081  1.7767 -2.2490  1.2285
16603SOL    HW252764   2.951   2.531   0.190 -0.3912  1.3939 -0.6153
16604SOL     OW52765   7.007   0.896   6.417  0.2612 -0.1490 -0.3884
16604SOL    HW152766   7.027   0.989   6.425 -0.1514  0.0147 -1.1598
16604SOL    HW252767   7.092   0.852   6.422  0.4193  0.2253  0.4298
16605SOL     OW52768   5.309   7.822   4.045  0.0898  0.5110  0.3191
16605SOL    HW152769   5.239   7.783   3.993  1.2511  0.4983 -1.2863
16605SOL    HW252770   5.267   7.898   4.087 -1.3060 -0.4666  0.7735
16606SOL     OW52771   0.823   4.979   6.979  0.0558 -0.0379 -0.0207
16606SOL    HW152772   0.751   4.969   6.916  0.2233  1.6626 -0.5327
16606SOL    HW252773   0.899   4.941   6.934 -0.1831 -0.3570 -0.1573
16607SOL     OW52774   0.920   4.819   0.243 -0.2793 -0.6935  0.2019
16607SOL    HW152775   0.960   4.905   0.259 -0.7415 -0.4594  0.0941
16607SOL    HW252776   0.964   4.787   0.164 -0.3202 -0.4306  0.0744
16608SOL     OW52777   5.393   4.138   5.089  0.0130  0.1410 -0.0825
16608SOL    HW152778   5.354   4.225   5.081  0.5167  0.3149 -0.7336
16608SOL    HW252779   5.319   4.078   5.092 -0.3263  0.3934 -2.1131
16609SOL     OW52780   0.712   2.172   1.949 -0.9722  0.1102 -0.1719
16609SOL    HW152781   0.807   2.160   1.952 -1.0136 -0.2257 -0.1143
16609SOL    HW252782   0.699   2.252   1.898 -0.6504  0.2771  0.0059
16610SOL     OW52783   1.858   2.930   4.021 -0.8695  0.1167  0.2791
16610SOL    HW152784   1.835   2.862   4.084 -0.3307 -0.1996  0.1359
16610SOL    HW252785   1.850   3.012   4.070 -0.8195 -0.0988  0.6483
16611SOL     OW52786   7.987   0.266   1.956  0.0719  0.2221  0.2346
16611SOL    HW152787   8.018   0.206   2.023  0.0326 -1.8429 -1.4753
16611SOL    HW252788   8.025   0.350   1.980  2.2819 -1.0029  1.3606
16612SOL     OW52789   5.753   2.391   5.249  0.6629 -0.2838 -0.3173
16612SOL    HW152790   5.782   2.465   5.196  1.3191  0.2415  0.7344
16612SOL    HW252791   5.687   2.428   5.308  2.2479 -0.0654  1.4429
16613SOL     OW52792   1.815   4.946   5.728  0.5162  0.3108  0.1714
16613SOL    HW152793   1.831   4.996   5.648  0.3499 -0.0030 -0.0590
16613SOL    HW252794   1.749   4.996   5.775 -0.9435 -0.5577 -0.8645
16614SOL     OW52795   6.084   1.970   7.172 -0.6042  0.2720  0.2665
16614SOL    HW152796   6.082   1.880   7.206  0.4692  0.5261  1.0369
16614SOL    HW252797   6.025   2.018   7.230 -1.1273  0.0959 -0.1053
16615SOL     OW52798   3.623   6.176   4.865 -0.3363 -0.0285 -0.2979
16615SOL    HW152799   3.666   6.214   4.789 -0.2574  2.0770  0.7230
16615SOL    HW252800   3.585   6.094   4.833 -0.3811  0.8237 -2.6195
16616SOL     OW52801   5.352   8.085   7.746 -0.3267 -0.7814  0.2569
16616SOL    HW152802   5.351   8.174   7.781 -0.4965 -0.2747 -0.9816
16616SOL    HW252803   5.359   8.029   7.823 -1.1359  0.2675  1.1240
16617SOL     OW52804   3.729   4.099   0.120  0.0341  0.3705  0.6345
16617SOL    HW152805   3.700   4.010   0.139  1.0976 -0.4233 -1.1845
16617SOL    HW252806   3.740   4.139   0.206  2.3876 -2.1995  1.6920
16618SOL     OW52807   1.461   6.899   0.898  0.2160 -0.5538  0.3006
16618SOL    HW152808   1.423   6.875   0.813 -1.3737  3.2404 -0.2777
16618SOL    HW252809   1.403   6.861   0.963  0.3627 -1.9135 -0.3388
16619SOL     OW52810   0.768   3.196   6.839 -0.0696  0.0503 -0.7850
16619SOL    HW152811   0.791   3.268   6.782  0.4378  1.1368  0.7222
16619SOL    HW252812   0.687   3.161   6.803 -0.9913  2.1547 -0.8922
16620SOL     OW52813   0.499   1.919   7.656 -0.3037  0.0493 -0.1732
16620SOL    HW152814   0.492   1.823   7.653  1.9524 -0.2162  1.0234
16620SOL    HW252815   0.409   1.949   7.643 -1.2173 -2.2532  0.2296
16621SOL     OW52816   2.982   3.279   3.704  0.3169 -0.0685  0.2667
16621SOL    HW152817   2.914   3.253   3.642  0.2519 -0.8295  0.6479
16621SOL    HW252818   2.935   3.295   3.786  0.6007 -0.7133  0.5635
16622SOL     OW52819   5.171   6.062   6.364  0.2252  0.3215 -0.0941
16622SOL    HW152820   5.161   6.070   6.458  0.2393 -3.4482  0.3845
16622SOL    HW252821   5.084   6.036   6.332  0.6911 -0.5450 -0.7388
16623SOL     OW52822   4.822   1.838   1.264  0.1586  0.0658  0.2762
16623SOL    HW152823   4.912   1.867   1.251  0.3575 -0.8666 -0.6116
16623SOL    HW252824   4.830   1.753   1.307 -0.2562 -0.3609 -0.4617
16624SOL     OW52825   4.897   7.119   3.927 -0.0888 -0.0910  0.0162
16624SOL    HW152826   4.901   7.075   3.843 -2.2535 -0.5612  0.0936
16624SOL    HW252827   4.884   7.048   3.991 -0.8142  0.4225  0.4578
16625SOL     OW52828   6.346   4.375   2.015  0.1265  0.5000  0.1233
16625SOL    HW152829   6.323   4.451   2.069  1.1833  1.0096 -0.1134
16625SOL    HW252830   6.406   4.410   1.949  0.5763 -0.5341 -0.0344
16626SOL     OW52831   3.976   6.371   7.853  0.4616 -0.5291  0.3351
16626SOL    HW152832   3.961   6.375   7.758 -1.0779  1.3652  0.6018
16626SOL    HW252833   4.035   6.297   7.864 -1.6074 -2.6829 -1.8000
16627SOL     OW52834   6.121   5.794   1.738  0.0179  0.6242  0.4305
16627SOL    HW152835   6.035   5.754   1.755 -0.0030  0.3260 -0.3411
16627SOL    HW252836   6.127   5.798   1.643  2.2639 -2.5002  0.2708
16628SOL     OW52837   1.818   1.923   1.093 -0.0195  0.8482 -0.0362
16628SOL    HW152838   1.728   1.950   1.111 -1.2442 -2.7247 -0.0002
16628SOL    HW252839   1.847   1.882   1.175  0.2157 -1.3262 -1.1414
16629SOL     OW52840   0.995   6.945   4.322  0.5014 -0.0917 -0.5029
16629SOL    HW152841   0.917   6.999   4.313  0.2977 -0.5297 -1.5701
16629SOL    HW252842   0.972   6.882   4.391 -0.2221 -0.4273 -1.0354
16630SOL     OW52843   4.340   6.770   4.410 -0.2520 -0.1902 -0.4343
16630SOL    HW152844   4.265   6.711   4.406 -1.4174  1.3061 -1.5311
16630SOL    HW252845   4.416   6.715   4.389 -1.2789 -1.3247 -1.2530
16631SOL     OW52846   6.633   4.244   6.711  0.4485  0.8357 -0.9003
16631SOL    HW152847   6.641   4.260   6.805 -2.0847 -1.8870 -0.0751
16631SOL    HW252848   6.721   4.215   6.684  0.6061 -1.0158  1.2895
16632SOL     OW52849   2.183   1.090   7.662  0.0484 -0.6345  0.2979
16632SOL    HW152850   2.179   1.043   7.746 -0.6544 -0.0236  0.6229
16632SOL    HW252851   2.093   1.119   7.647 -0.2000 -2.1718 -1.5210
16633SOL     OW52852   2.065   0.015   6.065 -0.0238  0.1926 -0.2925
16633SOL    HW152853   2.058  -0.044   5.990  0.5853  0.5865 -0.6579
16633SOL    HW252854   2.104  -0.039   6.134  1.4801  0.4226 -0.9274
16634SOL     OW52855   2.767   4.987   2.793  0.0755 -0.8967  0.4258
16634SOL    HW152856   2.781   5.049   2.721 -2.0230  0.0258  0.7150
16634SOL    HW252857   2.855   4.958   2.818  0.8791 -1.2245 -2.4456
16635SOL     OW52858   6.451   0.268   4.748 -0.3940 -0.0069 -0.2478
16635SOL    HW152859   6.403   0.214   4.684 -1.7596  0.4578  0.3322
16635SOL    HW252860   6.445   0.357   4.713  0.5172 -0.0079 -0.4225
16636SOL     OW52861   3.543   3.689   1.147  0.2683 -0.1342  0.7172
16636SOL    HW152862   3.544   3.636   1.227 -0.7101  1.5712  1.9467
16636SOL    HW252863   3.624   3.740   1.150  1.1238 -1.3679 -0.3713
16637SOL     OW52864   2.836   6.760   3.456 -0.2322 -0.1221  0.7033
16637SOL    HW152865   2.781   6.838   3.461 -1.0468 -0.6382 -0.1380
16637SOL    HW252866   2.872   6.761   3.368 -1.3591 -1.4315  0.2029
16638SOL     OW52867   1.749   7.295   6.584 -0.2384 -0.3283 -0.6798
16638SOL    HW152868   1.665   7.255   6.563 -1.3198  1.6373 -0.3203
16638SOL    HW252869   1.774   7.342   6.504  0.6880 -1.1186 -0.8768
16639SOL     OW52870   2.477   0.843   7.353  0.2666  0.0441 -0.2010
16639SOL    HW152871   2.436   0.778   7.410 -0.6389  0.3884 -0.4381
16639SOL    HW252872   2.419   0.848   7.277  1.6180 -0.6272 -1.3111
16640SOL     OW52873   2.493   5.321   4.120 -0.5658 -0.0615 -0.3237
16640SOL    HW152874   2.570   5.267   4.137  0.3938  0.8670 -1.5387
16640SOL    HW252875   2.460   5.343   4.208  0.1249 -1.0465  0.2048
16641SOL     OW52876   1.629   5.136   3.688  0.3824 -0.0321 -0.0146
16641SOL    HW152877   1.632   5.041   3.698  1.8790 -0.0451 -0.4451
16641SOL    HW252878   1.720   5.165   3.693 -0.0388  1.3935  0.1247
16642SOL     OW52879   0.831   0.231   5.716 -0.1406 -0.3002 -0.2280
16642SOL    HW152880   0.744   0.266   5.701  0.7314  1.9635 -0.3299
16642SOL    HW252881   0.825   0.188   5.802 -0.8316  1.8477  0.8755
16643SOL     OW52882   0.753   3.225   5.226 -0.3690  0.1014  0.7043
16643SOL    HW152883   0.798   3.168   5.164 -0.9668  0.9164 -0.5110
16643SOL    HW252884   0.748   3.173   5.307 -0.7304 -1.5144 -0.3027
16644SOL     OW52885   5.293   3.882   1.750 -0.7603 -0.0744 -0.1787
16644SOL    HW152886   5.282   3.972   1.718  1.9760  0.3879 -0.0355
16644SOL    HW252887   5.379   3.855   1.718 -0.3400 -1.6621  2.0541
16645SOL     OW52888   6.187   4.903   4.904  0.3161 -0.3188  0.0648
16645SOL    HW152889   6.224   4.924   4.818  0.4968 -1.0539 -0.0450
16645SOL    HW252890   6.261   4.870   4.955 -0.2912 -2.6906 -0.4466
16646SOL     OW52891   0.572   0.373   5.758 -0.5230  0.1268  0.1052
16646SOL    HW152892   0.525   0.359   5.676 -0.1292  2.4177 -0.5609
16646SOL    HW252893   0.550   0.462   5.784  2.5436  0.9458  0.2982
16647SOL     OW52894   6.714   1.097   2.085 -0.7408 -0.0360  0.2650
16647SOL    HW152895   6.670   1.158   2.143 -0.2198  1.7062 -1.0996
16647SOL    HW252896   6.801   1.086   2.124 -1.2304 -0.9261  1.1738
16648SOL     OW52897   1.651   1.098   1.480 -0.3548  0.0449  0.5929
16648SOL    HW152898   1.678   1.082   1.390 -1.5273 -0.7830  0.3614
16648SOL    HW252899   1.718   1.055   1.533 -0.1073 -0.1927  0.0969
16649SOL     OW52900   2.854   2.161   3.552 -0.6764  0.7467  0.2113
16649SOL    HW152901   2.847   2.234   3.490 -0.4990  0.2985 -0.3471
16649SOL    HW252902   2.781   2.174   3.612 -0.0806  1.9348  0.7181
16650SOL     OW52903   1.081   5.456   7.937 -0.2129  0.0647 -0.4947
16650SOL    HW152904   0.998   5.503   7.943  0.0900  0.5615 -0.0949
16650SOL    HW252905   1.077   5.409   7.854 -1.4296 -0.9365  0.0970
16651SOL     OW52906   5.522   6.730   5.169  0.0172 -0.4703  0.1635
16651SOL    HW152907   5.577   6.737   5.091 -1.5996  0.4968 -0.9410
16651SOL    HW252908   5.573   6.770   5.238  1.0092 -0.2770 -0.6588
16652SOL     OW52909   5.128   0.316   1.441 -0.5010 -0.1792 -0.5247
16652SOL    HW152910   5.072   0.282   1.510  1.9884 -2.3239  0.5868
16652SOL    HW252911   5.191   0.372   1.487  1.0842 -1.5044 -0.9820
16653SOL     OW52912   6.690   7.765   3.372 -0.5162 -0.1201  0.4103
16653SOL    HW152913   6.749   7.697   3.341 -1.0504 -0.3148 -0.1858
16653SOL    HW252914   6.604   7.740   3.339 -0.7698  0.6893  0.4318
16654SOL     OW52915   1.058   5.370   2.412  0.1221 -0.1077  0.2008
16654SOL    HW152916   1.044   5.289   2.461  0.5243 -0.6073 -0.4775
16654SOL    HW252917   0.970   5.401   2.391 -0.0764  0.4051  1.6620
16655SOL     OW52918   3.860   3.218   3.226 -0.1435 -0.1232  0.2772
16655SOL    HW152919   3.859   3.140   3.282 -0.0456  0.3094  0.9036
16655SOL    HW252920   3.885   3.289   3.286 -1.2168  0.5555 -0.0633
16656SOL     OW52921   4.488   2.407   7.519  0.5708  0.1602  0.3307
16656SOL    HW152922   4.529   2.481   7.476  2.2321 -1.7152 -1.5505
16656SOL    HW252923   4.556   2.340   7.522 -0.5386 -0.9865  2.8946
16657SOL     OW52924   6.585   4.623   4.403  0.0321  0.9214 -0.0844
16657SOL    HW152925   6.625   4.705   4.432 -0.2035  2.0286 -2.6707
16657SOL    HW252926   6.583   4.629   4.308 -1.5517 -1.3631 -0.2781
16658SOL     OW52927   2.625   1.522   7.860  0.7663  0.7279  0.2780
16658SOL    HW152928   2.642   1.501   7.952  3.3384 -0.4168 -0.3744
16658SOL    HW252929   2.580   1.606   7.863 -0.5021  0.0793  2.6161
16659SOL     OW52930   3.501   1.765   2.714  0.1407  0.0679 -0.2414
16659SOL    HW152931   3.554   1.686   2.701  0.8310  0.3530  0.7641
16659SOL    HW252932   3.563   1.831   2.745 -1.0069 -0.0081  2.4426
16660SOL     OW52933   5.426   5.640   5.023 -0.2008 -0.3631  0.9683
16660SOL    HW152934   5.496   5.621   5.086  0.9897 -0.9582 -0.4853
16660SOL    HW252935   5.471   5.679   4.948 -1.2830 -1.6451 -0.4066
16661SOL     OW52936   2.177   4.455   7.186 -0.3522  0.0209  0.3430
16661SOL    HW152937   2.260   4.440   7.141 -0.9385  0.1995 -0.8333
16661SOL    HW252938   2.201   4.461   7.278  0.8099 -0.9429  0.1332
16662SOL     OW52939   2.345   6.211   6.995  0.0717  0.0318 -0.1302
16662SOL    HW152940   2.354   6.244   6.906  0.2244 -0.2100 -0.2052
16662SOL    HW252941   2.276   6.144   6.989 -1.1123  1.1764  0.2538
16663SOL     OW52942   3.882   0.407   3.043  0.2438 -0.2110 -0.3217
16663SOL    HW152943   3.884   0.385   3.136 -2.6261 -0.4453 -0.2174
16663SOL    HW252944   3.833   0.489   3.039 -1.3783 -1.1629 -1.6779
16664SOL     OW52945   6.528   2.879   4.481  0.4641  0.4763  0.1073
16664SOL    HW152946   6.599   2.815   4.474  0.6905  0.5834  1.1399
16664SOL    HW252947   6.469   2.841   4.546  1.5892  2.1581  2.2343
16665SOL     OW52948   5.317   0.514   4.016 -0.2215  0.3328 -0.2096
16665SOL    HW152949   5.373   0.534   4.090  0.4369 -0.5082 -0.4686
16665SOL    HW252950   5.311   0.596   3.968  1.8027  0.1672 -0.8460
16666SOL     OW52951   1.144   6.309   7.095 -0.4649  0.2624  0.4581
16666SOL    HW152952   1.154   6.304   7.000 -0.5059  1.8550  0.3321
16666SOL    HW252953   1.232   6.296   7.129 -0.8633 -3.5140  0.4631
16667SOL     OW52954   2.464   4.493   4.619  0.0865 -0.4027  0.1451
16667SOL    HW152955   2.552   4.528   4.628  0.6368 -1.5889 -0.3429
16667SOL    HW252956   2.463   4.414   4.673 -1.4304  0.8346  2.0333
16668SOL     OW52957   3.061   6.114   7.542  0.3662 -0.3380  0.1879
16668SOL    HW152958   3.012   6.137   7.463 -0.8525 -0.4318  0.8883
16668SOL    HW252959   3.147   6.085   7.510 -0.2748 -0.8518 -1.1235
16669SOL     OW52960   6.818   6.108   1.373  0.4745 -0.9126 -0.5440
16669SOL    HW152961   6.760   6.142   1.305  0.9074  0.1461 -0.4055
16669SOL    HW252962   6.878   6.049   1.327 -0.5989 -1.9146 -0.7090
16670SOL     OW52963   0.844   5.415   2.185  0.1083  0.0133 -0.5033
16670SOL    HW152964   0.869   5.339   2.133 -0.5495 -0.0403 -0.7549
16670SOL    HW252965   0.748   5.418   2.178  0.2353  2.3873 -2.6549
16671SOL     OW52966   2.214   3.242   4.695  0.4477 -0.2394  0.0263
16671SOL    HW152967   2.172   3.242   4.781  2.2078  2.3130  0.9728
16671SOL    HW252968   2.142   3.259   4.634 -0.8514 -2.2064  0.8865
16672SOL     OW52969   6.238   8.021   6.004 -0.2962 -0.1136  0.1551
16672SOL    HW152970   6.255   7.965   5.928 -0.2473 -0.7728  0.6515
16672SOL    HW252971   6.200   7.963   6.069  2.0332 -0.1635  1.5952
16673SOL     OW52972   0.889   1.300   7.501 -1.1346 -0.1474  0.6087
16673SOL    HW152973   0.866   1.322   7.411 -1.3801 -0.0792  0.6851
16673SOL    HW252974   0.960   1.237   7.494  1.2425  2.3895  0.3706
16674SOL     OW52975   4.815   4.132   7.125  0.5134 -0.0245 -0.4152
16674SOL    HW152976   4.740   4.073   7.122  1.7660 -1.6343 -1.4832
16674SOL    HW252977   4.778   4.219   7.111 -1.2476 -0.6582  0.0655
16675SOL     OW52978   4.483   5.250   7.849  0.1997  0.0694  0.2704
16675SOL    HW152979   4.414   5.302   7.890  1.7957  1.7173  1.0150
16675SOL    HW252980   4.441   5.167   7.827 -1.6749  0.5324  1.8457
16676SOL     OW52981   3.552   4.965   1.736  0.0734 -0.4137  0.5234
16676SOL    HW152982   3.646   4.974   1.749 -0.0838 -1.4148  2.9036
16676SOL    HW252983   3.536   4.997   1.647  2.4674  0.8930  0.4963
16677SOL     OW52984   1.845   6.020   4.023  0.0993 -0.4118  0.2049
16677SOL    HW152985   1.844   6.114   4.039 -0.4854 -0.7001  2.0668
16677SOL    HW252986   1.910   6.008   3.953  1.8657  1.1554  1.4720
16678SOL     OW52987   4.609   2.920   1.049  0.3673 -0.1645 -0.6607
16678SOL    HW152988   4.681   2.957   0.997  1.9105  1.0351  2.1353
16678SOL    HW252989   4.652   2.869   1.117 -1.3593  1.0022  1.4061
16679SOL     OW52990   5.803   1.151   6.778  0.3614  0.0179 -0.5974
16679SOL    HW152991   5.735   1.213   6.753  1.7508  1.2882 -1.4149
16679SOL    HW252992   5.844   1.190   6.856 -0.4212 -1.2214  0.4894
16680SOL     OW52993   3.653   5.303   3.865  0.4506  0.5846  0.1396
16680SOL    HW152994   3.645   5.244   3.790 -0.5383 -1.3143  1.6258
16680SOL    HW252995   3.566   5.302   3.905  0.8673  1.8148  1.1305
16681SOL     OW52996   1.726   2.019   6.238  0.6543  0.1691  0.4938
16681SOL    HW152997   1.748   2.111   6.220  1.2164  0.1041  0.8115
16681SOL    HW252998   1.779   1.997   6.314 -0.1576 -0.1545  0.9756
16682SOL     OW52999   0.605   2.540   1.239 -0.9067 -0.1990 -0.0356
16682SOL    HW153000   0.523   2.527   1.192  0.1931  0.3607 -2.2739
16682SOL    HW253001   0.668   2.563   1.170  1.8321 -3.4710  1.1049
16683SOL     OW53002   1.991   0.029   1.589  0.6295  0.0860 -0.0088
16683SOL    HW153003   1.972   0.056   1.500  0.2708  1.1183  0.3715
16683SOL    HW253004   2.087   0.031   1.594  0.6341  0.5809 -0.2096
16684SOL     OW53005   6.018   5.466   7.688  0.2208 -0.2931 -0.0232
16684SOL    HW153006   6.109   5.471   7.659  0.6114  2.0868  1.3509
16684SOL    HW253007   6.008   5.540   7.748 -3.3492  1.1645 -2.1432
16685SOL     OW53008   0.896   3.593   5.554 -0.3232  0.3926 -0.1681
16685SOL    HW153009   0.824   3.654   5.571 -0.4954  0.1006  0.1785
16685SOL    HW253010   0.972   3.634   5.595 -0.3896  0.4875 -0.1380
16686SOL     OW53011   7.794   6.268   7.087 -0.0850  0.1530 -0.1411
16686SOL    HW153012   7.719   6.325   7.071  0.3647  0.5696 -0.8248
16686SOL    HW253013   7.756   6.185   7.116 -0.9812 -0.6010 -3.1776
16687SOL     OW53014   5.227   4.932   5.334 -0.1778  0.4966  0.4306
16687SOL    HW153015   5.279   4.982   5.271  0.9610 -1.0851  0.0457
16687SOL    HW253016   5.292   4.879   5.381 -1.1707  0.5587  1.9248
16688SOL     OW53017   3.168   3.300   4.925  0.0586  0.6945  0.3053
16688SOL    HW153018   3.253   3.278   4.886 -0.2361 -0.2100  0.1375
16688SOL    HW253019   3.119   3.341   4.854 -0.4077 -0.7766 -0.2680
16689SOL     OW53020   7.511   7.028   5.484  0.3789  0.2677 -0.3800
16689SOL    HW153021   7.505   7.118   5.451  0.5883  0.4440  0.0610
16689SOL    HW253022   7.598   7.024   5.525  0.0369  0.1119  0.3383
16690SOL     OW53023   4.122   5.512   3.965 -0.1124  0.2978 -0.5882
16690SOL    HW153024   4.154   5.458   4.037 -1.4958  2.6414  1.9857
16690SOL    HW253025   4.032   5.483   3.951 -0.2919  0.7553 -0.4012
16691SOL     OW53026   6.390   6.622   0.334  0.0874  0.2928 -0.2260
16691SOL    HW153027   6.457   6.592   0.396  0.2175  2.1977  0.6247
16691SOL    HW253028   6.360   6.706   0.370 -0.5330  0.9888 -2.2581
16692SOL     OW53029   3.271   4.529   4.850 -0.0200 -0.0507  0.3805
16692SOL    HW153030   3.304   4.610   4.811  0.2323 -0.8412 -1.0880
16692SOL    HW253031   3.259   4.469   4.777 -0.8169 -1.1514  1.3663
16693SOL     OW53032   6.004   2.961   0.215 -0.4105  0.4372 -0.1277
16693SOL    HW153033   6.019   2.986   0.124 -1.1412 -1.1886 -0.7256
16693SOL    HW253034   5.949   3.031   0.250 -1.3494  0.3605 -1.3741
16694SOL     OW53035   3.637   2.642   4.872 -0.0860 -0.0190 -0.7443
16694SOL    HW153036   3.586   2.562   4.882  0.4684 -0.4461 -1.2883
16694SOL    HW253037   3.578   2.711   4.903 -0.3366 -0.6962  0.3277
16695SOL     OW53038   1.208   6.788   1.170  0.0697 -0.3493  0.1122
16695SOL    HW153039   1.258   6.716   1.132 -0.2522  0.6888 -2.4829
16695SOL    HW253040   1.271   6.859   1.180  0.3666 -0.8482  2.5779
16696SOL     OW53041   6.072   7.024   7.615  0.0870 -0.1403 -0.4127
16696SOL    HW153042   5.979   7.011   7.598  0.1898 -0.2783 -0.8696
16696SOL    HW253043   6.075   7.057   7.705 -0.4997  1.0808 -0.8227
16697SOL     OW53044   7.117   7.610   3.749  1.1216 -0.2928  0.1252
16697SOL    HW153045   7.065   7.636   3.674 -1.5289 -2.3170  1.1245
16697SOL    HW253046   7.111   7.684   3.810 -1.3245 -0.7861  0.5451
16698SOL     OW53047   4.041   2.354   1.826 -0.2442  0.2519  0.1334
16698SOL    HW153048   4.020   2.341   1.918 -0.3830 -0.9850 -0.0630
16698SOL    HW253049   3.958   2.384   1.787 -0.5508 -0.5136  0.1698
16699SOL     OW53050   7.037   7.699   4.595  0.4762  0.0887  0.1211
16699SOL    HW153051   7.091   7.735   4.666  0.8108  2.2712 -1.1276
16699SOL    HW253052   6.949   7.695   4.631  0.7925  0.3657  0.9413
16700SOL     OW53053   6.070   0.960   0.484  0.0388 -0.0748 -0.0910
16700SOL    HW153054   6.051   0.874   0.447  1.2311  0.0676 -1.0786
16700SOL    HW253055   6.000   0.974   0.548 -0.1007 -1.8309  0.1908
16701SOL     OW53056   0.354   0.527   4.339 -0.6420 -0.0541 -0.6997
16701SOL    HW153057   0.388   0.540   4.251  1.3879  0.5406  0.1240
16701SOL    HW253058   0.336   0.616   4.371 -1.7375 -0.2881 -0.6256
16702SOL     OW53059   1.617   0.077   5.982 -0.4931 -0.2467 -0.3821
16702SOL    HW153060   1.686   0.104   5.922 -0.4303  1.4869  0.4104
16702SOL    HW253061   1.619   0.143   6.052 -1.4179 -1.4749  0.8493
16703SOL     OW53062   4.124   2.165   1.621  0.4580 -0.3233 -0.0232
16703SOL    HW153063   4.204   2.124   1.654 -0.1118 -0.6911  0.9362
16703SOL    HW253064   4.086   2.209   1.698 -0.2298 -0.1017 -0.4839
16704SOL     OW53065   3.980   2.833   2.493  0.0096 -0.3459 -0.1529
16704SOL    HW153066   3.976   2.902   2.427 -1.2527 -1.5182 -1.3619
16704SOL    HW253067   3.926   2.866   2.565 -0.8961 -0.2235 -0.8741
16705SOL     OW53068   7.204   5.537   6.612 -0.4893  0.2102 -0.0404
16705SOL    HW153069   7.192   5.597   6.685 -2.4689 -0.1174 -0.0456
16705SOL    HW253070   7.218   5.594   6.536  1.7033  0.5491  0.5286
16706SOL     OW53071   3.096   3.545   2.846 -0.1259 -0.3898  0.2749
16706SOL    HW153072   3.011   3.511   2.818 -1.0440  1.1543  1.1041
16706SOL    HW253073   3.149   3.466   2.859 -0.7687 -1.3400 -2.1542
16707SOL     OW53074   3.690   6.016   1.522 -0.5492 -0.5505  0.0863
16707SOL    HW153075   3.721   5.939   1.570 -0.4689 -0.7655 -0.3064
16707SOL    HW253076   3.766   6.074   1.520 -1.4318  0.9127  3.0541
16708SOL     OW53077   3.836   4.866   1.953 -0.2632 -0.0893 -0.0988
16708SOL    HW153078   3.795   4.948   1.982 -2.0951 -1.2428  0.7449
16708SOL    HW253079   3.765   4.802   1.955  1.4113 -2.0231  0.5664
16709SOL     OW53080   1.012   0.459   6.534 -0.7425  0.1951  0.7499
16709SOL    HW153081   0.949   0.515   6.580 -2.4750 -1.0665  0.0168
16709SOL    HW253082   1.059   0.414   6.603 -2.6345 -0.9470  1.3715
16710SOL     OW53083   0.225   7.758   1.769  0.0088 -1.0585 -0.1532
16710SOL    HW153084   0.274   7.778   1.849  0.2455 -1.2596 -0.2443
16710SOL    HW253085   0.148   7.709   1.800  0.0702 -1.0863 -0.0432
16711SOL     OW53086   7.288   3.504   0.727 -0.0966 -0.4992  0.4609
16711SOL    HW153087   7.195   3.483   0.717 -0.2219 -0.7586  1.8987
16711SOL    HW253088   7.327   3.485   0.642 -1.7368  1.7885 -0.9165
16712SOL     OW53089   6.457   5.976   0.537 -0.1081  0.2102 -0.1881
16712SOL    HW153090   6.445   6.041   0.606  1.0274 -0.2602  0.4801
16712SOL    HW253091   6.449   5.891   0.582  2.2142 -0.1175 -0.2833
16713SOL     OW53092   1.970   4.000   3.509 -0.5855  0.0108 -0.3137
16713SOL    HW153093   1.909   3.928   3.492 -0.2691 -0.3974  0.2951
16713SOL    HW253094   1.932   4.046   3.584 -0.7568  0.4556 -0.6641
16714SOL     OW53095   5.335   7.866   7.915  0.1346  0.4154 -0.0402
16714SOL    HW153096   5.371   7.870   8.004  1.9127 -0.4484 -0.6641
16714SOL    HW253097   5.375   7.787   7.877 -0.6507  0.7223 -1.5867
16715SOL     OW53098   3.163   4.433   7.425 -0.0070 -0.1580 -0.1945
16715SOL    HW153099   3.245   4.474   7.452 -0.3884  0.8830 -0.5958
16715SOL    HW253100   3.112   4.428   7.506  0.0181  0.2238 -0.1527
16716SOL     OW53101   3.236   7.947   1.326 -0.9434 -0.1108 -0.2987
16716SOL    HW153102   3.256   7.921   1.236 -0.0228 -0.6635  0.0515
16716SOL    HW253103   3.141   7.953   1.329 -1.0109 -0.6138 -1.1629
16717SOL     OW53104   2.951   6.083   3.304 -0.3211 -0.0377  0.2294
16717SOL    HW153105   2.876   6.120   3.353  1.2214 -0.4440  3.1140
16717SOL    HW253106   2.969   6.148   3.236 -2.1843  0.9160  0.5718
16718SOL     OW53107   7.659   6.817   3.117  0.6598 -0.2805  0.3854
16718SOL    HW153108   7.678   6.893   3.171  1.0190  0.5610 -0.8862
16718SOL    HW253109   7.604   6.761   3.172  1.9385  0.0012  2.0244
16719SOL     OW53110   5.916   2.019   3.895 -0.0519  0.0571  0.0150
16719SOL    HW153111   5.850   2.081   3.865 -0.1625  0.5669  1.2534
16719SOL    HW253112   5.995   2.043   3.845 -0.0388  1.3356  0.6000
16720SOL     OW53113   3.479   1.135   0.504  0.2020 -0.6849 -0.6036
16720SOL    HW153114   3.441   1.057   0.463  0.3990  0.3158 -2.7988
16720SOL    HW253115   3.414   1.204   0.490  1.0793  0.1047 -0.8814
16721SOL     OW53116   3.225   4.982   5.129 -0.0486  0.0072  0.4789
16721SOL    HW153117   3.150   4.926   5.148 -1.2121  0.9769 -0.9997
16721SOL    HW253118   3.267   4.997   5.213 -2.6524  1.0141  1.6992
16722SOL     OW53119   4.290   3.749   1.599 -0.2444 -0.0224 -0.5202
16722SOL    HW153120   4.295   3.716   1.509  0.7963 -0.2677 -0.3829
16722SOL    HW253121   4.381   3.758   1.626 -0.5508  0.0757  0.5051
16723SOL     OW53122   4.223   2.422   7.279  0.2391 -0.0958  0.6660
16723SOL    HW153123   4.317   2.440   7.276  0.4531 -1.1893 -1.0792
16723SOL    HW253124   4.213   2.358   7.350  0.6684  0.6893  1.4487
16724SOL     OW53125   1.334   3.320   6.880  0.1275 -0.4616 -0.0795
16724SOL    HW153126   1.334   3.274   6.964 -0.3691  0.5960  0.5201
16724SOL    HW253127   1.426   3.323   6.854  0.2386 -1.1592  0.2131
16725SOL     OW53128   0.589   4.157   5.005  0.0538  0.0162  0.1337
16725SOL    HW153129   0.514   4.216   5.000  1.3790  1.8339  0.4027
16725SOL    HW253130   0.613   4.141   4.914  0.1601  0.5917  0.0503
16726SOL     OW53131   7.095   3.789   5.420  0.7975 -0.0121 -0.4820
16726SOL    HW153132   7.031   3.747   5.478  2.2772 -2.1875 -0.3063
16726SOL    HW253133   7.133   3.859   5.473 -1.2011  1.1620 -0.5121
16727SOL     OW53134   3.486   0.255   1.025  0.2702 -0.7024  0.4940
16727SOL    HW153135   3.475   0.325   1.090 -0.3113  0.0814 -0.4167
16727SOL    HW253136   3.403   0.207   1.026  1.0429 -2.0855  1.8772
16728SOL     OW53137   3.364   3.978   3.937 -0.3657 -0.1901 -0.2839
16728SOL    HW153138   3.437   4.008   3.883 -0.9479  1.6394 -0.1368
16728SOL    HW253139   3.339   3.894   3.899  1.5311 -0.6735 -0.5799
16729SOL     OW53140   3.980   6.454   6.678 -0.0133 -0.3418 -0.1304
16729SOL    HW153141   4.063   6.498   6.697  0.7137 -1.8072  0.2674
16729SOL    HW253142   3.937   6.447   6.763 -1.5292  2.1607 -0.5786
16730SOL     OW53143   0.503   0.023   5.288 -0.0487  0.1935 -0.3968
16730SOL    HW153144   0.408   0.025   5.277 -0.3267  1.6173  1.7102
16730SOL    HW253145   0.529   0.115   5.286  1.4217 -0.2117 -1.7094
16731SOL     OW53146   5.491   6.731   1.896  0.4123  0.2677 -0.3169
16731SOL    HW153147   5.579   6.768   1.902  0.7590 -0.3409 -1.3053
16731SOL    HW253148   5.444   6.767   1.971  1.8328 -0.3080  0.8795
16732SOL     OW53149   4.353   6.687   1.663 -0.1606  0.0548  0.4875
16732SOL    HW153150   4.338   6.609   1.716  1.2454 -1.3530 -1.0800
16732SOL    HW253151   4.430   6.728   1.703 -0.1002 -0.0862  0.5163
16733SOL     OW53152   0.232   4.685   7.620  0.0052  0.0700 -0.4356
16733SOL    HW153153   0.292   4.728   7.559  0.4477  0.8211  0.5078
16733SOL    HW253154   0.226   4.745   7.695 -2.6463  0.4727 -0.8647
16734SOL     OW53155   5.071   0.708   8.036  0.0024  0.0399  0.3989
16734SOL    HW153156   5.094   0.781   8.093 -0.1310  1.3879 -1.1930
16734SOL    HW253157   5.130   0.638   8.063  0.2372  0.7605  1.8800
16735SOL     OW53158   4.372   1.050   6.509 -0.1684  0.1564  0.0275
16735SOL    HW153159   4.298   0.995   6.482 -1.1376  1.1992  0.4674
16735SOL    HW253160   4.435   1.041   6.438 -1.0174 -0.2226 -0.7065
16736SOL     OW53161   8.081   6.272   6.206  0.1460 -0.4832  0.2205
16736SOL    HW153162   7.991   6.263   6.175  0.2396  0.2545 -0.3017
16736SOL    HW253163   8.092   6.366   6.221  1.3754 -0.2927 -1.4967
16737SOL     OW53164   5.440   3.141   4.866  0.2934  0.1248 -0.2011
16737SOL    HW153165   5.452   3.051   4.897  0.8833  0.3938  0.3728
16737SOL    HW253166   5.494   3.146   4.787  0.9730  0.2249  0.2623
16738SOL     OW53167   6.199   8.050   5.618  0.0430  0.4926  0.5053
16738SOL    HW153168   6.105   8.036   5.614 -0.0380  0.4389  1.9805
16738SOL    HW253169   6.228   8.046   5.527 -1.5336  1.6950 -0.0806
16739SOL     OW53170   3.414   0.045   4.646 -0.5601  0.3778 -0.0077
16739SOL    HW153171   3.410   0.061   4.741 -1.0242  0.2376  0.0000
16739SOL    HW253172   3.449   0.125   4.609 -1.4974  0.8847  0.1683
16740SOL     OW53173   2.192   6.680   5.053 -0.3831  0.5141 -0.3266
16740SOL    HW153174   2.281   6.686   5.016 -0.8713 -1.0115 -1.8465
16740SOL    HW253175   2.206   6.683   5.147  1.8565 -4.2712 -0.2099
16741SOL     OW53176   3.108   4.401   1.193 -1.1592  0.1756 -0.2312
16741SOL    HW153177   3.058   4.363   1.265 -0.9421  2.9930  1.5781
16741SOL    HW253178   3.048   4.464   1.153  0.0990  1.9807  0.5411
16742SOL     OW53179   4.500   3.642   0.105  0.3075  0.4628  0.0313
16742SOL    HW153180   4.436   3.701   0.143  0.8847 -0.3843  2.6059
16742SOL    HW253181   4.585   3.681   0.127  0.7739  1.2221 -2.7256
16743SOL     OW53182   7.606   7.261   2.621  0.1796  0.0448  0.6227
16743SOL    HW153183   7.567   7.346   2.600  1.2396  0.4684  0.2663
16743SOL    HW253184   7.570   7.239   2.707 -1.1518  0.2007  0.1218
16744SOL     OW53185   1.512   2.390   0.210  0.1441 -0.5189  0.0733
16744SOL    HW153186   1.488   2.477   0.242  2.7751 -0.5275  2.4588
16744SOL    HW253187   1.540   2.404   0.120 -0.8356  0.8236 -0.0450
16745SOL     OW53188   2.541   4.501   7.292 -0.3815 -0.0606 -0.2467
16745SOL    HW153189   2.561   4.545   7.209  1.9737  1.5442  1.0502
16745SOL    HW253190   2.541   4.571   7.357 -2.3520 -1.2483  1.1516
16746SOL     OW53191   3.594   4.727   3.635  0.4242  0.1886 -0.0381
16746SOL    HW153192   3.556   4.787   3.570  1.9488  0.3422 -0.8190
16746SOL    HW253193   3.522   4.668   3.658 -1.3043  2.5830  1.1496
16747SOL     OW53194   0.626   5.812   8.092  0.0760 -0.2847 -0.4816
16747SOL    HW153195   0.658   5.890   8.046  0.4937 -0.5164 -0.5944
16747SOL    HW253196   0.573   5.846   8.164 -0.5930  0.0812 -1.1375
16748SOL     OW53197   1.900   2.846   7.849  0.0378 -0.2241  0.2995
16748SOL    HW153198   1.939   2.826   7.764 -0.4944 -0.3801  0.0907
16748SOL    HW253199   1.855   2.765   7.875  0.4553 -0.2828  0.8771
16749SOL     OW53200   7.242   7.254   5.939  0.3265 -0.7862 -0.1667
16749SOL    HW153201   7.239   7.166   5.900 -0.4053  0.1437 -2.3090
16749SOL    HW253202   7.150   7.275   5.955  0.4397 -0.0684 -0.4602
16750SOL     OW53203   2.031   1.443   0.265  0.9698  0.3898 -0.0428
16750SOL    HW153204   2.113   1.479   0.230  1.3146 -0.8324 -0.5560
16750SOL    HW253205   1.973   1.438   0.189  0.9740 -0.2377 -0.0081
16751SOL     OW53206   7.569   5.362   5.665 -0.2512  0.4512  0.0056
16751SOL    HW153207   7.484   5.320   5.677 -1.3978  2.6141 -0.0392
16751SOL    HW253208   7.587   5.352   5.572 -0.7868  0.5461 -0.1152
16752SOL     OW53209   2.157   4.716   5.006 -0.0129 -0.2260  0.1715
16752SOL    HW153210   2.212   4.701   4.929 -2.2982 -2.9535 -1.0868
16752SOL    HW253211   2.191   4.654   5.071 -0.9196 -1.2161 -0.2743
16753SOL     OW53212   8.002   5.196   6.888 -0.7898  0.4317 -0.0254
16753SOL    HW153213   8.004   5.100   6.883 -0.5537  0.3253  1.7156
16753SOL    HW253214   8.092   5.220   6.910 -1.5978  0.7378  3.5168
16754SOL     OW53215   0.742   1.986   7.733  0.0930 -0.0904 -0.4615
16754SOL    HW153216   0.653   1.988   7.699  0.5110 -0.3256 -1.6190
16754SOL    HW253217   0.763   1.893   7.740 -0.6360 -0.1323  2.3254
16755SOL     OW53218   5.457   0.685   3.514 -0.3372  0.5759 -0.4830
16755SOL    HW153219   5.499   0.766   3.484 -1.1254  1.2931  0.2891
16755SOL    HW253220   5.527   0.621   3.516  0.3939  1.3464 -0.7227
16756SOL     OW53221   3.589   2.036   2.102  0.2236  0.7656 -0.6088
16756SOL    HW153222   3.564   2.084   2.180  1.1702 -1.5371  1.2531
16756SOL    HW253223   3.507   1.999   2.069 -0.0167  0.5928  0.1555
16757SOL     OW53224   3.775   0.822   6.582  0.2534 -0.1921 -0.6746
16757SOL    HW153225   3.740   0.901   6.541  0.4605 -0.3554 -1.1700
16757SOL    HW253226   3.804   0.768   6.509 -1.0337 -1.2776 -0.4047
16758SOL     OW53227   4.727   7.478   7.396 -0.2641  0.0247  0.0497
16758SOL    HW153228   4.769   7.426   7.465  0.7556  0.6594 -0.0637
16758SOL    HW253229   4.768   7.565   7.404 -1.3694  0.5977 -0.2557
16759SOL     OW53230   7.584   3.443   8.110  0.0468  0.0782 -0.2992
16759SOL    HW153231   7.520   3.442   8.038  0.8684  0.4980 -1.0579
16759SOL    HW253232   7.631   3.361   8.101 -0.9039 -0.6191  0.7719
16760SOL     OW53233   0.042   1.392   4.770 -0.1060 -0.0092  0.3918
16760SOL    HW153234   0.100   1.387   4.694 -1.1539  1.1799 -0.5242
16760SOL    HW253235   0.031   1.301   4.798  1.2599 -0.3605 -0.1023
16761SOL     OW53236   0.379   7.548   4.945 -0.2324  0.2134 -0.1841
16761SOL    HW153237   0.413   7.560   5.034  0.8055 -0.6861 -0.4409
16761SOL    HW253238   0.417   7.465   4.916 -0.1888  0.7228 -1.6445
16762SOL     OW53239   3.305   3.646   0.485 -0.4962  0.0855 -0.3774
16762SOL    HW153240   3.313   3.557   0.518  0.7500 -0.2474 -1.4999
16762SOL    HW253241   3.328   3.701   0.560 -0.0543 -0.5802 -0.0125
16763SOL     OW53242   0.466   3.033   7.999 -0.1506  0.1010  0.1888
16763SOL    HW153243   0.423   3.018   8.084 -0.5679 -2.3213 -0.3887
16763SOL    HW253244   0.409   3.097   7.955 -2.3992 -1.8341  0.0817
16764SOL     OW53245   4.736   4.466   0.448 -0.6285 -0.3372  0.3575
16764SOL    HW153246   4.644   4.481   0.467 -0.5125  0.8993  0.0600
16764SOL    HW253247   4.782   4.517   0.516 -0.1835 -0.2335 -0.0198
16765SOL     OW53248   5.978   6.425   1.600 -0.3700  0.2817 -0.0359
16765SOL    HW153249   5.942   6.511   1.621  0.0763  0.2716  0.8245
16765SOL    HW253250   6.029   6.401   1.678 -1.0533 -1.0624  0.0223
16766SOL     OW53251   2.990   6.963   0.925 -0.0075  0.5204 -0.5115
16766SOL    HW153252   3.033   6.949   0.841  0.8592  0.1957 -0.0286
16766SOL    HW253253   2.896   6.959   0.906  0.1843 -0.2638 -1.3421
16767SOL     OW53254   7.309   6.303   3.466  0.4460 -0.1767 -0.2446
16767SOL    HW153255   7.400   6.321   3.488  0.1949  1.1930 -0.2491
16767SOL    HW253256   7.303   6.317   3.372  0.0984  0.3620 -0.1468
16768SOL     OW53257   0.469   6.074   5.890 -0.0100  0.3050  0.2833
16768SOL    HW153258   0.465   6.081   5.985  0.4181  1.0403  0.2541
16768SOL    HW253259   0.555   6.036   5.872  0.3468  1.1436  0.1560
16769SOL     OW53260   6.342   5.676   1.521 -0.3350  0.1133 -0.5897
16769SOL    HW153261   6.427   5.704   1.556  1.5575 -3.7253 -1.4834
16769SOL    HW253262   6.334   5.722   1.437  0.4106  1.1626 -0.1076
16770SOL     OW53263   2.424   6.386   1.102 -0.0872 -0.0877 -0.2762
16770SOL    HW153264   2.433   6.352   1.191 -0.4339  0.0023 -0.2043
16770SOL    HW253265   2.379   6.316   1.054  2.1169 -1.1200 -0.9857
16771SOL     OW53266   3.496   1.375   0.250 -0.0852 -0.1590  0.7169
16771SOL    HW153267   3.443   1.356   0.327  0.1036 -0.6279  0.7325
16771SOL    HW253268   3.548   1.295   0.236  1.7234  0.7982  1.5906
16772SOL     OW53269   5.004   5.153   5.779  0.5142 -0.4840  0.3296
16772SOL    HW153270   5.016   5.143   5.685  0.0068 -0.7593  0.2954
16772SOL    HW253271   5.019   5.246   5.795 -0.7085 -0.1745 -0.2166
16773SOL     OW53272   0.871   5.016   1.539 -0.1122  0.4978 -0.6789
16773SOL    HW153273   0.792   4.993   1.590  0.3124 -0.5104 -0.4404
16773SOL    HW253274   0.941   4.965   1.580  0.0163 -1.4113 -3.0478
16774SOL     OW53275   2.306   1.444   5.524  0.2002 -0.0714  0.0472
16774SOL    HW153276   2.211   1.432   5.533  0.3834 -0.9924  0.8985
16774SOL    HW253277   2.329   1.504   5.595  0.0422  1.4036 -1.1111
16775SOL     OW53278   3.846   3.793   3.370 -0.3543 -0.6079 -0.2483
16775SOL    HW153279   3.831   3.750   3.454  2.5160 -0.9927  0.1622
16775SOL    HW253280   3.902   3.868   3.391  1.5663 -1.4818 -1.8994
16776SOL     OW53281   3.439   7.662   2.294  0.8412 -0.1281 -0.2872
16776SOL    HW153282   3.430   7.685   2.202  0.7796  1.3649  0.0720
16776SOL    HW253283   3.373   7.714   2.339 -1.7526 -3.5736  0.2667
16777SOL     OW53284   1.965   0.693   2.756  0.2267  0.1081 -0.4562
16777SOL    HW153285   1.965   0.727   2.845 -1.0296  0.4235 -0.5633
16777SOL    HW253286   1.920   0.760   2.704 -0.6267 -0.8447 -1.0026
16778SOL     OW53287   4.775   3.816   7.945  0.1949  0.1427 -0.3473
16778SOL    HW153288   4.841   3.885   7.954  1.0148 -0.6913  0.1608
16778SOL    HW253289   4.706   3.842   8.006  0.2941  0.7336 -0.4726
16779SOL     OW53290   6.605   7.930   4.485  0.2886 -0.1683  0.3607
16779SOL    HW153291   6.654   7.853   4.458  0.6358  0.0449  0.3869
16779SOL    HW253292   6.645   8.003   4.437 -0.2904 -0.0575  0.0357
16780SOL     OW53293   3.816   4.742   5.987  0.2752  0.2009  0.4809
16780SOL    HW153294   3.890   4.784   5.944 -0.3006  0.0098 -0.7167
16780SOL    HW253295   3.853   4.702   6.066  1.1287  1.5602  0.7982
16781SOL     OW53296   1.977   1.128   2.307  0.4069  0.0114 -0.1308
16781SOL    HW153297   1.927   1.100   2.383  1.1758 -2.4289 -0.4299
16781SOL    HW253298   1.961   1.222   2.301 -3.0661 -0.3966  0.5355
16782SOL     OW53299   4.740   3.313   2.930  0.1418  0.1136  0.2152
16782SOL    HW153300   4.677   3.268   2.986 -0.0565  1.1432  0.8389
16782SOL    HW253301   4.796   3.361   2.991 -0.5453  1.8714 -0.4711
16783SOL     OW53302   4.024   1.524   1.059 -0.0475 -0.8252  0.8244
16783SOL    HW153303   4.055   1.546   0.971  1.8780  2.0195  2.0292
16783SOL    HW253304   4.076   1.449   1.085  0.6686 -0.5741  0.1599
16784SOL     OW53305   5.191   1.776   5.070  0.3659  0.0403 -0.6621
16784SOL    HW153306   5.116   1.715   5.074  0.8780 -0.5104  1.1766
16784SOL    HW253307   5.153   1.861   5.091 -0.0236  0.0547 -1.3798
16785SOL     OW53308   3.481   2.373   3.643  0.1757  0.0754  0.1660
16785SOL    HW153309   3.570   2.360   3.610  0.6211  2.7457  0.1106
16785SOL    HW253310   3.426   2.367   3.565  0.6209  0.9270 -0.2281
16786SOL     OW53311   8.071   1.461   6.294  0.6111  0.0630 -0.0373
16786SOL    HW153312   8.083   1.556   6.294 -3.3553  0.7554  1.3133
16786SOL    HW253313   8.014   1.444   6.219 -1.9163 -0.5390  1.8776
16787SOL     OW53314   0.639   6.524   2.383 -0.0484  0.7987  0.0493
16787SOL    HW153315   0.710   6.536   2.321  0.1330  0.1827  0.1335
16787SOL    HW253316   0.635   6.430   2.398 -0.0602  0.9366  0.9998
16788SOL     OW53317   4.958   0.145   1.641  0.0366 -0.2206  0.2693
16788SOL    HW153318   4.965   0.050   1.649 -1.5997 -0.3831  0.0572
16788SOL    HW253319   4.885   0.159   1.581  1.5679  1.1630 -1.3979
16789SOL     OW53320   5.621   3.308   7.847  0.9614  0.2566  0.4078
16789SOL    HW153321   5.527   3.329   7.839  1.1046  1.3792  1.3995
16789SOL    HW253322   5.638   3.309   7.941  2.5531  3.0393  0.2042
16790SOL     OW53323   3.508   5.020   0.571  0.4721 -0.0960  0.1365
16790SOL    HW153324   3.554   4.972   0.502 -0.4701  0.0886 -0.6263
16790SOL    HW253325   3.498   4.956   0.642  1.5069 -0.2642  0.1546
16791SOL     OW53326   4.779   0.179   5.564  0.0062  0.9247  0.0188
16791SOL    HW153327   4.767   0.185   5.658 -0.9356  0.0388 -0.0252
16791SOL    HW253328   4.691   0.162   5.529  0.4788  0.2577 -0.9169
16792SOL     OW53329   6.000   3.811   2.088  0.4944  0.3272 -0.0292
16792SOL    HW153330   6.075   3.754   2.109  0.0106  0.1231  1.2626
16792SOL    HW253331   6.035   3.875   2.026  1.5326 -0.2471 -0.0636
16793SOL     OW53332   1.978   0.960   1.821  0.0348  0.0638  0.4258
16793SOL    HW153333   1.932   0.966   1.737  0.2216  0.6206  0.3597
16793SOL    HW253334   1.920   0.908   1.876 -1.2549  1.7032  0.7071
16794SOL     OW53335   6.977   2.002   1.757 -0.1578 -0.4335 -0.1900
16794SOL    HW153336   7.010   2.006   1.667 -0.1092 -1.4407 -0.2231
16794SOL    HW253337   7.047   1.957   1.806 -0.5030 -0.5501  0.2019
16795SOL     OW53338   1.050   2.884   7.741 -0.5031  0.0197  0.2869
16795SOL    HW153339   1.096   2.813   7.786  0.4773  2.3136  3.1714
16795SOL    HW253340   0.965   2.889   7.785 -0.8807  0.1669 -0.4434
16796SOL     OW53341   6.287   2.735   6.757  0.0926 -0.2179  0.3283
16796SOL    HW153342   6.383   2.734   6.755  0.1564  1.9399  0.7594
16796SOL    HW253343   6.266   2.725   6.850  0.0084  1.7693  0.5614
16797SOL     OW53344   3.474   6.840   5.611 -0.0894  0.1910 -0.5577
16797SOL    HW153345   3.505   6.798   5.531 -1.3586 -0.9686 -0.4766
16797SOL    HW253346   3.379   6.846   5.601 -0.2869 -0.0078  0.8500
16798SOL     OW53347   5.833   3.185   5.703 -0.3548 -0.1070  0.1423
16798SOL    HW153348   5.857   3.222   5.619 -0.4273 -0.8182 -0.1974
16798SOL    HW253349   5.765   3.121   5.683 -0.5359 -0.1183  0.7664
16799SOL     OW53350   7.784   0.955   7.607  0.1769 -0.1884  0.1490
16799SOL    HW153351   7.736   1.038   7.598 -0.3429 -0.5716 -0.7250
16799SOL    HW253352   7.800   0.947   7.701 -1.1175  0.1557  0.4192
16800SOL     OW53353   7.405   0.899   7.015 -0.1207 -0.1423 -0.4904
16800SOL    HW153354   7.447   0.871   7.096  0.0407  1.1741 -0.1119
16800SOL    HW253355   7.357   0.979   7.038 -1.3687 -0.6043 -1.3317
16801SOL     OW53356   0.081   4.540   5.664  0.2851  0.1664  0.2769
16801SOL    HW153357   0.176   4.540   5.677  0.3118  0.6519  0.0894
16801SOL    HW253358   0.068   4.489   5.584  0.4342  0.5520  0.0030
16802SOL     OW53359   2.293   2.233   3.784  0.2134  0.5048 -0.5006
16802SOL    HW153360   2.314   2.160   3.726  0.8142 -0.6838  1.1538
16802SOL    HW253361   2.198   2.243   3.776 -0.8432 -3.7822  2.8000
16803SOL     OW53362   6.985   0.341   1.465  0.1340  0.0277  0.1818
16803SOL    HW153363   7.054   0.331   1.530  0.2294  0.2265  0.1118
16803SOL    HW253364   7.030   0.373   1.387  0.0286 -0.2653 -0.0020
16804SOL     OW53365   3.103   4.097   3.298  0.2585  0.1716 -0.3473
16804SOL    HW153366   3.197   4.104   3.285  0.6973 -0.1614  2.2029
16804SOL    HW253367   3.090   4.012   3.339 -0.7371  1.4761  2.2317
16805SOL     OW53368   5.011   0.559   1.787  0.0919  0.2794 -0.2952
16805SOL    HW153369   5.103   0.549   1.814 -0.2832  0.5354  1.1467
16805SOL    HW253370   5.007   0.645   1.747  0.0863  1.1807  1.5322
16806SOL     OW53371   2.102   6.439   1.286 -0.0510  0.2181 -0.0711
16806SOL    HW153372   2.121   6.356   1.241  2.3321  0.0599  1.1017
16806SOL    HW253373   2.100   6.504   1.216  0.6266 -0.4675 -0.7533
16807SOL     OW53374   6.951   7.832   6.280 -0.4650  0.3066  0.1120
16807SOL    HW153375   6.930   7.919   6.245 -0.5295  0.2452 -0.0066
16807SOL    HW253376   6.874   7.808   6.333 -0.2323  0.5310  0.5509
16808SOL     OW53377   0.225   7.967   3.740  1.2764 -0.4115  0.1194
16808SOL    HW153378   0.201   7.952   3.648  0.3239  1.6376 -0.0353
16808SOL    HW253379   0.275   8.049   3.737  0.5455  0.1048  1.5122
16809SOL     OW53380   1.564   4.185   3.268  0.6587 -0.5988 -0.3207
16809SOL    HW153381   1.625   4.245   3.312  0.6336 -1.2469  0.6073
16809SOL    HW253382   1.588   4.098   3.299 -1.6306 -0.7643  1.1843
16810SOL     OW53383   6.163   6.717   5.617  0.1487 -0.3532  0.3633
16810SOL    HW153384   6.083   6.745   5.574 -0.2830 -0.3741  1.1422
16810SOL    HW253385   6.167   6.622   5.602  0.6920 -0.1675 -0.7528
16811SOL     OW53386   6.118   6.543   0.918 -0.0787 -0.1494  0.0673
16811SOL    HW153387   6.107   6.612   0.984 -0.0114  1.3244 -1.3860
16811SOL    HW253388   6.067   6.574   0.843  0.5589 -1.3340 -0.8805
16812SOL     OW53389   5.545   6.558   4.232 -0.3145 -0.5507 -0.0768
16812SOL    HW153390   5.633   6.563   4.270  0.2677 -1.6021 -1.2265
16812SOL    HW253391   5.486   6.573   4.306  0.7954 -1.1659  0.9681
16813SOL     OW53392   6.449   5.006   6.093 -0.1234 -0.3649 -0.2173
16813SOL    HW153393   6.448   5.087   6.042 -0.7174  0.0902  0.5086
16813SOL    HW253394   6.509   5.023   6.165 -2.7377  0.6744  1.8678
16814SOL     OW53395   2.414   1.677   4.146 -0.0072 -0.0914  0.5301
16814SOL    HW153396   2.393   1.740   4.077  1.0352 -0.9983 -0.6856
16814SOL    HW253397   2.452   1.729   4.217  2.2775  0.5754 -1.0524
16815SOL     OW53398   6.676   5.817   7.111  0.0350  0.2262 -0.3840
16815SOL    HW153399   6.589   5.801   7.148 -0.3402 -0.5809 -1.5693
16815SOL    HW253400   6.669   5.789   7.020  1.4997  0.3076 -0.5439
16816SOL     OW53401   1.614   6.204   6.265  0.3805  0.3189  0.4949
16816SOL    HW153402   1.557   6.276   6.293  1.0617  1.4314 -0.8413
16816SOL    HW253403   1.573   6.126   6.302 -0.3229  1.3805  2.1074
16817SOL     OW53404   7.647   3.943   2.280  0.0822 -0.0072 -0.2040
16817SOL    HW153405   7.658   3.887   2.357  1.4561 -0.0123 -0.3787
16817SOL    HW253406   7.628   4.030   2.315  0.7962  0.0081  0.1500
16818SOL     OW53407   4.974   7.853   2.111  0.2401 -0.1091  0.1954
16818SOL    HW153408   5.043   7.894   2.163  0.2229  1.5233 -1.0159
16818SOL    HW253409   4.929   7.926   2.068 -0.6365 -1.3096 -1.0096
16819SOL     OW53410   7.678   1.380   0.053 -0.2869 -0.2709 -0.5177
16819SOL    HW153411   7.623   1.305   0.074 -0.6375  0.2680  0.5354
16819SOL    HW253412   7.727   1.397   0.133 -0.5083  0.8818 -0.6202
16820SOL     OW53413   7.100   0.088   8.038  0.2232 -0.2150  0.4581
16820SOL    HW153414   7.150   0.064   8.116  1.0290 -1.0161 -0.2827
16820SOL    HW253415   7.127   0.178   8.019  1.9657 -0.8436 -0.3184
16821SOL     OW53416   1.942   2.461   5.031  0.0150 -0.3508  0.4610
16821SOL    HW153417   1.879   2.505   4.975 -0.5083 -0.5381  0.8976
16821SOL    HW253418   1.937   2.369   5.005  0.8411 -0.2279 -0.1945
16822SOL     OW53419   1.785   5.858   2.644  0.4062  0.0049  0.2021
16822SOL    HW153420   1.722   5.804   2.597  0.9990  0.0262 -0.6504
16822SOL    HW253421   1.842   5.795   2.689  1.8928 -0.1933 -1.8233
16823SOL     OW53422   6.726   7.735   0.934  0.2864 -0.0498  0.2815
16823SOL    HW153423   6.699   7.677   0.862  1.1830  0.8019 -0.7587
16823SOL    HW253424   6.767   7.676   0.998 -0.1773 -0.7593 -0.0569
16824SOL     OW53425   3.649   4.662   5.699  0.1751  0.0526  0.0388
16824SOL    HW153426   3.723   4.713   5.732 -1.2049  2.2448 -0.0611
16824SOL    HW253427   3.601   4.637   5.778 -0.1382  0.5333  0.0072
16825SOL     OW53428   1.857   6.320   3.058  0.0940 -0.3174  0.2718
16825SOL    HW153429   1.867   6.343   3.151 -1.2377 -0.2678  0.4295
16825SOL    HW253430   1.920   6.250   3.043 -0.4525 -1.1081  1.5186
16826SOL     OW53431   3.818   5.933   0.446  0.3101  0.0183 -0.5545
16826SOL    HW153432   3.786   5.852   0.408 -1.6340 -0.6667  2.2162
16826SOL    HW253433   3.912   5.919   0.457  0.2530 -1.2350 -1.4966
16827SOL     OW53434   5.035   6.160   5.587 -0.2625 -0.1741  0.1300
16827SOL    HW153435   4.956   6.116   5.618 -2.2710  2.6623 -0.5776
16827SOL    HW253436   5.055   6.117   5.503 -1.1621 -0.7883  0.2217
16828SOL     OW53437   1.417   1.041   7.848 -0.3111 -0.4891 -0.1849
16828SOL    HW153438   1.486   1.034   7.782  1.0673  2.3068  0.7575
16828SOL    HW253439   1.463   1.072   7.927 -2.2812 -1.1579  1.3024
16829SOL     OW53440   5.439   2.251   1.175  0.3289  0.4440 -0.4936
16829SOL    HW153441   5.436   2.228   1.267  1.4031  1.0809 -0.2753
16829SOL    HW253442   5.462   2.169   1.130 -0.0494  0.1694 -0.1899
16830SOL     OW53443   6.944   6.531   2.698  0.0764 -0.2635 -0.3619
16830SOL    HW153444   6.884   6.592   2.656 -1.0455 -1.0341  0.0861
16830SOL    HW253445   6.927   6.447   2.655  1.0162 -0.4534 -0.3942
16831SOL     OW53446   2.089   1.388   7.824  0.1359 -0.0099  0.4186
16831SOL    HW153447   2.039   1.466   7.850 -1.1281 -0.1797 -1.3322
16831SOL    HW253448   2.046   1.316   7.871  1.3134  0.2990  2.0487
16832SOL     OW53449   4.959   2.551   5.610 -0.3103 -0.4229 -0.0812
16832SOL    HW153450   5.003   2.535   5.693 -0.1029 -0.3270 -0.1711
16832SOL    HW253451   4.946   2.646   5.608  2.8513  0.1134 -1.7089
16833SOL     OW53452   1.059   4.485   1.041 -0.8047  0.0727  0.6606
16833SOL    HW153453   0.976   4.441   1.020 -0.4427 -0.1987 -0.2341
16833SOL    HW253454   1.039   4.537   1.119 -1.1385 -2.0064  2.0699
16834SOL     OW53455   6.354   7.568   0.910  0.0392  0.3949 -0.1036
16834SOL    HW153456   6.272   7.608   0.881  0.0262  0.4891  0.0674
16834SOL    HW253457   6.397   7.542   0.828 -0.4728 -0.2777 -0.1637
16835SOL     OW53458   3.247   6.442   1.995  0.2171  0.1602 -0.3471
16835SOL    HW153459   3.339   6.461   2.014  0.0567  1.6691 -0.9765
16835SOL    HW253460   3.235   6.468   1.903 -1.1654  1.2869  0.1185
16836SOL     OW53461   7.133   4.852   0.389 -0.6620  0.4812  0.0910
16836SOL    HW153462   7.066   4.794   0.354  0.4656 -1.2423  0.6818
16836SOL    HW253463   7.114   4.937   0.349 -2.8809 -0.0574 -0.1208
16837SOL     OW53464   4.417   0.476   0.256 -0.0228  0.7073  0.1391
16837SOL    HW153465   4.352   0.543   0.277  0.4607  1.1315  0.3002
16837SOL    HW253466   4.385   0.397   0.301 -1.5000  0.3552 -1.4345
16838SOL     OW53467   0.069   2.529   4.776  0.2221  0.0349 -0.9461
16838SOL    HW153468   0.138   2.563   4.832 -1.2222 -1.0887  1.6856
16838SOL    HW253469   0.115   2.486   4.704  2.2184  0.3481  0.0803
16839SOL     OW53470   2.468   7.356   4.408 -0.6143 -0.3592 -0.3817
16839SOL    HW153471   2.420   7.358   4.325  0.1527  0.8018 -0.8273
16839SOL    HW253472   2.400   7.359   4.476 -1.2345 -0.9941 -0.9656
16840SOL     OW53473   2.636   7.924   3.744 -0.2583  0.4752 -0.1670
16840SOL    HW153474   2.595   7.874   3.815 -0.8449  1.5804  0.2936
16840SOL    HW253475   2.621   7.871   3.666 -0.4344 -0.3045  0.3864
16841SOL     OW53476   6.217   4.937   2.234  0.3842 -0.4015  0.2996
16841SOL    HW153477   6.287   4.989   2.195 -0.8477  0.4328 -0.9077
16841SOL    HW253478   6.209   4.860   2.177  0.8473 -0.9095  0.9080
16842SOL     OW53479   4.109   1.271   8.062  0.4837 -0.2239  0.5524
16842SOL    HW153480   4.086   1.344   8.120 -0.0664 -1.5742  2.1110
16842SOL    HW253481   4.170   1.219   8.114  1.2574 -0.6144 -0.7346
16843SOL     OW53482   7.550   5.650   4.976  0.1286  0.0782  0.6472
16843SOL    HW153483   7.588   5.737   4.987  2.0696 -0.5898 -0.3587
16843SOL    HW253484   7.585   5.618   4.893 -2.0804 -0.9215  0.0236
16844SOL     OW53485   6.383   2.826   4.258  0.2865 -0.5638 -0.7037
16844SOL    HW153486   6.441   2.883   4.309  0.6169 -0.6415 -0.9895
16844SOL    HW253487   6.427   2.740   4.259 -1.2359 -1.4009  1.5255
16845SOL     OW53488   8.043   2.341   4.926  0.0249 -0.7063  0.2049
16845SOL    HW153489   8.049   2.411   4.860 -1.4261 -0.4000  0.3558
16845SOL    HW253490   7.985   2.276   4.886  0.5816 -1.3773  0.4679
16846SOL     OW53491   2.097   6.426   5.906  0.0265  0.4220 -0.2835
16846SOL    HW153492   2.041   6.482   5.853  0.3332 -0.1768 -1.2621
16846SOL    HW253493   2.174   6.480   5.926 -0.7757  1.1750  0.8918
16847SOL     OW53494   5.194   3.351   3.645 -0.4067 -0.1940 -0.0068
16847SOL    HW153495   5.232   3.336   3.732 -0.5373 -0.4943  0.0006
16847SOL    HW253496   5.259   3.316   3.584 -1.3558 -2.2231  0.0627
16848SOL     OW53497   0.905   4.201   4.146  0.2030  0.0511  0.0185
16848SOL    HW153498   0.867   4.281   4.109 -0.8869 -0.5710 -0.2355
16848SOL    HW253499   0.989   4.230   4.182 -0.5888  1.5232  0.8037
16849SOL     OW53500   6.059   6.917   4.307  0.2744  0.2581  0.1480
16849SOL    HW153501   6.024   6.995   4.264  1.0671 -0.1589 -1.3375
16849SOL    HW253502   6.136   6.948   4.355  0.6626  0.3866 -0.5457
16850SOL     OW53503   6.367   2.760   2.500 -0.1037  0.2964 -0.4251
16850SOL    HW153504   6.278   2.765   2.463 -0.4959  0.6331  0.5175
16850SOL    HW253505   6.375   2.840   2.551  1.3679  1.0629 -1.7982
16851SOL     OW53506   2.225   3.026   5.084  0.6228 -0.2558  0.2498
16851SOL    HW153507   2.169   2.991   5.153 -0.6459 -1.2012 -1.1839
16851SOL    HW253508   2.275   3.096   5.126  0.5017 -1.3299  2.3026
16852SOL     OW53509   1.581   3.679   5.396  0.1878  0.2401 -0.4484
16852SOL    HW153510   1.649   3.656   5.460 -0.2659 -0.3378 -0.1661
16852SOL    HW253511   1.628   3.729   5.329  1.3053 -1.7188 -1.2313
16853SOL     OW53512   6.324   1.814   0.707  0.1599  0.0492  0.1648
16853SOL    HW153513   6.381   1.863   0.766  2.4314 -1.8723 -0.2522
16853SOL    HW253514   6.372   1.813   0.624 -0.3277 -1.8273 -0.1373
16854SOL     OW53515   2.750   7.003   6.844  0.6467 -0.4451  0.0004
16854SOL    HW153516   2.724   6.941   6.776  1.4937  1.1504 -1.8993
16854SOL    HW253517   2.846   7.001   6.842  0.7185  1.6501 -0.8741
16855SOL     OW53518   0.978   4.332   5.717 -0.1182 -0.5871 -0.4503
16855SOL    HW153519   0.908   4.313   5.655  0.8416  1.6576 -2.3900
16855SOL    HW253520   1.042   4.382   5.666  1.4404  0.1109  2.0092
16856SOL     OW53521   3.398   2.284   1.406  0.1034  0.1193 -0.3966
16856SOL    HW153522   3.459   2.255   1.474 -1.7303 -1.8294  0.5684
16856SOL    HW253523   3.427   2.372   1.383  1.7463  0.2389  1.8003
16857SOL     OW53524   1.250   3.263   3.328  0.2667  0.8017 -0.7161
16857SOL    HW153525   1.269   3.349   3.291  1.1335  1.7395  1.7411
16857SOL    HW253526   1.336   3.225   3.344 -0.0208  0.9868  1.4806
16858SOL     OW53527   0.876   7.057   1.333  0.1280  0.3093 -0.4098
16858SOL    HW153528   0.792   7.087   1.300 -0.4560  0.1095  0.8093
16858SOL    HW253529   0.906   6.992   1.269 -1.7811 -1.3389  0.2639
16859SOL     OW53530   4.096   6.281   7.046 -0.2426 -0.3339  0.0977
16859SOL    HW153531   4.027   6.325   6.998  0.2297 -0.2864 -0.5491
16859SOL    HW253532   4.152   6.243   6.979 -0.3508 -1.4818  0.6296
16860SOL     OW53533   0.440   0.567   7.247 -0.1089 -0.0122 -0.0730
16860SOL    HW153534   0.441   0.556   7.152  0.1283  0.8215 -0.1719
16860SOL    HW253535   0.370   0.509   7.277 -2.0883  1.7377 -1.0470
16861SOL     OW53536   1.535   3.351   3.599 -0.1041 -1.0336  0.4443
16861SOL    HW153537   1.549   3.432   3.550 -1.6006 -1.7131 -1.2269
16861SOL    HW253538   1.568   3.370   3.687  0.6799  0.9670 -0.2197
16862SOL     OW53539   6.658   6.246   1.895 -0.5334  0.0326 -0.4582
16862SOL    HW153540   6.665   6.320   1.955  0.8946 -0.1493 -0.3593
16862SOL    HW253541   6.573   6.257   1.853 -0.9542  0.9366  0.5794
16863SOL     OW53542   6.693   1.814   2.707 -0.2426  0.5186  0.2226
16863SOL    HW153543   6.684   1.784   2.616  2.0831  0.9300 -0.2070
16863SOL    HW253544   6.717   1.736   2.756 -0.0362  0.5706  0.2050
16864SOL     OW53545   6.738   5.963   6.785  0.2287 -0.0299 -0.8299
16864SOL    HW153546   6.706   6.011   6.709 -0.5052 -3.0706 -2.6584
16864SOL    HW253547   6.676   5.890   6.794  2.0261 -1.4623  0.7732
16865SOL     OW53548   5.005   6.533   5.074 -0.4663  0.0876  0.8532
16865SOL    HW153549   5.025   6.520   5.166 -1.6816 -0.9875  0.9933
16865SOL    HW253550   4.918   6.495   5.062  0.7523 -2.3144 -1.3084
16866SOL     OW53551   7.088   1.167   8.099  0.1705 -0.2565  0.4522
16866SOL    HW153552   7.028   1.229   8.058 -1.3082 -1.8080  0.1639
16866SOL    HW253553   7.120   1.113   8.026  0.7903 -0.3687  0.7987
16867SOL     OW53554   1.376   3.003   7.074 -0.0924  0.1822  0.1687
16867SOL    HW153555   1.282   2.998   7.063 -0.0761  0.5706 -0.1758
16867SOL    HW253556   1.404   2.913   7.090 -0.3311 -0.1702 -1.2926
16868SOL     OW53557   6.328   0.570   7.660  0.3716  0.2690  0.6242
16868SOL    HW153558   6.352   0.486   7.622 -0.8568 -0.3971  1.2453
16868SOL    HW253559   6.299   0.549   7.749  2.4839  1.6981  1.7399
16869SOL     OW53560   6.657   2.054   2.127 -0.2359 -0.0273  0.5399
16869SOL    HW153561   6.705   2.064   2.046 -1.2880  0.7215 -0.0156
16869SOL    HW253562   6.572   2.019   2.100 -1.4093  2.2553  1.0246
16870SOL     OW53563   4.751   6.598   3.091  0.3195  0.0036  0.6722
16870SOL    HW153564   4.660   6.583   3.064 -0.3555  2.6724  1.2156
16870SOL    HW253565   4.799   6.610   3.009 -0.1708  0.3297  0.4326
16871SOL     OW53566   3.350   0.199   5.445  0.1773  0.3150 -0.5169
16871SOL    HW153567   3.344   0.181   5.539  1.6609 -3.0752 -0.9051
16871SOL    HW253568   3.295   0.131   5.404  1.7227 -0.0215 -2.1607
16872SOL     OW53569   3.313   5.463   0.847 -0.5998 -0.5059 -0.1401
16872SOL    HW153570   3.295   5.372   0.824 -2.2883 -0.5447  1.1245
16872SOL    HW253571   3.278   5.514   0.774 -0.8223 -0.8348 -0.2645
16873SOL     OW53572   4.636   2.006   2.104 -0.2630 -0.1057  0.0640
16873SOL    HW153573   4.646   2.057   2.185  1.8131  0.9186 -0.7775
16873SOL    HW253574   4.689   1.928   2.118  0.4174  0.2575 -0.4258
16874SOL     OW53575   5.961   7.942   6.705 -0.2481  0.6236 -0.1502
16874SOL    HW153576   6.025   7.914   6.639 -0.7502  0.0702 -0.4103
16874SOL    HW253577   6.013   7.993   6.768  0.7540 -1.0623  0.4531
16875SOL     OW53578   7.810   4.744   5.282 -0.1710  0.1905  0.1389
16875SOL    HW153579   7.872   4.680   5.247 -1.9822 -0.5140 -2.0358
16875SOL    HW253580   7.724   4.707   5.264 -1.2984  2.7555 -0.2894
16876SOL     OW53581   6.253   3.094   0.707  0.0177  0.1601 -0.1655
16876SOL    HW153582   6.200   3.027   0.751 -1.0314  0.7414 -0.5073
16876SOL    HW253583   6.208   3.111   0.625  0.7440  0.6763 -0.4713
16877SOL     OW53584   2.820   1.869   4.606 -0.3675  0.1648  0.9405
16877SOL    HW153585   2.778   1.910   4.530 -0.3289 -0.5075  0.5511
16877SOL    HW253586   2.903   1.837   4.573 -0.2257  0.1180  1.3367
16878SOL     OW53587   1.494   1.619   7.243  0.1432  0.2413  0.2513
16878SOL    HW153588   1.490   1.711   7.270 -2.2091  0.1738  0.3273
16878SOL    HW253589   1.495   1.569   7.324 -0.4520  0.1916  0.2389
16879SOL     OW53590   3.688   1.232   7.752 -0.0600 -0.3823 -0.1397
16879SOL    HW153591   3.601   1.264   7.776 -1.1557 -1.2517 -2.5807
16879SOL    HW253592   3.733   1.220   7.835 -2.0591  0.6728  1.1794
16880SOL     OW53593   5.627   7.874   8.007  0.5060  0.2387  0.0913
16880SOL    HW153594   5.719   7.899   8.007  0.9620 -1.2186 -1.3362
16880SOL    HW253595   5.626   7.784   8.041 -0.3366  0.0935 -0.2803
16881SOL     OW53596   3.542   6.391   0.495  0.0466 -0.0317 -0.0019
16881SOL    HW153597   3.511   6.305   0.466 -0.0788  0.2750 -0.7889
16881SOL    HW253598   3.560   6.439   0.415  2.2598 -0.0755  0.4067
16882SOL     OW53599   6.933   6.630   6.446 -0.1384 -0.6841  0.5424
16882SOL    HW153600   6.871   6.610   6.516  2.3478 -0.2526  3.0694
16882SOL    HW253601   6.988   6.551   6.440 -0.8287 -1.0775 -1.6541
16883SOL     OW53602   4.162   4.736   2.162 -0.4491  0.2185 -0.6451
16883SOL    HW153603   4.149   4.688   2.080 -1.9167  0.5368 -0.6160
16883SOL    HW253604   4.170   4.828   2.134  0.3710  0.1895 -0.5305
16884SOL     OW53605   3.963   7.241   3.134 -0.0181 -0.0610 -0.4059
16884SOL    HW153606   3.963   7.202   3.047 -0.0109  0.5415 -0.6812
16884SOL    HW253607   4.056   7.260   3.152 -0.1088  0.6807 -0.6712
16885SOL     OW53608   0.440   1.394   5.194 -0.1185  0.2800  0.0854
16885SOL    HW153609   0.433   1.422   5.103  1.7054  1.4355  0.2638
16885SOL    HW253610   0.499   1.319   5.191  2.1822  1.9851  0.5559
16886SOL     OW53611   5.788   7.524   3.919 -0.5952 -0.1302 -0.1146
16886SOL    HW153612   5.827   7.602   3.959  0.2886 -0.6578  0.0983
16886SOL    HW253613   5.696   7.526   3.946 -0.5408  0.7461  0.0223
16887SOL     OW53614   7.928   0.544   1.559  0.1000  0.3942 -0.0719
16887SOL    HW153615   7.897   0.623   1.515 -1.5627 -0.6572 -0.9223
16887SOL    HW253616   7.908   0.559   1.651 -0.8687  0.7089 -0.3128
16888SOL     OW53617   4.331   0.974   5.254  0.2166 -0.1127 -0.4211
16888SOL    HW153618   4.300   0.995   5.166 -0.2797 -0.7067 -0.3888
16888SOL    HW253619   4.423   0.949   5.242  0.0318 -0.6002 -0.8252
16889SOL     OW53620   2.151   2.048   5.870  0.9326  0.2532  0.8191
16889SOL    HW153621   2.121   1.976   5.925  1.7354  0.5003  1.6056
16889SOL    HW253622   2.111   2.032   5.784 -0.2167 -0.2217  1.4252
16890SOL     OW53623   1.245   4.122   3.477  0.5970  0.6633 -0.0617
16890SOL    HW153624   1.267   4.037   3.515 -0.4941  0.5417  0.3246
16890SOL    HW253625   1.231   4.180   3.553  1.1182  1.1407 -0.3186
16891SOL     OW53626   3.231   0.415   5.155 -0.0062 -0.0888  0.4514
16891SOL    HW153627   3.263   0.427   5.244  0.2303  0.4994  0.2916
16891SOL    HW253628   3.294   0.462   5.100  0.6790 -1.6474 -0.1610
16892SOL     OW53629   2.438   7.250   3.678 -0.6443 -0.0992  0.9394
16892SOL    HW153630   2.523   7.275   3.713 -0.9723  1.5370  0.6504
16892SOL    HW253631   2.378   7.260   3.751 -0.3405 -3.6585  1.9092
16893SOL     OW53632   1.878   0.827   3.333  0.5324  0.5306 -0.2469
16893SOL    HW153633   1.877   0.732   3.346 -1.4875  0.6396  0.7041
16893SOL    HW253634   1.940   0.859   3.399 -1.4027  0.1208  1.8742
16894SOL     OW53635   5.451   7.379   3.612  0.4806 -0.4778  0.3356
16894SOL    HW153636   5.535   7.356   3.572  0.3374  0.0064 -0.2625
16894SOL    HW253637   5.467   7.374   3.706  1.1987 -0.3357  0.2308
16895SOL     OW53638   3.964   0.358   5.775  0.0508  0.0358  0.6315
16895SOL    HW153639   3.878   0.382   5.741  0.5450 -1.3502 -1.8025
16895SOL    HW253640   4.012   0.440   5.781 -0.4097  0.4523 -1.1174
16896SOL     OW53641   2.189   8.003   4.278  0.2770 -0.2122 -0.2820
16896SOL    HW153642   2.191   7.951   4.197 -2.3265  0.8582 -1.1475
16896SOL    HW253643   2.250   8.075   4.261 -0.5196  0.2077 -1.4741
16897SOL     OW53644   4.866   3.569   3.446 -0.2013 -0.2888  0.5788
16897SOL    HW153645   4.828   3.631   3.510 -1.7029 -1.8338  1.2479
16897SOL    HW253646   4.810   3.577   3.369 -1.2783 -1.7319  1.1553
16898SOL     OW53647   5.713   5.734   3.584  0.0911 -0.2784 -0.0911
16898SOL    HW153648   5.682   5.734   3.494 -0.3262  1.6462  0.0245
16898SOL    HW253649   5.772   5.809   3.589 -0.3385 -0.0121  1.3695
16899SOL     OW53650   6.183   7.369   4.338  0.4303 -0.0377  0.4518
16899SOL    HW153651   6.227   7.449   4.365 -1.7173  1.0584  0.9440
16899SOL    HW253652   6.090   7.388   4.348 -0.2332 -1.9224 -1.3324
16900SOL     OW53653   3.238   7.403   8.029 -0.1796  0.6063 -0.1174
16900SOL    HW153654   3.271   7.483   7.988 -0.5314  0.8410  0.0475
16900SOL    HW253655   3.223   7.343   7.956  1.8193  0.0237 -0.0966
16901SOL     OW53656   8.082   1.360   4.074  0.2622 -0.3907  0.3232
16901SOL    HW153657   8.099   1.392   3.986  0.6475  0.6403  0.7517
16901SOL    HW253658   8.092   1.265   4.068  0.4011 -0.3190 -0.7092
16902SOL     OW53659   1.498   0.557   6.022  0.2733  0.5904  0.3323
16902SOL    HW153660   1.409   0.541   6.055  0.1766 -0.5654 -0.4141
16902SOL    HW253661   1.553   0.559   6.101  0.0688 -2.1993  0.6505
16903SOL     OW53662   0.740   3.416   3.670 -0.6767 -0.4028  0.3314
16903SOL    HW153663   0.825   3.376   3.689 -1.1529 -1.9991 -0.6714
16903SOL    HW253664   0.759   3.480   3.601 -0.1366  0.0832  0.9089
16904SOL     OW53665   5.404   6.824   6.501 -0.2796  0.5362  0.2596
16904SOL    HW153666   5.349   6.864   6.433  0.6763  0.9468 -0.2906
16904SOL    HW253667   5.358   6.845   6.583 -2.4424 -1.5486 -0.3097
16905SOL     OW53668   6.135   7.535   4.780 -0.4205  0.8300 -0.1633
16905SOL    HW153669   6.104   7.456   4.826  1.8455 -0.3432 -0.5293
16905SOL    HW253670   6.086   7.606   4.821  0.3669 -0.3116  3.0779
16906SOL     OW53671   7.382   2.019   3.371 -0.5342  0.3783 -0.0751
16906SOL    HW153672   7.426   1.938   3.344  1.7847  0.4489  2.9530
16906SOL    HW253673   7.294   1.991   3.398 -0.0546 -0.9909  0.1384
16907SOL     OW53674   3.591   1.277   5.510  0.5793  0.2808 -0.3084
16907SOL    HW153675   3.634   1.350   5.465  1.3005  0.0846  0.0527
16907SOL    HW253676   3.565   1.217   5.439  0.0799  0.8254 -0.5964
16908SOL     OW53677   3.753   6.834   1.378 -0.1379  0.5570  0.2074
16908SOL    HW153678   3.809   6.830   1.301 -0.1800  1.9024  0.0721
16908SOL    HW253679   3.806   6.796   1.448  0.1873  0.0179 -0.3170
16909SOL     OW53680   3.832   7.770   0.224 -0.3961  0.2439  0.6891
16909SOL    HW153681   3.896   7.717   0.175  0.7588  2.3596 -0.2689
16909SOL    HW253682   3.751   7.720   0.220  0.6910 -1.5866  0.1640
16910SOL     OW53683   0.650   6.773   5.062 -0.6174 -0.1151 -0.3680
16910SOL    HW153684   0.657   6.831   5.137  1.1291 -0.5321 -0.1477
16910SOL    HW253685   0.562   6.736   5.067 -0.8092  0.4748  1.0085
16911SOL     OW53686   5.129   1.431   7.786 -0.2364  0.2177 -0.3652
16911SOL    HW153687   5.098   1.501   7.844 -0.9552 -2.3797  2.7017
16911SOL    HW253688   5.223   1.443   7.782 -0.1346  0.4370  1.5553
16912SOL     OW53689   1.784   6.185   7.101  0.1745 -0.3344  0.2143
16912SOL    HW153690   1.765   6.173   7.193 -0.3361  1.5671  0.4086
16912SOL    HW253691   1.809   6.098   7.069 -0.7984 -1.2567  1.8472
16913SOL     OW53692   5.332   7.797   0.092 -0.3304 -0.3781  0.0010
16913SOL    HW153693   5.237   7.794   0.080 -0.5310  0.6330  1.1911
16913SOL    HW253694   5.357   7.705   0.101 -1.1348 -0.6818 -0.6491
16914SOL     OW53695   1.066   7.121   2.496  0.2537 -0.3134  0.0277
16914SOL    HW153696   1.117   7.180   2.440 -0.9012 -0.9813 -1.8032
16914SOL    HW253697   0.975   7.136   2.470 -0.3357 -0.6619  1.7617
16915SOL     OW53698   4.116   1.976   5.617 -0.0272  0.0292  0.3748
16915SOL    HW153699   4.058   1.925   5.674 -0.2045  0.1135  0.2714
16915SOL    HW253700   4.204   1.954   5.647 -0.0110 -1.8037 -0.8849
16916SOL     OW53701   4.411   1.586   5.823  0.1391  0.0237 -0.4341
16916SOL    HW153702   4.467   1.565   5.898  0.9145  0.1641 -0.9571
16916SOL    HW253703   4.400   1.502   5.778 -0.2106 -0.0337 -0.2459
16917SOL     OW53704   2.637   3.400   2.148 -0.3867  0.1017  0.5941
16917SOL    HW153705   2.566   3.460   2.169  1.0214  1.8081  0.7554
16917SOL    HW253706   2.713   3.434   2.196  0.7010 -1.3011 -0.0188
16918SOL     OW53707   7.464   4.339   7.873  0.0503  0.3444 -0.3122
16918SOL    HW153708   7.517   4.260   7.863 -0.7006 -0.0206 -1.7638
16918SOL    HW253709   7.444   4.365   7.783 -0.1489  1.8936  0.1547
16919SOL     OW53710   3.347   7.787   4.182  0.8823  0.0940 -0.3303
16919SOL    HW153711   3.293   7.790   4.103  1.1130  1.2960 -0.4587
16919SOL    HW253712   3.284   7.775   4.254  0.6839 -1.1217 -0.6828
16920SOL     OW53713   7.348   6.200   4.275  0.4103  0.3018 -0.0944
16920SOL    HW153714   7.442   6.196   4.256  0.4873 -0.5909  0.4244
16920SOL    HW253715   7.313   6.118   4.241 -0.1749  0.6023 -0.2275
16921SOL     OW53716   2.503   5.090   2.803 -0.3561  0.2071 -0.0224
16921SOL    HW153717   2.506   5.108   2.709 -2.1973  0.2754 -0.1010
16921SOL    HW253718   2.583   5.040   2.820 -0.6927 -1.0903 -1.9179
16922SOL     OW53719   4.419   7.047   7.643 -0.1648  0.0176  0.7525
16922SOL    HW153720   4.477   7.123   7.636 -0.5323  0.2739  0.4243
16922SOL    HW253721   4.475   6.971   7.627  0.0729  0.2673  0.3828
16923SOL     OW53722   5.099   1.660   3.514 -0.5947  0.3229 -0.3754
16923SOL    HW153723   5.130   1.745   3.481  1.1979 -0.3373 -0.5140
16923SOL    HW253724   5.158   1.596   3.474 -0.5035 -0.8072  1.4541
16924SOL     OW53725   6.720   5.870   7.523 -0.5742  0.3515 -0.2857
16924SOL    HW153726   6.627   5.857   7.503 -0.3364 -1.2040 -0.5188
16924SOL    HW253727   6.729   5.847   7.615 -0.6417  1.8981  0.1392
16925SOL     OW53728   5.804   5.402   7.495 -0.3299  0.7605 -0.0776
16925SOL    HW153729   5.857   5.342   7.442 -1.6817  0.4534 -1.1241
16925SOL    HW253730   5.868   5.444   7.553  0.6852 -1.5366  0.5840
16926SOL     OW53731   5.338   3.427   0.091 -0.0096 -0.5394 -0.1869
16926SOL    HW153732   5.255   3.435   0.044  0.1664  0.7075 -0.3111
16926SOL    HW253733   5.364   3.517   0.110  0.8934 -0.9468  0.6038
16927SOL     OW53734   0.859   3.429   1.089 -0.0047 -0.2231 -0.6579
16927SOL    HW153735   0.811   3.359   1.133  1.0856 -0.3726  0.3606
16927SOL    HW253736   0.830   3.509   1.132 -0.2520 -0.1911 -0.8866
16928SOL     OW53737   5.879   2.235   0.731  0.1912 -0.4190  0.1630
16928SOL    HW153738   5.872   2.301   0.800 -1.3548  1.6685 -1.8390
16928SOL    HW253739   5.972   2.237   0.706 -0.0187  2.0530 -0.7092
16929SOL     OW53740   0.329   1.125   5.948  0.3015 -0.2629 -0.1623
16929SOL    HW153741   0.382   1.185   5.896 -0.7343 -0.1237 -1.0782
16929SOL    HW253742   0.243   1.125   5.906 -0.7162  0.1790  1.7875
16930SOL     OW53743   1.266   0.792   3.799 -0.0889 -0.2415  0.2748
16930SOL    HW153744   1.340   0.748   3.758 -0.2485 -1.3731  1.1554
16930SOL    HW253745   1.270   0.766   3.891 -0.5367  1.1423  0.7115
16931SOL     OW53746   4.575   5.242   2.289 -0.4022 -0.3729  0.0897
16931SOL    HW153747   4.521   5.318   2.267  0.0283 -0.3922 -1.1553
16931SOL    HW253748   4.550   5.176   2.225  1.6088 -0.1123 -1.0774
16932SOL     OW53749   2.381   7.833   3.225  0.3531 -0.1011  0.5140
16932SOL    HW153750   2.355   7.769   3.159  2.5344  0.4924 -0.9984
16932SOL    HW253751   2.342   7.915   3.196 -0.7070 -0.2941  1.3286
16933SOL     OW53752   5.053   2.162   0.956  0.3773 -0.7456 -0.0377
16933SOL    HW153753   5.137   2.204   0.974  1.0340 -2.3808  0.9336
16933SOL    HW253754   5.076   2.078   0.916 -0.8621 -0.6843 -0.9762
16934SOL     OW53755   1.736   3.328   0.286  0.0934 -0.7470  0.0683
16934SOL    HW153756   1.730   3.270   0.210  0.3950  0.7303 -1.1394
16934SOL    HW253757   1.649   3.368   0.291 -0.4968 -2.1454  1.6319
16935SOL     OW53758   3.320   6.498   2.471 -0.4354  0.0807  0.0487
16935SOL    HW153759   3.244   6.497   2.413  1.4697  1.1318 -2.6682
16935SOL    HW253760   3.333   6.591   2.491 -1.4658 -0.2964  2.9044
16936SOL     OW53761   1.261   6.271   6.779 -0.2202 -0.1088  0.0997
16936SOL    HW153762   1.292   6.301   6.693 -1.3033 -0.2469 -0.3573
16936SOL    HW253763   1.238   6.179   6.766 -0.5381 -0.0892  0.4918
16937SOL     OW53764   0.726   7.641   3.123  0.2474  0.2732  0.1208
16937SOL    HW153765   0.712   7.717   3.066 -1.2910  1.7772  2.3464
16937SOL    HW253766   0.819   7.620   3.111  0.4319  1.7227 -1.4740
16938SOL     OW53767   5.340   1.948   7.653  0.3360  0.0558 -0.2867
16938SOL    HW153768   5.405   1.949   7.583  2.2351  0.7195  1.3914
16938SOL    HW253769   5.290   2.029   7.641 -0.7736 -0.8301 -2.0412
16939SOL     OW53770   4.446   1.371   2.793 -0.0899  0.0001  0.4738
16939SOL    HW153771   4.368   1.399   2.745 -0.5423 -1.2054  0.4468
16939SOL    HW253772   4.512   1.437   2.775 -0.7196  0.3588 -0.5646
16940SOL     OW53773   8.030   7.757   0.556  0.0361  0.2640 -0.5914
16940SOL    HW153774   8.042   7.693   0.486  3.5956  1.9354 -1.7796
16940SOL    HW253775   7.998   7.836   0.511  0.9166  0.9149 -0.1126
16941SOL     OW53776   0.334   6.976   0.560 -0.5321 -0.0516  0.0572
16941SOL    HW153777   0.286   7.039   0.507 -2.4854  0.0458  1.8031
16941SOL    HW253778   0.267   6.917   0.595  0.3138  0.7994  3.6066
16942SOL     OW53779   1.975   6.047   2.925  0.6675  0.6663  0.7603
16942SOL    HW153780   1.940   6.033   3.013 -0.0171  1.3726  0.6178
16942SOL    HW253781   2.058   5.999   2.923  1.3120  1.6761  2.2042
16943SOL     OW53782   1.374   3.951   2.814 -0.0557  0.0046 -0.5084
16943SOL    HW153783   1.321   3.988   2.744  2.1040  1.0277 -1.7192
16943SOL    HW253784   1.415   4.026   2.856 -0.5804 -0.6615  1.2616
16944SOL     OW53785   6.548   1.275   0.464 -0.3015 -0.7896 -0.4845
16944SOL    HW153786   6.543   1.359   0.511 -0.0284 -0.3723 -1.1873
16944SOL    HW253787   6.491   1.287   0.388 -0.0276 -1.1423 -0.7455
16945SOL     OW53788   5.567   6.575   7.355 -0.2630 -0.0790 -0.0123
16945SOL    HW153789   5.607   6.572   7.268  0.7618  3.2517  0.2067
16945SOL    HW253790   5.622   6.520   7.409  1.2194  0.6087 -0.7670
16946SOL     OW53791   5.552   7.028   5.307  1.2572  0.4487 -0.1340
16946SOL    HW153792   5.619   7.046   5.241  0.6214  0.3654 -0.8133
16946SOL    HW253793   5.469   7.051   5.264  0.5659 -2.0866 -0.3116
16947SOL     OW53794   6.662   8.047   3.125 -0.0462  0.2601  0.0772
16947SOL    HW153795   6.602   8.032   3.198 -0.6891 -0.9497 -0.6710
16947SOL    HW253796   6.743   8.002   3.151 -0.8950 -1.8738 -0.7225
16948SOL     OW53797   6.229   6.741   5.144 -0.1548  0.2095 -0.2450
16948SOL    HW153798   6.232   6.676   5.073  1.7360  1.8330 -1.7829
16948SOL    HW253799   6.136   6.762   5.153 -0.5043 -0.3408 -2.0180
16949SOL     OW53800   3.043   0.773   0.811  0.2875  0.4953 -0.7821
16949SOL    HW153801   2.948   0.764   0.805 -0.1090 -1.0262  3.6699
16949SOL    HW253802   3.077   0.701   0.758 -1.1515 -0.1120 -0.9435
16950SOL     OW53803   2.844   3.872   3.896  0.2987  0.0413 -0.1369
16950SOL    HW153804   2.923   3.903   3.940 -0.4898  0.1935  1.2548
16950SOL    HW253805   2.825   3.788   3.938 -0.3439  0.0715 -0.3542
16951SOL     OW53806   1.017   7.701   3.975 -0.0656 -0.1177  0.1321
16951SOL    HW153807   0.994   7.615   3.942 -0.6774  0.5884 -1.3712
16951SOL    HW253808   1.105   7.717   3.940  0.7597 -0.7877  1.8001
16952SOL     OW53809   2.278   2.483   2.077 -0.0253 -0.4515 -0.6957
16952SOL    HW153810   2.321   2.400   2.056  0.8173  0.1316 -1.3069
16952SOL    HW253811   2.224   2.502   2.000 -0.9266 -0.8661 -0.1878
16953SOL     OW53812   0.926   2.253   6.632  0.6641 -0.5153  0.2609
16953SOL    HW153813   0.841   2.269   6.592  1.8349  0.4199 -2.0744
16953SOL    HW253814   0.977   2.332   6.613  2.1690 -1.1586  1.3342
16954SOL     OW53815   2.737   7.784   6.975  0.5976 -0.0687  0.0238
16954SOL    HW153816   2.680   7.737   7.036  0.3667  1.6406  1.1837
16954SOL    HW253817   2.753   7.721   6.904 -0.7678 -1.4112  0.8455
16955SOL     OW53818   4.593   4.087   0.639  0.2089  0.4434  0.3660
16955SOL    HW153819   4.499   4.084   0.622 -0.0100 -0.5752  1.5427
16955SOL    HW253820   4.624   4.000   0.614  0.4319  0.0428  1.9180
16956NA      NA53821   3.992   2.359   6.384 -0.2153 -0.1354 -0.0060
16957NA      NA53822   0.272   3.493   7.122  0.3640  0.6107  0.3672
16958NA      NA53823   4.552   1.835   7.353 -0.1907  0.3508  0.6233
16959NA      NA53824   4.865   0.314   2.810  0.1439  0.6175  0.0046
16960NA      NA53825   5.141   1.428   4.739  0.3424  0.0151  0.3309
16961NA      NA53826   7.467   7.632   5.748 -0.0748  0.4294  0.5270
16962NA      NA53827   3.308   0.109   6.756 -0.6657  0.4617 -0.1678
16963NA      NA53828   1.070   0.068   7.655  0.6435 -0.3107  0.3671
16964NA      NA53829   3.366   2.047   4.725 -0.0924 -0.2239  0.1575
16965NA      NA53830   1.778   7.406   1.836  0.3084 -0.0642  0.2352
16966NA      NA53831   3.477   6.150   7.643 -0.3479 -0.2510  0.0603
16967NA      NA53832   7.681   2.308   1.388  0.0093  0.1876  0.4022
16968NA      NA53833   3.651   0.616   1.964  0.5109  0.2608  0.1303
16969NA      NA53834   4.154   1.775   7.910  0.3204 -0.0944 -0.1372
16970NA      NA53835   4.463   4.185   4.985 -0.4947  0.0303 -0.3455
16971NA      NA53836   7.636   6.051   5.783  0.2936  0.3306  0.1154
16972NA      NA53837   4.622   6.417   4.658 -0.5319  0.3172  0.1465
16973NA      NA53838   5.762   3.910   7.080  0.0041 -0.1310  0.0506
16974NA      NA53839   5.304   3.586   6.881 -0.2570 -0.2957  0.5425
16975NA      NA53840   4.912   6.237   4.224  0.1958  0.1586 -0.6689
16976NA      NA53841   7.901   1.695   4.587  0.0537 -0.6155  0.7613
16977NA      NA53842   1.538   0.935   4.714  0.0281  0.2409  0.5675
16978NA      NA53843   6.495   6.954   2.212  0.1482  0.2715 -0.2414
16979NA      NA53844   3.667   5.458   4.786  0.1956  0.0260 -0.0725
16980NA      NA53845   2.945   2.863   7.286 -0.2947 -0.4726 -0.0055
16981NA      NA53846   7.104   6.415   4.071 -0.4933 -0.8900 -0.0007
16982NA      NA53847   4.137   7.809   2.673 -0.4195 -0.0456 -0.1325
16983NA      NA53848   5.835   3.825   8.088  0.4066 -0.3540  0.7861
16984NA      NA53849   6.524   2.010   7.817 -0.0863  0.4167 -0.0161
16985NA      NA53850   3.092   0.362   0.959  0.6577  0.0743  0.4592
16986NA      NA53851   4.970   0.258   5.529  0.5902 -0.1378 -0.0484
16987NA      NA53852   5.589   5.385   7.594  0.3706  0.1196  0.1816
16988NA      NA53853   7.544   7.262   8.038  0.0557 -0.0184  0.1063
16989NA      NA53854   5.502   4.367   7.684 -0.1468  0.0524  0.0500
16990NA      NA53855   3.403   4.528   5.018 -0.3614 -0.2337 -0.4080
16991NA      NA53856   3.372   6.181   1.035  0.0803  0.0527 -0.1262
16992NA      NA53857   7.951   0.677   2.161 -0.0196 -0.5972  0.0091
16993NA      NA53858   3.016   0.262   1.768 -0.1319 -0.0378  0.7690
16994NA      NA53859   6.775   0.371   5.966 -0.1162  0.5117 -0.2811
16995NA      NA53860   1.845   2.881   6.705  0.8210  0.4141  0.1944
16996NA      NA53861   0.710   0.219   1.248 -0.7784 -0.2067 -0.5665
16997NA      NA53862   6.395   5.407   5.023 -0.5669  0.0295  0.0001
16998NA      NA53863   0.603   7.971   5.243  0.0352  0.1640  0.1394
16999NA      NA53864   0.066   5.090   4.954  0.3381 -0.5778  0.0008
17000NA      NA53865   8.117   7.709   1.375 -0.6902  0.2811  0.2224
17001NA      NA53866   4.852   8.085   0.783  0.0525 -0.3464  0.4599
17002NA      NA53867   5.810   7.639   7.555  0.3646 -0.1227 -0.5910
17003NA      NA53868   2.068   6.512   1.494 -0.0061  0.2185  0.2235
17004NA      NA53869   6.701   7.385   3.918  0.3706  0.8444  0.2589
17005NA      NA53870   4.718   4.212   8.029  0.5082  0.2082 -0.1457
17006CL      CL53871   5.530   3.927   7.110  0.0670  0.0840 -0.1560
17007CL      CL53872   7.256   0.291   0.935 -0.2114 -0.1031 -0.1719
17008CL      CL53873   7.910   2.034   3.758 -0.0950 -0.0670  0.0876
17009CL      CL53874   5.778   2.651   2.375  0.3057 -0.3249 -0.0831
17010CL      CL53875   7.785   4.674   1.753 -0.0374  0.5445 -0.5674
17011CL      CL53876   3.576   5.883   4.775  0.2371 -0.1188  0.0631
17012CL      CL53877   0.350   3.888   2.584 -0.3107  0.2571 -0.1309
17013CL      CL53878   2.103   7.509   3.749 -0.0429  0.2068  0.3210
17014CL      CL53879   2.906   3.347   4.011 -0.2332 -0.2505  0.0275
17015CL      CL53880   1.195   2.112   4.285 -0.0494  0.2630 -0.0015
17016CL      CL53881   7.616   5.701   2.874 -0.1895  0.1961  0.0096
17017CL      CL53882   4.989   6.226   4.445 -0.2458 -0.0423 -0.0651
17018CL      CL53883   0.591   2.925   1.907 -0.5273  0.1108  0.4187
17019CL      CL53884   1.819   5.650   3.340 -0.0504  0.1442  0.1208
17020CL      CL53885   6.170   4.440   1.562 -0.2243  0.3966  0.5186
17021CL      CL53886   0.014   0.520   2.136 -0.6229 -0.1308  0.1452
17022CL      CL53887   0.999   3.679   2.464 -0.2680 -0.2960  0.1799
17023CL      CL53888   2.772   3.387   3.215 -0.2965 -0.1459  0.1719
17024CL      CL53889   5.869   2.117   7.351  0.1501 -0.1126 -0.1407
17025CL      CL53890   7.147   3.416   0.171  0.1135  0.0979  0.0949
17026CL      CL53891   7.000   4.187   3.813  0.1041  0.0293 -0.1328
17027CL      CL53892   6.355   6.567   2.665  0.2278  0.1530  0.2903
17028CL      CL53893   5.524   0.825   6.853 -0.1416 -0.1214 -0.1375
17029CL      CL53894   0.795   7.203   2.380 -0.1892 -0.0941 -0.2375
17030CL      CL53895   0.735   6.158   0.584 -0.5112 -0.2107  0.2488
17031CL      CL53896   0.276   5.934   0.391  0.2181 -0.4023  0.0123
17032CL      CL53897   0.055   5.046   0.559  0.1663  0.7370  0.0528
17033CL      CL53898   1.442   6.281   3.705 -0.1571 -0.0847  0.3186
17034CL      CL53899   7.737   5.486   2.373  0.4432  0.1007 -0.4718
17035CL      CL53900   0.150   3.956   6.947  0.1242 -0.1827 -0.2465
17036CL      CL53901   0.264   4.840   7.918  0.2768 -0.1555 -0.0090
17037CL      CL53902   6.593   4.867   5.497  0.0880  0.3108 -0.1447
17038CL      CL53903   1.882   2.359   1.944  0.6554 -0.2376 -0.3018
17039CL      CL53904   7.427   7.640   5.514  0.4047  0.1681  0.0368
17040CL      CL53905   0.665   4.815   4.907 -0.2975  0.3059  0.1056
17041CL      CL53906   6.255   6.133   2.474 -0.4145 -0.3593 -0.1162
17042CL      CL53907   7.515   7.566   2.579 -0.1420  0.3402 -0.2543
17043CL      CL53908   5.897   5.708   7.860  0.0433  0.2259 -0.4226
17044CL      CL53909   6.138   1.779   4.522 -0.1815  0.0327 -0.1343
17045CL      CL53910   8.120   3.196   3.113  0.2818 -0.1186 -0.1804
17046CL      CL53911   6.418   3.791   0.508  0.1521 -0.3436 -0.0453
17047CL      CL53912   1.957   6.903   1.094 -0.3123  0.0059  0.0288
17048CL      CL53913   1.657   5.859   1.310 -0.5355 -0.0096  0.3773
17049CL      CL53914   2.825   1.759   0.297  0.0250 -0.0593  0.0951
17050CL      CL53915   7.673   4.272   2.416 -0.0950 -0.1034 -0.2414
17051CL      CL53916   7.958   4.555   2.906  0.0462  0.2453 -0.2304
17052CL      CL53917   3.431   5.412   6.180  0.0347  0.1074 -0.3849
17053CL      CL53918   1.593   1.761   3.155  0.1097 -0.1577  0.1381
17054CL      CL53919   7.838   6.152   1.316 -0.3534 -0.1342 -0.4569
17055CL      CL53920   1.204   7.461   0.287  0.1084 -0.1665 -0.0562
17056CL      CL53921   0.305   6.760   4.993  0.0584 -0.0803  0.0574
17057CL      CL53922   3.305   7.406   5.413 -0.4417  0.0760  0.0457
17058CL      CL53923   6.336   5.378   4.593  0.2007  0.1297  0.6881
17059CL      CL53924   0.812   5.239   2.988 -0.4285 -0.1844 -0.5805
17060CL      CL53925   5.246   5.644   3.255 -0.0968 -0.1326  0.1396
17061CL      CL53926   4.948   4.073   8.018 -0.2599  0.5580 -0.1696
17062CL      CL53927   4.899   1.519   5.362  0.0660  0.1021 -0.4476
17063CL      CL53928   0.771   0.904   4.450  0.1910  0.0989  0.1871
17064CL      CL53929   3.600   7.556   0.161 -0.1724 -0.2168  0.3732
17065CL      CL53930   7.262   1.940   4.805  0.2524 -0.1557  0.2171
17066CL      CL53931   5.149   4.525   2.738 -0.2520 -0.0949  0.1609
17067CL      CL53932   6.706   5.748   1.150  0.2334 -0.5343  0.1634
17068CL      CL53933   3.227   0.359   1.756 -0.2811 -0.0472  0.1589
17069CL      CL53934   1.666   3.817   0.499  0.0839  0.0250  0.2233
17070CL      CL53935   7.935   0.775   2.377  0.4679 -0.4838 -0.3425
17071CL      CL53936   2.136   3.242   2.052  0.1253  0.0953  0.4013
17072CL      CL53937   1.412   4.761   6.333  0.0705 -0.2617  0.0779
17073CL      CL53938   2.643   5.150   2.520 -0.4725  0.1431  0.2969
17074CL      CL53939   4.833   1.375   6.807  0.3412 -0.1899 -0.1375
17075CL      CL53940   0.831   1.206   1.596 -0.1478  0.1427 -0.1878
17076CL      CL53941   6.579   2.646   8.043 -0.1872 -0.1571  0.4859
17077CL      CL53942   6.901   4.489   6.127  0.0920  0.0714  0.3106
17078CL      CL53943   4.541   4.569   1.350 -0.1385  0.1412 -0.1004
17079CL      CL53944   5.636   0.635   2.512 -0.0754 -0.2096  0.0898
17080CL      CL53945   7.078   3.482   3.818 -0.1950 -0.2203  0.4075
17081CL      CL53946   6.807   3.809   1.183  0.0885 -0.0865  0.1206
17082CL      CL53947   3.186   4.651   0.766 -0.0767 -0.0603  0.3568
17083CL      CL53948   4.701   5.909   3.886 -0.3385 -0.2554  0.1890
17084CL      CL53949   7.223   1.662   4.409  0.1880  0.4088  0.4507
17085CL      CL53950   0.883   4.126   2.638 -0.2632  0.0285 -0.1310
17086CL      CL53951   6.432   6.784   1.138 -0.3965 -0.3241 -0.1511
17087CL      CL53952   0.301   4.238   0.565 -0.7024 -0.5502  0.1879
17088CL      CL53953   7.444   0.450   4.483  0.7353  0.0132 -0.1992
17089CL      CL53954   6.304   8.021   5.336  0.0726 -0.5651  0.1501
17090CL      CL53955   6.719   1.403   5.257 -0.1267 -0.1006  0.0883
17091CL      CL53956   1.581   4.575   2.521  0.3933 -0.1713  0.4081
17092CL      CL53957   7.265   4.638   1.715  0.1719  0.4233 -0.2870
17093CL      CL53958   3.611   7.704   6.622 -0.1282 -0.4017 -0.1155
17094CL      CL53959   6.631   4.851   7.944  0.3295  0.3567  0.0259
17095CL      CL53960   7.337   6.365   1.658 -0.1050 -0.0490 -0.2376
17096CL      CL53961   4.952   4.710   5.626 -0.1350 -0.1022  0.2108
17097CL      CL53962   7.532   3.126   2.642  0.2015 -0.1420 -0.2655
17098CL      CL53963   4.700   0.978   5.733  0.0169 -0.1512  0.1552
17099CL      CL53964   0.319   4.929   1.831  0.1049 -0.2575 -0.2721
17100CL      CL53965   1.404   2.321   4.695 -0.2469 -0.1379  0.0471
17101CL      CL53966   7.771   2.937   1.070  0.2625 -0.1207  0.2299
17102CL      CL53967   5.497   0.146   1.580 -0.0371  0.1467 -0.0785
17103CL      CL53968   7.448   2.595   5.052  0.1480  0.0924  0.0875
17104CL      CL53969   2.904   4.714   6.947 -0.1530  0.4812 -0.0831
17105CL      CL53970   6.978   3.505   1.579  0.0966 -0.2327 -0.0928
17106CL      CL53971   2.467   1.489   2.285  0.2903  0.2096 -0.1399
17107CL      CL53972   7.707   3.730   2.485 -0.1471 -0.6032  0.0288
17108CL      CL53973   2.910   8.014   2.126 -0.2502  0.1307 -0.2181
17109CL      CL53974   7.817   6.462   3.603 -0.2210  0.3796 -0.0650
17110CL      CL53975   3.155   8.104   5.440 -0.1918  0.0916  0.2656
17111CL      CL53976   3.829   3.062   4.337  0.1903  0.4260  0.0213
17112CL      CL53977   0.007   3.623   1.381 -0.2537 -0.3923 -0.2911
17113CL      CL53978   4.804   0.161   2.622 -0.3966 -0.4141  0.0324
17114CL      CL53979   6.557   3.425   3.177  0.1351 -0.0153 -0.3559
17115CL      CL53980   7.919   1.870   0.594 -0.0797 -0.2706  0.5075
17116CL      CL53981   3.817   4.475   4.512  0.2126  0.5817 -0.0694
17117CL      CL53982   3.111   5.402   1.299 -0.3639 -0.1719  0.5037
   8.13506   8.13506   8.13506
