;
;   File pamam_g3.5dp_dglucose.itp  was generated
;   By user: sairam (1000)
;   On host: sairam
;   At date: Thu. January  4 22:29:01 2025
;
;   This is a standalone topology file
;
;   Created by:
;   ParmEd:       amb2gro_top_gro.py, VERSION 3.4.1
;   Executable:   amb2gro_top_gro.py
;   Library dir:  /usr/local/gromacs/share/gromacs/top
;   Command line:
;     ./amb2gro_top_gro.py -p pamam_g3.5dp_dglucose.prmtop -c pamam_g3.5dp_dglucose.inpcrd -t pamam_g3.5dp_dglucose.itp -g pamam_g3.5dp_dglucose.gro -b pamam_g3.5dp_dglucose.pdb
;

;[ defaults ]
;; nbfunc        comb-rule       gen-pairs       fudgeLJ fudgeQQ
;1               2               yes             0.5          0.83333333  
;
;[ atomtypes ]
;; name    at.num    mass    charge ptype  sigma      epsilon
;n4             7  14.010000  0.00000000  A     0.32499985        0.71128
;c3             6  12.010000  0.00000000  A     0.33996695      0.4577296
;c              6  12.010000  0.00000000  A     0.33996695       0.359824
;o              8  16.000000  0.00000000  A     0.29599219        0.87864
;hx             1   1.008000  0.00000000  A     0.19599772      0.0656888
;hc             1   1.008000  0.00000000  A     0.26495328      0.0656888
;hn             1   1.008000  0.00000000  A     0.10690785      0.0656888
;n              7  14.010000  0.00000000  A     0.32499985        0.71128
;h1             1   1.008000  0.00000000  A      0.2471353      0.0656888
;h2             1   1.008000  0.00000000  A     0.22931733      0.0656888
;oh             8  16.000000  0.00000000  A     0.30664734      0.8803136
;ho             1   1.008000  0.00000000  A              0              0
;os             8  16.000000  0.00000000  A     0.30000123        0.71128
;n3             7  14.010000  0.00000000  A     0.32499985        0.71128


[ moleculetype ]
; Name            nrexcl
pamam_g3.5dp_dglucose          3

[ atoms ]
;   nr       type  resnr residue  atom   cgnr    charge       mass  typeB    chargeB      massB
; residue    1 aaa rtp aaa q 2.0
    1         n4      1    aaa     N1      1 -0.01815100  14.010000   ; qtot -0.018151
    2         c3      1    aaa     C1      2 0.01243000  12.010000   ; qtot -0.005721
    3         c3      1    aaa     C2      3 0.01243000  12.010000   ; qtot 0.006709
    4         n4      1    aaa     N2      4 -0.01815100  14.010000   ; qtot -0.011442
    5         c3      1    aaa     C3      5 -0.01431700  12.010000   ; qtot -0.025759
    6         c3      1    aaa     C4      6 -0.01431700  12.010000   ; qtot -0.040076
    7         c3      1    aaa     C5      7 -0.01431700  12.010000   ; qtot -0.054393
    8         c3      1    aaa     C6      8 -0.01431700  12.010000   ; qtot -0.068710
    9         c3      1    aaa     C7      9 -0.26758200  12.010000   ; qtot -0.336292
   10          c      1    aaa     C8     10 0.71337400  12.010000   ; qtot 0.377082
   11         c3      1    aaa     C9     11 -0.26758200  12.010000   ; qtot 0.109500
   12          c      1    aaa    C10     12 0.71337400  12.010000   ; qtot 0.822874
   13         c3      1    aaa    C11     13 -0.26758200  12.010000   ; qtot 0.555292
   14          c      1    aaa    C12     14 0.71337400  12.010000   ; qtot 1.268666
   15         c3      1    aaa    C13     15 -0.26758200  12.010000   ; qtot 1.001084
   16          c      1    aaa    C14     16 0.71337400  12.010000   ; qtot 1.714458
   17          o      1    aaa     O1     17 -0.55531800  16.000000   ; qtot 1.159140
   18          o      1    aaa     O2     18 -0.55531800  16.000000   ; qtot 0.603822
   19          o      1    aaa     O3     19 -0.55531800  16.000000   ; qtot 0.048504
   20          o      1    aaa     O4     20 -0.55531800  16.000000   ; qtot -0.506814
   21         hx      1    aaa     H1     21 0.08276100   1.008000   ; qtot -0.424053
   22         hx      1    aaa     H2     22 0.08276100   1.008000   ; qtot -0.341292
   23         hx      1    aaa     H3     23 0.08276100   1.008000   ; qtot -0.258531
   24         hx      1    aaa     H4     24 0.08276100   1.008000   ; qtot -0.175770
   25         hx      1    aaa     H5     25 0.10467000   1.008000   ; qtot -0.071100
   26         hx      1    aaa     H6     26 0.10467000   1.008000   ; qtot 0.033570
   27         hx      1    aaa     H7     27 0.10467000   1.008000   ; qtot 0.138240
   28         hx      1    aaa     H8     28 0.10467000   1.008000   ; qtot 0.242910
   29         hx      1    aaa     H9     29 0.10467000   1.008000   ; qtot 0.347580
   30         hx      1    aaa    H10     30 0.10467000   1.008000   ; qtot 0.452250
   31         hx      1    aaa    H11     31 0.10467000   1.008000   ; qtot 0.556920
   32         hx      1    aaa    H12     32 0.10467000   1.008000   ; qtot 0.661590
   33         hc      1    aaa    H13     33 0.11830200   1.008000   ; qtot 0.779892
   34         hc      1    aaa    H14     34 0.11830200   1.008000   ; qtot 0.898194
   35         hc      1    aaa    H15     35 0.11830200   1.008000   ; qtot 1.016496
   36         hc      1    aaa    H16     36 0.11830200   1.008000   ; qtot 1.134798
   37         hc      1    aaa    H17     37 0.11830200   1.008000   ; qtot 1.253100
   38         hc      1    aaa    H18     38 0.11830200   1.008000   ; qtot 1.371402
   39         hc      1    aaa    H19     39 0.11830200   1.008000   ; qtot 1.489704
   40         hc      1    aaa    H20     40 0.11830200   1.008000   ; qtot 1.608006
   41         hn      1    aaa    H37     41 0.19599700   1.008000   ; qtot 1.804003
   42         hn      1    aaa    H38     42 0.19599700   1.008000   ; qtot 2.000000
; residue    2 bbb rtp bbb q 1.0
   43         n4      2    bbb     N1     43 -0.02747900  14.010000   ; qtot 1.972521
   44         c3      2    bbb     C1     44 -0.05097600  12.010000   ; qtot 1.921545
   45         c3      2    bbb     C2     45 -0.05097600  12.010000   ; qtot 1.870569
   46         c3      2    bbb     C3     46 -0.18457900  12.010000   ; qtot 1.685990
   47          c      2    bbb     C4     47 0.67254400  12.010000   ; qtot 2.358534
   48         c3      2    bbb     C5     48 -0.18457900  12.010000   ; qtot 2.173955
   49          c      2    bbb     C6     49 0.67254400  12.010000   ; qtot 2.846499
   50         c3      2    bbb     C7     50 -0.02083000  12.010000   ; qtot 2.825669
   51         c3      2    bbb     C8     51 -0.03328100  12.010000   ; qtot 2.792388
   52          n      2    bbb     N2     52 -0.33303000  14.010000   ; qtot 2.459358
   53          o      2    bbb     O1     53 -0.52917200  16.000000   ; qtot 1.930186
   54          o      2    bbb     O2     54 -0.52917200  16.000000   ; qtot 1.401014
   55         hx      2    bbb     H1     55 0.11563300   1.008000   ; qtot 1.516647
   56         hx      2    bbb     H2     56 0.11563300   1.008000   ; qtot 1.632280
   57         hx      2    bbb     H3     57 0.11563300   1.008000   ; qtot 1.747913
   58         hx      2    bbb     H4     58 0.11563300   1.008000   ; qtot 1.863546
   59         hc      2    bbb     H5     59 0.08347900   1.008000   ; qtot 1.947025
   60         hc      2    bbb     H6     60 0.08347900   1.008000   ; qtot 2.030504
   61         hc      2    bbb     H7     61 0.08347900   1.008000   ; qtot 2.113983
   62         hc      2    bbb     H8     62 0.08347900   1.008000   ; qtot 2.197462
   63         hx      2    bbb     H9     63 0.07988000   1.008000   ; qtot 2.277342
   64         hx      2    bbb    H10     64 0.07988000   1.008000   ; qtot 2.357222
   65         h1      2    bbb    H11     65 0.10618100   1.008000   ; qtot 2.463403
   66         h1      2    bbb    H12     66 0.10618100   1.008000   ; qtot 2.569584
   67         hn      2    bbb    H13     67 0.25916100   1.008000   ; qtot 2.828745
   68         hn      2    bbb    H25     68 0.17125500   1.008000   ; qtot 3.000000
; residue    3 bbb rtp bbb q 1.0
   69         n4      3    bbb     N1     69 -0.02747900  14.010000   ; qtot 2.972521
   70         c3      3    bbb     C1     70 -0.05097600  12.010000   ; qtot 2.921545
   71         c3      3    bbb     C2     71 -0.05097600  12.010000   ; qtot 2.870569
   72         c3      3    bbb     C3     72 -0.18457900  12.010000   ; qtot 2.685990
   73          c      3    bbb     C4     73 0.67254400  12.010000   ; qtot 3.358534
   74         c3      3    bbb     C5     74 -0.18457900  12.010000   ; qtot 3.173955
   75          c      3    bbb     C6     75 0.67254400  12.010000   ; qtot 3.846499
   76         c3      3    bbb     C7     76 -0.02083000  12.010000   ; qtot 3.825669
   77         c3      3    bbb     C8     77 -0.03328100  12.010000   ; qtot 3.792388
   78          n      3    bbb     N2     78 -0.33303000  14.010000   ; qtot 3.459358
   79          o      3    bbb     O1     79 -0.52917200  16.000000   ; qtot 2.930186
   80          o      3    bbb     O2     80 -0.52917200  16.000000   ; qtot 2.401014
   81         hx      3    bbb     H1     81 0.11563300   1.008000   ; qtot 2.516647
   82         hx      3    bbb     H2     82 0.11563300   1.008000   ; qtot 2.632280
   83         hx      3    bbb     H3     83 0.11563300   1.008000   ; qtot 2.747913
   84         hx      3    bbb     H4     84 0.11563300   1.008000   ; qtot 2.863546
   85         hc      3    bbb     H5     85 0.08347900   1.008000   ; qtot 2.947025
   86         hc      3    bbb     H6     86 0.08347900   1.008000   ; qtot 3.030504
   87         hc      3    bbb     H7     87 0.08347900   1.008000   ; qtot 3.113983
   88         hc      3    bbb     H8     88 0.08347900   1.008000   ; qtot 3.197462
   89         hx      3    bbb     H9     89 0.07988000   1.008000   ; qtot 3.277342
   90         hx      3    bbb    H10     90 0.07988000   1.008000   ; qtot 3.357222
   91         h1      3    bbb    H11     91 0.10618100   1.008000   ; qtot 3.463403
   92         h1      3    bbb    H12     92 0.10618100   1.008000   ; qtot 3.569584
   93         hn      3    bbb    H13     93 0.25916100   1.008000   ; qtot 3.828745
   94         hn      3    bbb    H25     94 0.17125500   1.008000   ; qtot 4.000000
; residue    4 bbb rtp bbb q 1.0
   95         n4      4    bbb     N1     95 -0.02747900  14.010000   ; qtot 3.972521
   96         c3      4    bbb     C1     96 -0.05097600  12.010000   ; qtot 3.921545
   97         c3      4    bbb     C2     97 -0.05097600  12.010000   ; qtot 3.870569
   98         c3      4    bbb     C3     98 -0.18457900  12.010000   ; qtot 3.685990
   99          c      4    bbb     C4     99 0.67254400  12.010000   ; qtot 4.358534
  100         c3      4    bbb     C5    100 -0.18457900  12.010000   ; qtot 4.173955
  101          c      4    bbb     C6    101 0.67254400  12.010000   ; qtot 4.846499
  102         c3      4    bbb     C7    102 -0.02083000  12.010000   ; qtot 4.825669
  103         c3      4    bbb     C8    103 -0.03328100  12.010000   ; qtot 4.792388
  104          n      4    bbb     N2    104 -0.33303000  14.010000   ; qtot 4.459358
  105          o      4    bbb     O1    105 -0.52917200  16.000000   ; qtot 3.930186
  106          o      4    bbb     O2    106 -0.52917200  16.000000   ; qtot 3.401014
  107         hx      4    bbb     H1    107 0.11563300   1.008000   ; qtot 3.516647
  108         hx      4    bbb     H2    108 0.11563300   1.008000   ; qtot 3.632280
  109         hx      4    bbb     H3    109 0.11563300   1.008000   ; qtot 3.747913
  110         hx      4    bbb     H4    110 0.11563300   1.008000   ; qtot 3.863546
  111         hc      4    bbb     H5    111 0.08347900   1.008000   ; qtot 3.947025
  112         hc      4    bbb     H6    112 0.08347900   1.008000   ; qtot 4.030504
  113         hc      4    bbb     H7    113 0.08347900   1.008000   ; qtot 4.113983
  114         hc      4    bbb     H8    114 0.08347900   1.008000   ; qtot 4.197462
  115         hx      4    bbb     H9    115 0.07988000   1.008000   ; qtot 4.277342
  116         hx      4    bbb    H10    116 0.07988000   1.008000   ; qtot 4.357222
  117         h1      4    bbb    H11    117 0.10618100   1.008000   ; qtot 4.463403
  118         h1      4    bbb    H12    118 0.10618100   1.008000   ; qtot 4.569584
  119         hn      4    bbb    H13    119 0.25916100   1.008000   ; qtot 4.828745
  120         hn      4    bbb    H25    120 0.17125500   1.008000   ; qtot 5.000000
; residue    5 bbb rtp bbb q 1.0
  121         n4      5    bbb     N1    121 -0.02747900  14.010000   ; qtot 4.972521
  122         c3      5    bbb     C1    122 -0.05097600  12.010000   ; qtot 4.921545
  123         c3      5    bbb     C2    123 -0.05097600  12.010000   ; qtot 4.870569
  124         c3      5    bbb     C3    124 -0.18457900  12.010000   ; qtot 4.685990
  125          c      5    bbb     C4    125 0.67254400  12.010000   ; qtot 5.358534
  126         c3      5    bbb     C5    126 -0.18457900  12.010000   ; qtot 5.173955
  127          c      5    bbb     C6    127 0.67254400  12.010000   ; qtot 5.846499
  128         c3      5    bbb     C7    128 -0.02083000  12.010000   ; qtot 5.825669
  129         c3      5    bbb     C8    129 -0.03328100  12.010000   ; qtot 5.792388
  130          n      5    bbb     N2    130 -0.33303000  14.010000   ; qtot 5.459358
  131          o      5    bbb     O1    131 -0.52917200  16.000000   ; qtot 4.930186
  132          o      5    bbb     O2    132 -0.52917200  16.000000   ; qtot 4.401014
  133         hx      5    bbb     H1    133 0.11563300   1.008000   ; qtot 4.516647
  134         hx      5    bbb     H2    134 0.11563300   1.008000   ; qtot 4.632280
  135         hx      5    bbb     H3    135 0.11563300   1.008000   ; qtot 4.747913
  136         hx      5    bbb     H4    136 0.11563300   1.008000   ; qtot 4.863546
  137         hc      5    bbb     H5    137 0.08347900   1.008000   ; qtot 4.947025
  138         hc      5    bbb     H6    138 0.08347900   1.008000   ; qtot 5.030504
  139         hc      5    bbb     H7    139 0.08347900   1.008000   ; qtot 5.113983
  140         hc      5    bbb     H8    140 0.08347900   1.008000   ; qtot 5.197462
  141         hx      5    bbb     H9    141 0.07988000   1.008000   ; qtot 5.277342
  142         hx      5    bbb    H10    142 0.07988000   1.008000   ; qtot 5.357222
  143         h1      5    bbb    H11    143 0.10618100   1.008000   ; qtot 5.463403
  144         h1      5    bbb    H12    144 0.10618100   1.008000   ; qtot 5.569584
  145         hn      5    bbb    H13    145 0.25916100   1.008000   ; qtot 5.828745
  146         hn      5    bbb    H25    146 0.17125500   1.008000   ; qtot 6.000000
; residue    6 bbb rtp bbb q 1.0
  147         n4      6    bbb     N1    147 -0.02747900  14.010000   ; qtot 5.972521
  148         c3      6    bbb     C1    148 -0.05097600  12.010000   ; qtot 5.921545
  149         c3      6    bbb     C2    149 -0.05097600  12.010000   ; qtot 5.870569
  150         c3      6    bbb     C3    150 -0.18457900  12.010000   ; qtot 5.685990
  151          c      6    bbb     C4    151 0.67254400  12.010000   ; qtot 6.358534
  152         c3      6    bbb     C5    152 -0.18457900  12.010000   ; qtot 6.173955
  153          c      6    bbb     C6    153 0.67254400  12.010000   ; qtot 6.846499
  154         c3      6    bbb     C7    154 -0.02083000  12.010000   ; qtot 6.825669
  155         c3      6    bbb     C8    155 -0.03328100  12.010000   ; qtot 6.792388
  156          n      6    bbb     N2    156 -0.33303000  14.010000   ; qtot 6.459358
  157          o      6    bbb     O1    157 -0.52917200  16.000000   ; qtot 5.930186
  158          o      6    bbb     O2    158 -0.52917200  16.000000   ; qtot 5.401014
  159         hx      6    bbb     H1    159 0.11563300   1.008000   ; qtot 5.516647
  160         hx      6    bbb     H2    160 0.11563300   1.008000   ; qtot 5.632280
  161         hx      6    bbb     H3    161 0.11563300   1.008000   ; qtot 5.747913
  162         hx      6    bbb     H4    162 0.11563300   1.008000   ; qtot 5.863546
  163         hc      6    bbb     H5    163 0.08347900   1.008000   ; qtot 5.947025
  164         hc      6    bbb     H6    164 0.08347900   1.008000   ; qtot 6.030504
  165         hc      6    bbb     H7    165 0.08347900   1.008000   ; qtot 6.113983
  166         hc      6    bbb     H8    166 0.08347900   1.008000   ; qtot 6.197462
  167         hx      6    bbb     H9    167 0.07988000   1.008000   ; qtot 6.277342
  168         hx      6    bbb    H10    168 0.07988000   1.008000   ; qtot 6.357222
  169         h1      6    bbb    H11    169 0.10618100   1.008000   ; qtot 6.463403
  170         h1      6    bbb    H12    170 0.10618100   1.008000   ; qtot 6.569584
  171         hn      6    bbb    H13    171 0.25916100   1.008000   ; qtot 6.828745
  172         hn      6    bbb    H25    172 0.17125500   1.008000   ; qtot 7.000000
; residue    7 bbb rtp bbb q 1.0
  173         n4      7    bbb     N1    173 -0.02747900  14.010000   ; qtot 6.972521
  174         c3      7    bbb     C1    174 -0.05097600  12.010000   ; qtot 6.921545
  175         c3      7    bbb     C2    175 -0.05097600  12.010000   ; qtot 6.870569
  176         c3      7    bbb     C3    176 -0.18457900  12.010000   ; qtot 6.685990
  177          c      7    bbb     C4    177 0.67254400  12.010000   ; qtot 7.358534
  178         c3      7    bbb     C5    178 -0.18457900  12.010000   ; qtot 7.173955
  179          c      7    bbb     C6    179 0.67254400  12.010000   ; qtot 7.846499
  180         c3      7    bbb     C7    180 -0.02083000  12.010000   ; qtot 7.825669
  181         c3      7    bbb     C8    181 -0.03328100  12.010000   ; qtot 7.792388
  182          n      7    bbb     N2    182 -0.33303000  14.010000   ; qtot 7.459358
  183          o      7    bbb     O1    183 -0.52917200  16.000000   ; qtot 6.930186
  184          o      7    bbb     O2    184 -0.52917200  16.000000   ; qtot 6.401014
  185         hx      7    bbb     H1    185 0.11563300   1.008000   ; qtot 6.516647
  186         hx      7    bbb     H2    186 0.11563300   1.008000   ; qtot 6.632280
  187         hx      7    bbb     H3    187 0.11563300   1.008000   ; qtot 6.747913
  188         hx      7    bbb     H4    188 0.11563300   1.008000   ; qtot 6.863546
  189         hc      7    bbb     H5    189 0.08347900   1.008000   ; qtot 6.947025
  190         hc      7    bbb     H6    190 0.08347900   1.008000   ; qtot 7.030504
  191         hc      7    bbb     H7    191 0.08347900   1.008000   ; qtot 7.113983
  192         hc      7    bbb     H8    192 0.08347900   1.008000   ; qtot 7.197462
  193         hx      7    bbb     H9    193 0.07988000   1.008000   ; qtot 7.277342
  194         hx      7    bbb    H10    194 0.07988000   1.008000   ; qtot 7.357222
  195         h1      7    bbb    H11    195 0.10618100   1.008000   ; qtot 7.463403
  196         h1      7    bbb    H12    196 0.10618100   1.008000   ; qtot 7.569584
  197         hn      7    bbb    H13    197 0.25916100   1.008000   ; qtot 7.828745
  198         hn      7    bbb    H25    198 0.17125500   1.008000   ; qtot 8.000000
; residue    8 bbb rtp bbb q 1.0
  199         n4      8    bbb     N1    199 -0.02747900  14.010000   ; qtot 7.972521
  200         c3      8    bbb     C1    200 -0.05097600  12.010000   ; qtot 7.921545
  201         c3      8    bbb     C2    201 -0.05097600  12.010000   ; qtot 7.870569
  202         c3      8    bbb     C3    202 -0.18457900  12.010000   ; qtot 7.685990
  203          c      8    bbb     C4    203 0.67254400  12.010000   ; qtot 8.358534
  204         c3      8    bbb     C5    204 -0.18457900  12.010000   ; qtot 8.173955
  205          c      8    bbb     C6    205 0.67254400  12.010000   ; qtot 8.846499
  206         c3      8    bbb     C7    206 -0.02083000  12.010000   ; qtot 8.825669
  207         c3      8    bbb     C8    207 -0.03328100  12.010000   ; qtot 8.792388
  208          n      8    bbb     N2    208 -0.33303000  14.010000   ; qtot 8.459358
  209          o      8    bbb     O1    209 -0.52917200  16.000000   ; qtot 7.930186
  210          o      8    bbb     O2    210 -0.52917200  16.000000   ; qtot 7.401014
  211         hx      8    bbb     H1    211 0.11563300   1.008000   ; qtot 7.516647
  212         hx      8    bbb     H2    212 0.11563300   1.008000   ; qtot 7.632280
  213         hx      8    bbb     H3    213 0.11563300   1.008000   ; qtot 7.747913
  214         hx      8    bbb     H4    214 0.11563300   1.008000   ; qtot 7.863546
  215         hc      8    bbb     H5    215 0.08347900   1.008000   ; qtot 7.947025
  216         hc      8    bbb     H6    216 0.08347900   1.008000   ; qtot 8.030504
  217         hc      8    bbb     H7    217 0.08347900   1.008000   ; qtot 8.113983
  218         hc      8    bbb     H8    218 0.08347900   1.008000   ; qtot 8.197462
  219         hx      8    bbb     H9    219 0.07988000   1.008000   ; qtot 8.277342
  220         hx      8    bbb    H10    220 0.07988000   1.008000   ; qtot 8.357222
  221         h1      8    bbb    H11    221 0.10618100   1.008000   ; qtot 8.463403
  222         h1      8    bbb    H12    222 0.10618100   1.008000   ; qtot 8.569584
  223         hn      8    bbb    H13    223 0.25916100   1.008000   ; qtot 8.828745
  224         hn      8    bbb    H25    224 0.17125500   1.008000   ; qtot 9.000000
; residue    9 bbb rtp bbb q 1.0
  225         n4      9    bbb     N1    225 -0.02747900  14.010000   ; qtot 8.972521
  226         c3      9    bbb     C1    226 -0.05097600  12.010000   ; qtot 8.921545
  227         c3      9    bbb     C2    227 -0.05097600  12.010000   ; qtot 8.870569
  228         c3      9    bbb     C3    228 -0.18457900  12.010000   ; qtot 8.685990
  229          c      9    bbb     C4    229 0.67254400  12.010000   ; qtot 9.358534
  230         c3      9    bbb     C5    230 -0.18457900  12.010000   ; qtot 9.173955
  231          c      9    bbb     C6    231 0.67254400  12.010000   ; qtot 9.846499
  232         c3      9    bbb     C7    232 -0.02083000  12.010000   ; qtot 9.825669
  233         c3      9    bbb     C8    233 -0.03328100  12.010000   ; qtot 9.792388
  234          n      9    bbb     N2    234 -0.33303000  14.010000   ; qtot 9.459358
  235          o      9    bbb     O1    235 -0.52917200  16.000000   ; qtot 8.930186
  236          o      9    bbb     O2    236 -0.52917200  16.000000   ; qtot 8.401014
  237         hx      9    bbb     H1    237 0.11563300   1.008000   ; qtot 8.516647
  238         hx      9    bbb     H2    238 0.11563300   1.008000   ; qtot 8.632280
  239         hx      9    bbb     H3    239 0.11563300   1.008000   ; qtot 8.747913
  240         hx      9    bbb     H4    240 0.11563300   1.008000   ; qtot 8.863546
  241         hc      9    bbb     H5    241 0.08347900   1.008000   ; qtot 8.947025
  242         hc      9    bbb     H6    242 0.08347900   1.008000   ; qtot 9.030504
  243         hc      9    bbb     H7    243 0.08347900   1.008000   ; qtot 9.113983
  244         hc      9    bbb     H8    244 0.08347900   1.008000   ; qtot 9.197462
  245         hx      9    bbb     H9    245 0.07988000   1.008000   ; qtot 9.277342
  246         hx      9    bbb    H10    246 0.07988000   1.008000   ; qtot 9.357222
  247         h1      9    bbb    H11    247 0.10618100   1.008000   ; qtot 9.463403
  248         h1      9    bbb    H12    248 0.10618100   1.008000   ; qtot 9.569584
  249         hn      9    bbb    H13    249 0.25916100   1.008000   ; qtot 9.828745
  250         hn      9    bbb    H25    250 0.17125500   1.008000   ; qtot 10.000000
; residue   10 bbb rtp bbb q 1.0
  251         n4     10    bbb     N1    251 -0.02747900  14.010000   ; qtot 9.972521
  252         c3     10    bbb     C1    252 -0.05097600  12.010000   ; qtot 9.921545
  253         c3     10    bbb     C2    253 -0.05097600  12.010000   ; qtot 9.870569
  254         c3     10    bbb     C3    254 -0.18457900  12.010000   ; qtot 9.685990
  255          c     10    bbb     C4    255 0.67254400  12.010000   ; qtot 10.358534
  256         c3     10    bbb     C5    256 -0.18457900  12.010000   ; qtot 10.173955
  257          c     10    bbb     C6    257 0.67254400  12.010000   ; qtot 10.846499
  258         c3     10    bbb     C7    258 -0.02083000  12.010000   ; qtot 10.825669
  259         c3     10    bbb     C8    259 -0.03328100  12.010000   ; qtot 10.792388
  260          n     10    bbb     N2    260 -0.33303000  14.010000   ; qtot 10.459358
  261          o     10    bbb     O1    261 -0.52917200  16.000000   ; qtot 9.930186
  262          o     10    bbb     O2    262 -0.52917200  16.000000   ; qtot 9.401014
  263         hx     10    bbb     H1    263 0.11563300   1.008000   ; qtot 9.516647
  264         hx     10    bbb     H2    264 0.11563300   1.008000   ; qtot 9.632280
  265         hx     10    bbb     H3    265 0.11563300   1.008000   ; qtot 9.747913
  266         hx     10    bbb     H4    266 0.11563300   1.008000   ; qtot 9.863546
  267         hc     10    bbb     H5    267 0.08347900   1.008000   ; qtot 9.947025
  268         hc     10    bbb     H6    268 0.08347900   1.008000   ; qtot 10.030504
  269         hc     10    bbb     H7    269 0.08347900   1.008000   ; qtot 10.113983
  270         hc     10    bbb     H8    270 0.08347900   1.008000   ; qtot 10.197462
  271         hx     10    bbb     H9    271 0.07988000   1.008000   ; qtot 10.277342
  272         hx     10    bbb    H10    272 0.07988000   1.008000   ; qtot 10.357222
  273         h1     10    bbb    H11    273 0.10618100   1.008000   ; qtot 10.463403
  274         h1     10    bbb    H12    274 0.10618100   1.008000   ; qtot 10.569584
  275         hn     10    bbb    H13    275 0.25916100   1.008000   ; qtot 10.828745
  276         hn     10    bbb    H25    276 0.17125500   1.008000   ; qtot 11.000000
; residue   11 bbb rtp bbb q 1.0
  277         n4     11    bbb     N1    277 -0.02747900  14.010000   ; qtot 10.972521
  278         c3     11    bbb     C1    278 -0.05097600  12.010000   ; qtot 10.921545
  279         c3     11    bbb     C2    279 -0.05097600  12.010000   ; qtot 10.870569
  280         c3     11    bbb     C3    280 -0.18457900  12.010000   ; qtot 10.685990
  281          c     11    bbb     C4    281 0.67254400  12.010000   ; qtot 11.358534
  282         c3     11    bbb     C5    282 -0.18457900  12.010000   ; qtot 11.173955
  283          c     11    bbb     C6    283 0.67254400  12.010000   ; qtot 11.846499
  284         c3     11    bbb     C7    284 -0.02083000  12.010000   ; qtot 11.825669
  285         c3     11    bbb     C8    285 -0.03328100  12.010000   ; qtot 11.792388
  286          n     11    bbb     N2    286 -0.33303000  14.010000   ; qtot 11.459358
  287          o     11    bbb     O1    287 -0.52917200  16.000000   ; qtot 10.930186
  288          o     11    bbb     O2    288 -0.52917200  16.000000   ; qtot 10.401014
  289         hx     11    bbb     H1    289 0.11563300   1.008000   ; qtot 10.516647
  290         hx     11    bbb     H2    290 0.11563300   1.008000   ; qtot 10.632280
  291         hx     11    bbb     H3    291 0.11563300   1.008000   ; qtot 10.747913
  292         hx     11    bbb     H4    292 0.11563300   1.008000   ; qtot 10.863546
  293         hc     11    bbb     H5    293 0.08347900   1.008000   ; qtot 10.947025
  294         hc     11    bbb     H6    294 0.08347900   1.008000   ; qtot 11.030504
  295         hc     11    bbb     H7    295 0.08347900   1.008000   ; qtot 11.113983
  296         hc     11    bbb     H8    296 0.08347900   1.008000   ; qtot 11.197462
  297         hx     11    bbb     H9    297 0.07988000   1.008000   ; qtot 11.277342
  298         hx     11    bbb    H10    298 0.07988000   1.008000   ; qtot 11.357222
  299         h1     11    bbb    H11    299 0.10618100   1.008000   ; qtot 11.463403
  300         h1     11    bbb    H12    300 0.10618100   1.008000   ; qtot 11.569584
  301         hn     11    bbb    H13    301 0.25916100   1.008000   ; qtot 11.828745
  302         hn     11    bbb    H25    302 0.17125500   1.008000   ; qtot 12.000000
; residue   12 bbb rtp bbb q 1.0
  303         n4     12    bbb     N1    303 -0.02747900  14.010000   ; qtot 11.972521
  304         c3     12    bbb     C1    304 -0.05097600  12.010000   ; qtot 11.921545
  305         c3     12    bbb     C2    305 -0.05097600  12.010000   ; qtot 11.870569
  306         c3     12    bbb     C3    306 -0.18457900  12.010000   ; qtot 11.685990
  307          c     12    bbb     C4    307 0.67254400  12.010000   ; qtot 12.358534
  308         c3     12    bbb     C5    308 -0.18457900  12.010000   ; qtot 12.173955
  309          c     12    bbb     C6    309 0.67254400  12.010000   ; qtot 12.846499
  310         c3     12    bbb     C7    310 -0.02083000  12.010000   ; qtot 12.825669
  311         c3     12    bbb     C8    311 -0.03328100  12.010000   ; qtot 12.792388
  312          n     12    bbb     N2    312 -0.33303000  14.010000   ; qtot 12.459358
  313          o     12    bbb     O1    313 -0.52917200  16.000000   ; qtot 11.930186
  314          o     12    bbb     O2    314 -0.52917200  16.000000   ; qtot 11.401014
  315         hx     12    bbb     H1    315 0.11563300   1.008000   ; qtot 11.516647
  316         hx     12    bbb     H2    316 0.11563300   1.008000   ; qtot 11.632280
  317         hx     12    bbb     H3    317 0.11563300   1.008000   ; qtot 11.747913
  318         hx     12    bbb     H4    318 0.11563300   1.008000   ; qtot 11.863546
  319         hc     12    bbb     H5    319 0.08347900   1.008000   ; qtot 11.947025
  320         hc     12    bbb     H6    320 0.08347900   1.008000   ; qtot 12.030504
  321         hc     12    bbb     H7    321 0.08347900   1.008000   ; qtot 12.113983
  322         hc     12    bbb     H8    322 0.08347900   1.008000   ; qtot 12.197462
  323         hx     12    bbb     H9    323 0.07988000   1.008000   ; qtot 12.277342
  324         hx     12    bbb    H10    324 0.07988000   1.008000   ; qtot 12.357222
  325         h1     12    bbb    H11    325 0.10618100   1.008000   ; qtot 12.463403
  326         h1     12    bbb    H12    326 0.10618100   1.008000   ; qtot 12.569584
  327         hn     12    bbb    H13    327 0.25916100   1.008000   ; qtot 12.828745
  328         hn     12    bbb    H25    328 0.17125500   1.008000   ; qtot 13.000000
; residue   13 bbb rtp bbb q 1.0
  329         n4     13    bbb     N1    329 -0.02747900  14.010000   ; qtot 12.972521
  330         c3     13    bbb     C1    330 -0.05097600  12.010000   ; qtot 12.921545
  331         c3     13    bbb     C2    331 -0.05097600  12.010000   ; qtot 12.870569
  332         c3     13    bbb     C3    332 -0.18457900  12.010000   ; qtot 12.685990
  333          c     13    bbb     C4    333 0.67254400  12.010000   ; qtot 13.358534
  334         c3     13    bbb     C5    334 -0.18457900  12.010000   ; qtot 13.173955
  335          c     13    bbb     C6    335 0.67254400  12.010000   ; qtot 13.846499
  336         c3     13    bbb     C7    336 -0.02083000  12.010000   ; qtot 13.825669
  337         c3     13    bbb     C8    337 -0.03328100  12.010000   ; qtot 13.792388
  338          n     13    bbb     N2    338 -0.33303000  14.010000   ; qtot 13.459358
  339          o     13    bbb     O1    339 -0.52917200  16.000000   ; qtot 12.930186
  340          o     13    bbb     O2    340 -0.52917200  16.000000   ; qtot 12.401014
  341         hx     13    bbb     H1    341 0.11563300   1.008000   ; qtot 12.516647
  342         hx     13    bbb     H2    342 0.11563300   1.008000   ; qtot 12.632280
  343         hx     13    bbb     H3    343 0.11563300   1.008000   ; qtot 12.747913
  344         hx     13    bbb     H4    344 0.11563300   1.008000   ; qtot 12.863546
  345         hc     13    bbb     H5    345 0.08347900   1.008000   ; qtot 12.947025
  346         hc     13    bbb     H6    346 0.08347900   1.008000   ; qtot 13.030504
  347         hc     13    bbb     H7    347 0.08347900   1.008000   ; qtot 13.113983
  348         hc     13    bbb     H8    348 0.08347900   1.008000   ; qtot 13.197462
  349         hx     13    bbb     H9    349 0.07988000   1.008000   ; qtot 13.277342
  350         hx     13    bbb    H10    350 0.07988000   1.008000   ; qtot 13.357222
  351         h1     13    bbb    H11    351 0.10618100   1.008000   ; qtot 13.463403
  352         h1     13    bbb    H12    352 0.10618100   1.008000   ; qtot 13.569584
  353         hn     13    bbb    H13    353 0.25916100   1.008000   ; qtot 13.828745
  354         hn     13    bbb    H25    354 0.17125500   1.008000   ; qtot 14.000000
; residue   14 bbb rtp bbb q 1.0
  355         n4     14    bbb     N1    355 -0.02747900  14.010000   ; qtot 13.972521
  356         c3     14    bbb     C1    356 -0.05097600  12.010000   ; qtot 13.921545
  357         c3     14    bbb     C2    357 -0.05097600  12.010000   ; qtot 13.870569
  358         c3     14    bbb     C3    358 -0.18457900  12.010000   ; qtot 13.685990
  359          c     14    bbb     C4    359 0.67254400  12.010000   ; qtot 14.358534
  360         c3     14    bbb     C5    360 -0.18457900  12.010000   ; qtot 14.173955
  361          c     14    bbb     C6    361 0.67254400  12.010000   ; qtot 14.846499
  362         c3     14    bbb     C7    362 -0.02083000  12.010000   ; qtot 14.825669
  363         c3     14    bbb     C8    363 -0.03328100  12.010000   ; qtot 14.792388
  364          n     14    bbb     N2    364 -0.33303000  14.010000   ; qtot 14.459358
  365          o     14    bbb     O1    365 -0.52917200  16.000000   ; qtot 13.930186
  366          o     14    bbb     O2    366 -0.52917200  16.000000   ; qtot 13.401014
  367         hx     14    bbb     H1    367 0.11563300   1.008000   ; qtot 13.516647
  368         hx     14    bbb     H2    368 0.11563300   1.008000   ; qtot 13.632280
  369         hx     14    bbb     H3    369 0.11563300   1.008000   ; qtot 13.747913
  370         hx     14    bbb     H4    370 0.11563300   1.008000   ; qtot 13.863546
  371         hc     14    bbb     H5    371 0.08347900   1.008000   ; qtot 13.947025
  372         hc     14    bbb     H6    372 0.08347900   1.008000   ; qtot 14.030504
  373         hc     14    bbb     H7    373 0.08347900   1.008000   ; qtot 14.113983
  374         hc     14    bbb     H8    374 0.08347900   1.008000   ; qtot 14.197462
  375         hx     14    bbb     H9    375 0.07988000   1.008000   ; qtot 14.277342
  376         hx     14    bbb    H10    376 0.07988000   1.008000   ; qtot 14.357222
  377         h1     14    bbb    H11    377 0.10618100   1.008000   ; qtot 14.463403
  378         h1     14    bbb    H12    378 0.10618100   1.008000   ; qtot 14.569584
  379         hn     14    bbb    H13    379 0.25916100   1.008000   ; qtot 14.828745
  380         hn     14    bbb    H25    380 0.17125500   1.008000   ; qtot 15.000000
; residue   15 bbb rtp bbb q 1.0
  381         n4     15    bbb     N1    381 -0.02747900  14.010000   ; qtot 14.972521
  382         c3     15    bbb     C1    382 -0.05097600  12.010000   ; qtot 14.921545
  383         c3     15    bbb     C2    383 -0.05097600  12.010000   ; qtot 14.870569
  384         c3     15    bbb     C3    384 -0.18457900  12.010000   ; qtot 14.685990
  385          c     15    bbb     C4    385 0.67254400  12.010000   ; qtot 15.358534
  386         c3     15    bbb     C5    386 -0.18457900  12.010000   ; qtot 15.173955
  387          c     15    bbb     C6    387 0.67254400  12.010000   ; qtot 15.846499
  388         c3     15    bbb     C7    388 -0.02083000  12.010000   ; qtot 15.825669
  389         c3     15    bbb     C8    389 -0.03328100  12.010000   ; qtot 15.792388
  390          n     15    bbb     N2    390 -0.33303000  14.010000   ; qtot 15.459358
  391          o     15    bbb     O1    391 -0.52917200  16.000000   ; qtot 14.930186
  392          o     15    bbb     O2    392 -0.52917200  16.000000   ; qtot 14.401014
  393         hx     15    bbb     H1    393 0.11563300   1.008000   ; qtot 14.516647
  394         hx     15    bbb     H2    394 0.11563300   1.008000   ; qtot 14.632280
  395         hx     15    bbb     H3    395 0.11563300   1.008000   ; qtot 14.747913
  396         hx     15    bbb     H4    396 0.11563300   1.008000   ; qtot 14.863546
  397         hc     15    bbb     H5    397 0.08347900   1.008000   ; qtot 14.947025
  398         hc     15    bbb     H6    398 0.08347900   1.008000   ; qtot 15.030504
  399         hc     15    bbb     H7    399 0.08347900   1.008000   ; qtot 15.113983
  400         hc     15    bbb     H8    400 0.08347900   1.008000   ; qtot 15.197462
  401         hx     15    bbb     H9    401 0.07988000   1.008000   ; qtot 15.277342
  402         hx     15    bbb    H10    402 0.07988000   1.008000   ; qtot 15.357222
  403         h1     15    bbb    H11    403 0.10618100   1.008000   ; qtot 15.463403
  404         h1     15    bbb    H12    404 0.10618100   1.008000   ; qtot 15.569584
  405         hn     15    bbb    H13    405 0.25916100   1.008000   ; qtot 15.828745
  406         hn     15    bbb    H25    406 0.17125500   1.008000   ; qtot 16.000000
; residue   16 bbb rtp bbb q 1.0
  407         n4     16    bbb     N1    407 -0.02747900  14.010000   ; qtot 15.972521
  408         c3     16    bbb     C1    408 -0.05097600  12.010000   ; qtot 15.921545
  409         c3     16    bbb     C2    409 -0.05097600  12.010000   ; qtot 15.870569
  410         c3     16    bbb     C3    410 -0.18457900  12.010000   ; qtot 15.685990
  411          c     16    bbb     C4    411 0.67254400  12.010000   ; qtot 16.358534
  412         c3     16    bbb     C5    412 -0.18457900  12.010000   ; qtot 16.173955
  413          c     16    bbb     C6    413 0.67254400  12.010000   ; qtot 16.846499
  414         c3     16    bbb     C7    414 -0.02083000  12.010000   ; qtot 16.825669
  415         c3     16    bbb     C8    415 -0.03328100  12.010000   ; qtot 16.792388
  416          n     16    bbb     N2    416 -0.33303000  14.010000   ; qtot 16.459358
  417          o     16    bbb     O1    417 -0.52917200  16.000000   ; qtot 15.930186
  418          o     16    bbb     O2    418 -0.52917200  16.000000   ; qtot 15.401014
  419         hx     16    bbb     H1    419 0.11563300   1.008000   ; qtot 15.516647
  420         hx     16    bbb     H2    420 0.11563300   1.008000   ; qtot 15.632280
  421         hx     16    bbb     H3    421 0.11563300   1.008000   ; qtot 15.747913
  422         hx     16    bbb     H4    422 0.11563300   1.008000   ; qtot 15.863546
  423         hc     16    bbb     H5    423 0.08347900   1.008000   ; qtot 15.947025
  424         hc     16    bbb     H6    424 0.08347900   1.008000   ; qtot 16.030504
  425         hc     16    bbb     H7    425 0.08347900   1.008000   ; qtot 16.113983
  426         hc     16    bbb     H8    426 0.08347900   1.008000   ; qtot 16.197462
  427         hx     16    bbb     H9    427 0.07988000   1.008000   ; qtot 16.277342
  428         hx     16    bbb    H10    428 0.07988000   1.008000   ; qtot 16.357222
  429         h1     16    bbb    H11    429 0.10618100   1.008000   ; qtot 16.463403
  430         h1     16    bbb    H12    430 0.10618100   1.008000   ; qtot 16.569584
  431         hn     16    bbb    H13    431 0.25916100   1.008000   ; qtot 16.828745
  432         hn     16    bbb    H25    432 0.17125500   1.008000   ; qtot 17.000000
; residue   17 bbb rtp bbb q 1.0
  433         n4     17    bbb     N1    433 -0.02747900  14.010000   ; qtot 16.972521
  434         c3     17    bbb     C1    434 -0.05097600  12.010000   ; qtot 16.921545
  435         c3     17    bbb     C2    435 -0.05097600  12.010000   ; qtot 16.870569
  436         c3     17    bbb     C3    436 -0.18457900  12.010000   ; qtot 16.685990
  437          c     17    bbb     C4    437 0.67254400  12.010000   ; qtot 17.358534
  438         c3     17    bbb     C5    438 -0.18457900  12.010000   ; qtot 17.173955
  439          c     17    bbb     C6    439 0.67254400  12.010000   ; qtot 17.846499
  440         c3     17    bbb     C7    440 -0.02083000  12.010000   ; qtot 17.825669
  441         c3     17    bbb     C8    441 -0.03328100  12.010000   ; qtot 17.792388
  442          n     17    bbb     N2    442 -0.33303000  14.010000   ; qtot 17.459358
  443          o     17    bbb     O1    443 -0.52917200  16.000000   ; qtot 16.930186
  444          o     17    bbb     O2    444 -0.52917200  16.000000   ; qtot 16.401014
  445         hx     17    bbb     H1    445 0.11563300   1.008000   ; qtot 16.516647
  446         hx     17    bbb     H2    446 0.11563300   1.008000   ; qtot 16.632280
  447         hx     17    bbb     H3    447 0.11563300   1.008000   ; qtot 16.747913
  448         hx     17    bbb     H4    448 0.11563300   1.008000   ; qtot 16.863546
  449         hc     17    bbb     H5    449 0.08347900   1.008000   ; qtot 16.947025
  450         hc     17    bbb     H6    450 0.08347900   1.008000   ; qtot 17.030504
  451         hc     17    bbb     H7    451 0.08347900   1.008000   ; qtot 17.113983
  452         hc     17    bbb     H8    452 0.08347900   1.008000   ; qtot 17.197462
  453         hx     17    bbb     H9    453 0.07988000   1.008000   ; qtot 17.277342
  454         hx     17    bbb    H10    454 0.07988000   1.008000   ; qtot 17.357222
  455         h1     17    bbb    H11    455 0.10618100   1.008000   ; qtot 17.463403
  456         h1     17    bbb    H12    456 0.10618100   1.008000   ; qtot 17.569584
  457         hn     17    bbb    H13    457 0.25916100   1.008000   ; qtot 17.828745
  458         hn     17    bbb    H25    458 0.17125500   1.008000   ; qtot 18.000000
; residue   18 bbb rtp bbb q 1.0
  459         n4     18    bbb     N1    459 -0.02747900  14.010000   ; qtot 17.972521
  460         c3     18    bbb     C1    460 -0.05097600  12.010000   ; qtot 17.921545
  461         c3     18    bbb     C2    461 -0.05097600  12.010000   ; qtot 17.870569
  462         c3     18    bbb     C3    462 -0.18457900  12.010000   ; qtot 17.685990
  463          c     18    bbb     C4    463 0.67254400  12.010000   ; qtot 18.358534
  464         c3     18    bbb     C5    464 -0.18457900  12.010000   ; qtot 18.173955
  465          c     18    bbb     C6    465 0.67254400  12.010000   ; qtot 18.846499
  466         c3     18    bbb     C7    466 -0.02083000  12.010000   ; qtot 18.825669
  467         c3     18    bbb     C8    467 -0.03328100  12.010000   ; qtot 18.792388
  468          n     18    bbb     N2    468 -0.33303000  14.010000   ; qtot 18.459358
  469          o     18    bbb     O1    469 -0.52917200  16.000000   ; qtot 17.930186
  470          o     18    bbb     O2    470 -0.52917200  16.000000   ; qtot 17.401014
  471         hx     18    bbb     H1    471 0.11563300   1.008000   ; qtot 17.516647
  472         hx     18    bbb     H2    472 0.11563300   1.008000   ; qtot 17.632280
  473         hx     18    bbb     H3    473 0.11563300   1.008000   ; qtot 17.747913
  474         hx     18    bbb     H4    474 0.11563300   1.008000   ; qtot 17.863546
  475         hc     18    bbb     H5    475 0.08347900   1.008000   ; qtot 17.947025
  476         hc     18    bbb     H6    476 0.08347900   1.008000   ; qtot 18.030504
  477         hc     18    bbb     H7    477 0.08347900   1.008000   ; qtot 18.113983
  478         hc     18    bbb     H8    478 0.08347900   1.008000   ; qtot 18.197462
  479         hx     18    bbb     H9    479 0.07988000   1.008000   ; qtot 18.277342
  480         hx     18    bbb    H10    480 0.07988000   1.008000   ; qtot 18.357222
  481         h1     18    bbb    H11    481 0.10618100   1.008000   ; qtot 18.463403
  482         h1     18    bbb    H12    482 0.10618100   1.008000   ; qtot 18.569584
  483         hn     18    bbb    H13    483 0.25916100   1.008000   ; qtot 18.828745
  484         hn     18    bbb    H25    484 0.17125500   1.008000   ; qtot 19.000000
; residue   19 bbb rtp bbb q 1.0
  485         n4     19    bbb     N1    485 -0.02747900  14.010000   ; qtot 18.972521
  486         c3     19    bbb     C1    486 -0.05097600  12.010000   ; qtot 18.921545
  487         c3     19    bbb     C2    487 -0.05097600  12.010000   ; qtot 18.870569
  488         c3     19    bbb     C3    488 -0.18457900  12.010000   ; qtot 18.685990
  489          c     19    bbb     C4    489 0.67254400  12.010000   ; qtot 19.358534
  490         c3     19    bbb     C5    490 -0.18457900  12.010000   ; qtot 19.173955
  491          c     19    bbb     C6    491 0.67254400  12.010000   ; qtot 19.846499
  492         c3     19    bbb     C7    492 -0.02083000  12.010000   ; qtot 19.825669
  493         c3     19    bbb     C8    493 -0.03328100  12.010000   ; qtot 19.792388
  494          n     19    bbb     N2    494 -0.33303000  14.010000   ; qtot 19.459358
  495          o     19    bbb     O1    495 -0.52917200  16.000000   ; qtot 18.930186
  496          o     19    bbb     O2    496 -0.52917200  16.000000   ; qtot 18.401014
  497         hx     19    bbb     H1    497 0.11563300   1.008000   ; qtot 18.516647
  498         hx     19    bbb     H2    498 0.11563300   1.008000   ; qtot 18.632280
  499         hx     19    bbb     H3    499 0.11563300   1.008000   ; qtot 18.747913
  500         hx     19    bbb     H4    500 0.11563300   1.008000   ; qtot 18.863546
  501         hc     19    bbb     H5    501 0.08347900   1.008000   ; qtot 18.947025
  502         hc     19    bbb     H6    502 0.08347900   1.008000   ; qtot 19.030504
  503         hc     19    bbb     H7    503 0.08347900   1.008000   ; qtot 19.113983
  504         hc     19    bbb     H8    504 0.08347900   1.008000   ; qtot 19.197462
  505         hx     19    bbb     H9    505 0.07988000   1.008000   ; qtot 19.277342
  506         hx     19    bbb    H10    506 0.07988000   1.008000   ; qtot 19.357222
  507         h1     19    bbb    H11    507 0.10618100   1.008000   ; qtot 19.463403
  508         h1     19    bbb    H12    508 0.10618100   1.008000   ; qtot 19.569584
  509         hn     19    bbb    H13    509 0.25916100   1.008000   ; qtot 19.828745
  510         hn     19    bbb    H25    510 0.17125500   1.008000   ; qtot 20.000000
; residue   20 bbb rtp bbb q 1.0
  511         n4     20    bbb     N1    511 -0.02747900  14.010000   ; qtot 19.972521
  512         c3     20    bbb     C1    512 -0.05097600  12.010000   ; qtot 19.921545
  513         c3     20    bbb     C2    513 -0.05097600  12.010000   ; qtot 19.870569
  514         c3     20    bbb     C3    514 -0.18457900  12.010000   ; qtot 19.685990
  515          c     20    bbb     C4    515 0.67254400  12.010000   ; qtot 20.358534
  516         c3     20    bbb     C5    516 -0.18457900  12.010000   ; qtot 20.173955
  517          c     20    bbb     C6    517 0.67254400  12.010000   ; qtot 20.846499
  518         c3     20    bbb     C7    518 -0.02083000  12.010000   ; qtot 20.825669
  519         c3     20    bbb     C8    519 -0.03328100  12.010000   ; qtot 20.792388
  520          n     20    bbb     N2    520 -0.33303000  14.010000   ; qtot 20.459358
  521          o     20    bbb     O1    521 -0.52917200  16.000000   ; qtot 19.930186
  522          o     20    bbb     O2    522 -0.52917200  16.000000   ; qtot 19.401014
  523         hx     20    bbb     H1    523 0.11563300   1.008000   ; qtot 19.516647
  524         hx     20    bbb     H2    524 0.11563300   1.008000   ; qtot 19.632280
  525         hx     20    bbb     H3    525 0.11563300   1.008000   ; qtot 19.747913
  526         hx     20    bbb     H4    526 0.11563300   1.008000   ; qtot 19.863546
  527         hc     20    bbb     H5    527 0.08347900   1.008000   ; qtot 19.947025
  528         hc     20    bbb     H6    528 0.08347900   1.008000   ; qtot 20.030504
  529         hc     20    bbb     H7    529 0.08347900   1.008000   ; qtot 20.113983
  530         hc     20    bbb     H8    530 0.08347900   1.008000   ; qtot 20.197462
  531         hx     20    bbb     H9    531 0.07988000   1.008000   ; qtot 20.277342
  532         hx     20    bbb    H10    532 0.07988000   1.008000   ; qtot 20.357222
  533         h1     20    bbb    H11    533 0.10618100   1.008000   ; qtot 20.463403
  534         h1     20    bbb    H12    534 0.10618100   1.008000   ; qtot 20.569584
  535         hn     20    bbb    H13    535 0.25916100   1.008000   ; qtot 20.828745
  536         hn     20    bbb    H25    536 0.17125500   1.008000   ; qtot 21.000000
; residue   21 bbb rtp bbb q 1.0
  537         n4     21    bbb     N1    537 -0.02747900  14.010000   ; qtot 20.972521
  538         c3     21    bbb     C1    538 -0.05097600  12.010000   ; qtot 20.921545
  539         c3     21    bbb     C2    539 -0.05097600  12.010000   ; qtot 20.870569
  540         c3     21    bbb     C3    540 -0.18457900  12.010000   ; qtot 20.685990
  541          c     21    bbb     C4    541 0.67254400  12.010000   ; qtot 21.358534
  542         c3     21    bbb     C5    542 -0.18457900  12.010000   ; qtot 21.173955
  543          c     21    bbb     C6    543 0.67254400  12.010000   ; qtot 21.846499
  544         c3     21    bbb     C7    544 -0.02083000  12.010000   ; qtot 21.825669
  545         c3     21    bbb     C8    545 -0.03328100  12.010000   ; qtot 21.792388
  546          n     21    bbb     N2    546 -0.33303000  14.010000   ; qtot 21.459358
  547          o     21    bbb     O1    547 -0.52917200  16.000000   ; qtot 20.930186
  548          o     21    bbb     O2    548 -0.52917200  16.000000   ; qtot 20.401014
  549         hx     21    bbb     H1    549 0.11563300   1.008000   ; qtot 20.516647
  550         hx     21    bbb     H2    550 0.11563300   1.008000   ; qtot 20.632280
  551         hx     21    bbb     H3    551 0.11563300   1.008000   ; qtot 20.747913
  552         hx     21    bbb     H4    552 0.11563300   1.008000   ; qtot 20.863546
  553         hc     21    bbb     H5    553 0.08347900   1.008000   ; qtot 20.947025
  554         hc     21    bbb     H6    554 0.08347900   1.008000   ; qtot 21.030504
  555         hc     21    bbb     H7    555 0.08347900   1.008000   ; qtot 21.113983
  556         hc     21    bbb     H8    556 0.08347900   1.008000   ; qtot 21.197462
  557         hx     21    bbb     H9    557 0.07988000   1.008000   ; qtot 21.277342
  558         hx     21    bbb    H10    558 0.07988000   1.008000   ; qtot 21.357222
  559         h1     21    bbb    H11    559 0.10618100   1.008000   ; qtot 21.463403
  560         h1     21    bbb    H12    560 0.10618100   1.008000   ; qtot 21.569584
  561         hn     21    bbb    H13    561 0.25916100   1.008000   ; qtot 21.828745
  562         hn     21    bbb    H25    562 0.17125500   1.008000   ; qtot 22.000000
; residue   22 bbb rtp bbb q 1.0
  563         n4     22    bbb     N1    563 -0.02747900  14.010000   ; qtot 21.972521
  564         c3     22    bbb     C1    564 -0.05097600  12.010000   ; qtot 21.921545
  565         c3     22    bbb     C2    565 -0.05097600  12.010000   ; qtot 21.870569
  566         c3     22    bbb     C3    566 -0.18457900  12.010000   ; qtot 21.685990
  567          c     22    bbb     C4    567 0.67254400  12.010000   ; qtot 22.358534
  568         c3     22    bbb     C5    568 -0.18457900  12.010000   ; qtot 22.173955
  569          c     22    bbb     C6    569 0.67254400  12.010000   ; qtot 22.846499
  570         c3     22    bbb     C7    570 -0.02083000  12.010000   ; qtot 22.825669
  571         c3     22    bbb     C8    571 -0.03328100  12.010000   ; qtot 22.792388
  572          n     22    bbb     N2    572 -0.33303000  14.010000   ; qtot 22.459358
  573          o     22    bbb     O1    573 -0.52917200  16.000000   ; qtot 21.930186
  574          o     22    bbb     O2    574 -0.52917200  16.000000   ; qtot 21.401014
  575         hx     22    bbb     H1    575 0.11563300   1.008000   ; qtot 21.516647
  576         hx     22    bbb     H2    576 0.11563300   1.008000   ; qtot 21.632280
  577         hx     22    bbb     H3    577 0.11563300   1.008000   ; qtot 21.747913
  578         hx     22    bbb     H4    578 0.11563300   1.008000   ; qtot 21.863546
  579         hc     22    bbb     H5    579 0.08347900   1.008000   ; qtot 21.947025
  580         hc     22    bbb     H6    580 0.08347900   1.008000   ; qtot 22.030504
  581         hc     22    bbb     H7    581 0.08347900   1.008000   ; qtot 22.113983
  582         hc     22    bbb     H8    582 0.08347900   1.008000   ; qtot 22.197462
  583         hx     22    bbb     H9    583 0.07988000   1.008000   ; qtot 22.277342
  584         hx     22    bbb    H10    584 0.07988000   1.008000   ; qtot 22.357222
  585         h1     22    bbb    H11    585 0.10618100   1.008000   ; qtot 22.463403
  586         h1     22    bbb    H12    586 0.10618100   1.008000   ; qtot 22.569584
  587         hn     22    bbb    H13    587 0.25916100   1.008000   ; qtot 22.828745
  588         hn     22    bbb    H25    588 0.17125500   1.008000   ; qtot 23.000000
; residue   23 bbb rtp bbb q 1.0
  589         n4     23    bbb     N1    589 -0.02747900  14.010000   ; qtot 22.972521
  590         c3     23    bbb     C1    590 -0.05097600  12.010000   ; qtot 22.921545
  591         c3     23    bbb     C2    591 -0.05097600  12.010000   ; qtot 22.870569
  592         c3     23    bbb     C3    592 -0.18457900  12.010000   ; qtot 22.685990
  593          c     23    bbb     C4    593 0.67254400  12.010000   ; qtot 23.358534
  594         c3     23    bbb     C5    594 -0.18457900  12.010000   ; qtot 23.173955
  595          c     23    bbb     C6    595 0.67254400  12.010000   ; qtot 23.846499
  596         c3     23    bbb     C7    596 -0.02083000  12.010000   ; qtot 23.825669
  597         c3     23    bbb     C8    597 -0.03328100  12.010000   ; qtot 23.792388
  598          n     23    bbb     N2    598 -0.33303000  14.010000   ; qtot 23.459358
  599          o     23    bbb     O1    599 -0.52917200  16.000000   ; qtot 22.930186
  600          o     23    bbb     O2    600 -0.52917200  16.000000   ; qtot 22.401014
  601         hx     23    bbb     H1    601 0.11563300   1.008000   ; qtot 22.516647
  602         hx     23    bbb     H2    602 0.11563300   1.008000   ; qtot 22.632280
  603         hx     23    bbb     H3    603 0.11563300   1.008000   ; qtot 22.747913
  604         hx     23    bbb     H4    604 0.11563300   1.008000   ; qtot 22.863546
  605         hc     23    bbb     H5    605 0.08347900   1.008000   ; qtot 22.947025
  606         hc     23    bbb     H6    606 0.08347900   1.008000   ; qtot 23.030504
  607         hc     23    bbb     H7    607 0.08347900   1.008000   ; qtot 23.113983
  608         hc     23    bbb     H8    608 0.08347900   1.008000   ; qtot 23.197462
  609         hx     23    bbb     H9    609 0.07988000   1.008000   ; qtot 23.277342
  610         hx     23    bbb    H10    610 0.07988000   1.008000   ; qtot 23.357222
  611         h1     23    bbb    H11    611 0.10618100   1.008000   ; qtot 23.463403
  612         h1     23    bbb    H12    612 0.10618100   1.008000   ; qtot 23.569584
  613         hn     23    bbb    H13    613 0.25916100   1.008000   ; qtot 23.828745
  614         hn     23    bbb    H25    614 0.17125500   1.008000   ; qtot 24.000000
; residue   24 bbb rtp bbb q 1.0
  615         n4     24    bbb     N1    615 -0.02747900  14.010000   ; qtot 23.972521
  616         c3     24    bbb     C1    616 -0.05097600  12.010000   ; qtot 23.921545
  617         c3     24    bbb     C2    617 -0.05097600  12.010000   ; qtot 23.870569
  618         c3     24    bbb     C3    618 -0.18457900  12.010000   ; qtot 23.685990
  619          c     24    bbb     C4    619 0.67254400  12.010000   ; qtot 24.358534
  620         c3     24    bbb     C5    620 -0.18457900  12.010000   ; qtot 24.173955
  621          c     24    bbb     C6    621 0.67254400  12.010000   ; qtot 24.846499
  622         c3     24    bbb     C7    622 -0.02083000  12.010000   ; qtot 24.825669
  623         c3     24    bbb     C8    623 -0.03328100  12.010000   ; qtot 24.792388
  624          n     24    bbb     N2    624 -0.33303000  14.010000   ; qtot 24.459358
  625          o     24    bbb     O1    625 -0.52917200  16.000000   ; qtot 23.930186
  626          o     24    bbb     O2    626 -0.52917200  16.000000   ; qtot 23.401014
  627         hx     24    bbb     H1    627 0.11563300   1.008000   ; qtot 23.516647
  628         hx     24    bbb     H2    628 0.11563300   1.008000   ; qtot 23.632280
  629         hx     24    bbb     H3    629 0.11563300   1.008000   ; qtot 23.747913
  630         hx     24    bbb     H4    630 0.11563300   1.008000   ; qtot 23.863546
  631         hc     24    bbb     H5    631 0.08347900   1.008000   ; qtot 23.947025
  632         hc     24    bbb     H6    632 0.08347900   1.008000   ; qtot 24.030504
  633         hc     24    bbb     H7    633 0.08347900   1.008000   ; qtot 24.113983
  634         hc     24    bbb     H8    634 0.08347900   1.008000   ; qtot 24.197462
  635         hx     24    bbb     H9    635 0.07988000   1.008000   ; qtot 24.277342
  636         hx     24    bbb    H10    636 0.07988000   1.008000   ; qtot 24.357222
  637         h1     24    bbb    H11    637 0.10618100   1.008000   ; qtot 24.463403
  638         h1     24    bbb    H12    638 0.10618100   1.008000   ; qtot 24.569584
  639         hn     24    bbb    H13    639 0.25916100   1.008000   ; qtot 24.828745
  640         hn     24    bbb    H25    640 0.17125500   1.008000   ; qtot 25.000000
; residue   25 bbb rtp bbb q 1.0
  641         n4     25    bbb     N1    641 -0.02747900  14.010000   ; qtot 24.972521
  642         c3     25    bbb     C1    642 -0.05097600  12.010000   ; qtot 24.921545
  643         c3     25    bbb     C2    643 -0.05097600  12.010000   ; qtot 24.870569
  644         c3     25    bbb     C3    644 -0.18457900  12.010000   ; qtot 24.685990
  645          c     25    bbb     C4    645 0.67254400  12.010000   ; qtot 25.358534
  646         c3     25    bbb     C5    646 -0.18457900  12.010000   ; qtot 25.173955
  647          c     25    bbb     C6    647 0.67254400  12.010000   ; qtot 25.846499
  648         c3     25    bbb     C7    648 -0.02083000  12.010000   ; qtot 25.825669
  649         c3     25    bbb     C8    649 -0.03328100  12.010000   ; qtot 25.792388
  650          n     25    bbb     N2    650 -0.33303000  14.010000   ; qtot 25.459358
  651          o     25    bbb     O1    651 -0.52917200  16.000000   ; qtot 24.930186
  652          o     25    bbb     O2    652 -0.52917200  16.000000   ; qtot 24.401014
  653         hx     25    bbb     H1    653 0.11563300   1.008000   ; qtot 24.516647
  654         hx     25    bbb     H2    654 0.11563300   1.008000   ; qtot 24.632280
  655         hx     25    bbb     H3    655 0.11563300   1.008000   ; qtot 24.747913
  656         hx     25    bbb     H4    656 0.11563300   1.008000   ; qtot 24.863546
  657         hc     25    bbb     H5    657 0.08347900   1.008000   ; qtot 24.947025
  658         hc     25    bbb     H6    658 0.08347900   1.008000   ; qtot 25.030504
  659         hc     25    bbb     H7    659 0.08347900   1.008000   ; qtot 25.113983
  660         hc     25    bbb     H8    660 0.08347900   1.008000   ; qtot 25.197462
  661         hx     25    bbb     H9    661 0.07988000   1.008000   ; qtot 25.277342
  662         hx     25    bbb    H10    662 0.07988000   1.008000   ; qtot 25.357222
  663         h1     25    bbb    H11    663 0.10618100   1.008000   ; qtot 25.463403
  664         h1     25    bbb    H12    664 0.10618100   1.008000   ; qtot 25.569584
  665         hn     25    bbb    H13    665 0.25916100   1.008000   ; qtot 25.828745
  666         hn     25    bbb    H25    666 0.17125500   1.008000   ; qtot 26.000000
; residue   26 bbb rtp bbb q 1.0
  667         n4     26    bbb     N1    667 -0.02747900  14.010000   ; qtot 25.972521
  668         c3     26    bbb     C1    668 -0.05097600  12.010000   ; qtot 25.921545
  669         c3     26    bbb     C2    669 -0.05097600  12.010000   ; qtot 25.870569
  670         c3     26    bbb     C3    670 -0.18457900  12.010000   ; qtot 25.685990
  671          c     26    bbb     C4    671 0.67254400  12.010000   ; qtot 26.358534
  672         c3     26    bbb     C5    672 -0.18457900  12.010000   ; qtot 26.173955
  673          c     26    bbb     C6    673 0.67254400  12.010000   ; qtot 26.846499
  674         c3     26    bbb     C7    674 -0.02083000  12.010000   ; qtot 26.825669
  675         c3     26    bbb     C8    675 -0.03328100  12.010000   ; qtot 26.792388
  676          n     26    bbb     N2    676 -0.33303000  14.010000   ; qtot 26.459358
  677          o     26    bbb     O1    677 -0.52917200  16.000000   ; qtot 25.930186
  678          o     26    bbb     O2    678 -0.52917200  16.000000   ; qtot 25.401014
  679         hx     26    bbb     H1    679 0.11563300   1.008000   ; qtot 25.516647
  680         hx     26    bbb     H2    680 0.11563300   1.008000   ; qtot 25.632280
  681         hx     26    bbb     H3    681 0.11563300   1.008000   ; qtot 25.747913
  682         hx     26    bbb     H4    682 0.11563300   1.008000   ; qtot 25.863546
  683         hc     26    bbb     H5    683 0.08347900   1.008000   ; qtot 25.947025
  684         hc     26    bbb     H6    684 0.08347900   1.008000   ; qtot 26.030504
  685         hc     26    bbb     H7    685 0.08347900   1.008000   ; qtot 26.113983
  686         hc     26    bbb     H8    686 0.08347900   1.008000   ; qtot 26.197462
  687         hx     26    bbb     H9    687 0.07988000   1.008000   ; qtot 26.277342
  688         hx     26    bbb    H10    688 0.07988000   1.008000   ; qtot 26.357222
  689         h1     26    bbb    H11    689 0.10618100   1.008000   ; qtot 26.463403
  690         h1     26    bbb    H12    690 0.10618100   1.008000   ; qtot 26.569584
  691         hn     26    bbb    H13    691 0.25916100   1.008000   ; qtot 26.828745
  692         hn     26    bbb    H25    692 0.17125500   1.008000   ; qtot 27.000000
; residue   27 bbb rtp bbb q 1.0
  693         n4     27    bbb     N1    693 -0.02747900  14.010000   ; qtot 26.972521
  694         c3     27    bbb     C1    694 -0.05097600  12.010000   ; qtot 26.921545
  695         c3     27    bbb     C2    695 -0.05097600  12.010000   ; qtot 26.870569
  696         c3     27    bbb     C3    696 -0.18457900  12.010000   ; qtot 26.685990
  697          c     27    bbb     C4    697 0.67254400  12.010000   ; qtot 27.358534
  698         c3     27    bbb     C5    698 -0.18457900  12.010000   ; qtot 27.173955
  699          c     27    bbb     C6    699 0.67254400  12.010000   ; qtot 27.846499
  700         c3     27    bbb     C7    700 -0.02083000  12.010000   ; qtot 27.825669
  701         c3     27    bbb     C8    701 -0.03328100  12.010000   ; qtot 27.792388
  702          n     27    bbb     N2    702 -0.33303000  14.010000   ; qtot 27.459358
  703          o     27    bbb     O1    703 -0.52917200  16.000000   ; qtot 26.930186
  704          o     27    bbb     O2    704 -0.52917200  16.000000   ; qtot 26.401014
  705         hx     27    bbb     H1    705 0.11563300   1.008000   ; qtot 26.516647
  706         hx     27    bbb     H2    706 0.11563300   1.008000   ; qtot 26.632280
  707         hx     27    bbb     H3    707 0.11563300   1.008000   ; qtot 26.747913
  708         hx     27    bbb     H4    708 0.11563300   1.008000   ; qtot 26.863546
  709         hc     27    bbb     H5    709 0.08347900   1.008000   ; qtot 26.947025
  710         hc     27    bbb     H6    710 0.08347900   1.008000   ; qtot 27.030504
  711         hc     27    bbb     H7    711 0.08347900   1.008000   ; qtot 27.113983
  712         hc     27    bbb     H8    712 0.08347900   1.008000   ; qtot 27.197462
  713         hx     27    bbb     H9    713 0.07988000   1.008000   ; qtot 27.277342
  714         hx     27    bbb    H10    714 0.07988000   1.008000   ; qtot 27.357222
  715         h1     27    bbb    H11    715 0.10618100   1.008000   ; qtot 27.463403
  716         h1     27    bbb    H12    716 0.10618100   1.008000   ; qtot 27.569584
  717         hn     27    bbb    H13    717 0.25916100   1.008000   ; qtot 27.828745
  718         hn     27    bbb    H25    718 0.17125500   1.008000   ; qtot 28.000000
; residue   28 bbb rtp bbb q 1.0
  719         n4     28    bbb     N1    719 -0.02747900  14.010000   ; qtot 27.972521
  720         c3     28    bbb     C1    720 -0.05097600  12.010000   ; qtot 27.921545
  721         c3     28    bbb     C2    721 -0.05097600  12.010000   ; qtot 27.870569
  722         c3     28    bbb     C3    722 -0.18457900  12.010000   ; qtot 27.685990
  723          c     28    bbb     C4    723 0.67254400  12.010000   ; qtot 28.358534
  724         c3     28    bbb     C5    724 -0.18457900  12.010000   ; qtot 28.173955
  725          c     28    bbb     C6    725 0.67254400  12.010000   ; qtot 28.846499
  726         c3     28    bbb     C7    726 -0.02083000  12.010000   ; qtot 28.825669
  727         c3     28    bbb     C8    727 -0.03328100  12.010000   ; qtot 28.792388
  728          n     28    bbb     N2    728 -0.33303000  14.010000   ; qtot 28.459358
  729          o     28    bbb     O1    729 -0.52917200  16.000000   ; qtot 27.930186
  730          o     28    bbb     O2    730 -0.52917200  16.000000   ; qtot 27.401014
  731         hx     28    bbb     H1    731 0.11563300   1.008000   ; qtot 27.516647
  732         hx     28    bbb     H2    732 0.11563300   1.008000   ; qtot 27.632280
  733         hx     28    bbb     H3    733 0.11563300   1.008000   ; qtot 27.747913
  734         hx     28    bbb     H4    734 0.11563300   1.008000   ; qtot 27.863546
  735         hc     28    bbb     H5    735 0.08347900   1.008000   ; qtot 27.947025
  736         hc     28    bbb     H6    736 0.08347900   1.008000   ; qtot 28.030504
  737         hc     28    bbb     H7    737 0.08347900   1.008000   ; qtot 28.113983
  738         hc     28    bbb     H8    738 0.08347900   1.008000   ; qtot 28.197462
  739         hx     28    bbb     H9    739 0.07988000   1.008000   ; qtot 28.277342
  740         hx     28    bbb    H10    740 0.07988000   1.008000   ; qtot 28.357222
  741         h1     28    bbb    H11    741 0.10618100   1.008000   ; qtot 28.463403
  742         h1     28    bbb    H12    742 0.10618100   1.008000   ; qtot 28.569584
  743         hn     28    bbb    H13    743 0.25916100   1.008000   ; qtot 28.828745
  744         hn     28    bbb    H25    744 0.17125500   1.008000   ; qtot 29.000000
; residue   29 bbb rtp bbb q 1.0
  745         n4     29    bbb     N1    745 -0.02747900  14.010000   ; qtot 28.972521
  746         c3     29    bbb     C1    746 -0.05097600  12.010000   ; qtot 28.921545
  747         c3     29    bbb     C2    747 -0.05097600  12.010000   ; qtot 28.870569
  748         c3     29    bbb     C3    748 -0.18457900  12.010000   ; qtot 28.685990
  749          c     29    bbb     C4    749 0.67254400  12.010000   ; qtot 29.358534
  750         c3     29    bbb     C5    750 -0.18457900  12.010000   ; qtot 29.173955
  751          c     29    bbb     C6    751 0.67254400  12.010000   ; qtot 29.846499
  752         c3     29    bbb     C7    752 -0.02083000  12.010000   ; qtot 29.825669
  753         c3     29    bbb     C8    753 -0.03328100  12.010000   ; qtot 29.792388
  754          n     29    bbb     N2    754 -0.33303000  14.010000   ; qtot 29.459358
  755          o     29    bbb     O1    755 -0.52917200  16.000000   ; qtot 28.930186
  756          o     29    bbb     O2    756 -0.52917200  16.000000   ; qtot 28.401014
  757         hx     29    bbb     H1    757 0.11563300   1.008000   ; qtot 28.516647
  758         hx     29    bbb     H2    758 0.11563300   1.008000   ; qtot 28.632280
  759         hx     29    bbb     H3    759 0.11563300   1.008000   ; qtot 28.747913
  760         hx     29    bbb     H4    760 0.11563300   1.008000   ; qtot 28.863546
  761         hc     29    bbb     H5    761 0.08347900   1.008000   ; qtot 28.947025
  762         hc     29    bbb     H6    762 0.08347900   1.008000   ; qtot 29.030504
  763         hc     29    bbb     H7    763 0.08347900   1.008000   ; qtot 29.113983
  764         hc     29    bbb     H8    764 0.08347900   1.008000   ; qtot 29.197462
  765         hx     29    bbb     H9    765 0.07988000   1.008000   ; qtot 29.277342
  766         hx     29    bbb    H10    766 0.07988000   1.008000   ; qtot 29.357222
  767         h1     29    bbb    H11    767 0.10618100   1.008000   ; qtot 29.463403
  768         h1     29    bbb    H12    768 0.10618100   1.008000   ; qtot 29.569584
  769         hn     29    bbb    H13    769 0.25916100   1.008000   ; qtot 29.828745
  770         hn     29    bbb    H25    770 0.17125500   1.008000   ; qtot 30.000000
; residue   30 ccc rtp ccc q 1.0
  771          n     30    ccc     N1    771 -0.33303000  14.010000   ; qtot 29.666970
  772         hn     30    ccc     H4    772 0.25916100   1.008000   ; qtot 29.926131
  773         c3     30    ccc     C3    773 -0.03328100  12.010000   ; qtot 29.892850
  774         h1     30    ccc     H5    774 0.10618100   1.008000   ; qtot 29.999031
  775         c3     30    ccc     C4    775 -0.02083000  12.010000   ; qtot 29.978201
  776         h1     30    ccc     H6    776 0.10618100   1.008000   ; qtot 30.084382
  777         h1     30    ccc     H7    777 0.07988000   1.008000   ; qtot 30.164262
  778         h1     30    ccc     H8    778 0.07988000   1.008000   ; qtot 30.244142
  779         n4     30    ccc     N2    779 -0.02747900  14.010000   ; qtot 30.216663
  780         c3     30    ccc     C5    780 -0.05097600  12.010000   ; qtot 30.165687
  781         c3     30    ccc     C6    781 -0.05097600  12.010000   ; qtot 30.114711
  782         h1     30    ccc     H9    782 0.11563300   1.008000   ; qtot 30.230344
  783         c3     30    ccc     C7    783 -0.18457900  12.010000   ; qtot 30.045765
  784         h1     30    ccc    H10    784 0.11563300   1.008000   ; qtot 30.161398
  785         hc     30    ccc    H11    785 0.08347900   1.008000   ; qtot 30.244877
  786         hc     30    ccc    H12    786 0.08347900   1.008000   ; qtot 30.328356
  787          c     30    ccc     C8    787 0.67254400  12.010000   ; qtot 31.000900
  788          o     30    ccc     O2    788 -0.52917200  16.000000   ; qtot 30.471728
  789         h1     30    ccc    H13    789 0.11563300   1.008000   ; qtot 30.587361
  790         h1     30    ccc    H14    790 0.11563300   1.008000   ; qtot 30.702994
  791         c3     30    ccc     C9    791 -0.18457900  12.010000   ; qtot 30.518415
  792         hc     30    ccc    H15    792 0.08347900   1.008000   ; qtot 30.601894
  793         hc     30    ccc    H16    793 0.08347900   1.008000   ; qtot 30.685373
  794          c     30    ccc    C10    794 0.67254400  12.010000   ; qtot 31.357917
  795          o     30    ccc     O4    795 -0.52917200  16.000000   ; qtot 30.828745
  796         c3     30    ccc    C11    796 0.08518000  12.010000   ; qtot 30.913925
  797         c3     30    ccc    C12    797 0.07918000  12.010000   ; qtot 30.993105
  798         h1     30    ccc    H17    798 0.06978000   1.008000   ; qtot 31.062885
  799         c3     30    ccc    C13    799 0.07918000  12.010000   ; qtot 31.142065
  800         c3     30    ccc    C14    800 0.03578000  12.010000   ; qtot 31.177845
  801         c3     30    ccc    C15    801 0.33498000  12.010000   ; qtot 31.512825
  802         h1     30    ccc    H18    802 0.06178000   1.008000   ; qtot 31.574605
  803         h1     30    ccc    H19    803 0.11278000   1.008000   ; qtot 31.687385
  804         h2     30    ccc    H20    804 0.12178000   1.008000   ; qtot 31.809165
  805         oh     30    ccc     O1    805 -0.56972000  16.000000   ; qtot 31.239445
  806         oh     30    ccc     O6    806 -0.57772000  16.000000   ; qtot 30.661725
  807         c3     30    ccc    C16    807 0.14548000  12.010000   ; qtot 30.807205
  808         ho     30    ccc    H21    808 0.40508000   1.008000   ; qtot 31.212285
  809         hn     30    ccc    H22    809 0.31758000   1.008000   ; qtot 31.529865
  810         h1     30    ccc    H23    810 0.06278000   1.008000   ; qtot 31.592645
  811         h1     30    ccc    H24    811 0.06278000   1.008000   ; qtot 31.655425
  812         oh     30    ccc     O7    812 -0.59472000  16.000000   ; qtot 31.060705
  813         ho     30    ccc    H25    813 0.41908000   1.008000   ; qtot 31.479785
  814         os     30    ccc     O8    814 -0.44552000  16.000000   ; qtot 31.034265
  815         ho     30    ccc    H26    815 0.41908000   1.008000   ; qtot 31.453345
  816         h1     30    ccc    H27    816 0.08578000   1.008000   ; qtot 31.539125
  817         oh     30    ccc     O9    817 -0.58672000  16.000000   ; qtot 30.952405
  818         ho     30    ccc    H28    818 0.41908000   1.008000   ; qtot 31.371485
  819         n3     30    ccc     N3    819 -0.54282000  14.010000   ; qtot 30.828665
  820         c3     30    ccc    C17    820 0.08518000  12.010000   ; qtot 30.913845
  821         c3     30    ccc    C18    821 0.07918000  12.010000   ; qtot 30.993025
  822         h1     30    ccc    H29    822 0.06978000   1.008000   ; qtot 31.062805
  823         c3     30    ccc    C19    823 0.07918000  12.010000   ; qtot 31.141985
  824         c3     30    ccc    C20    824 0.03578000  12.010000   ; qtot 31.177765
  825         c3     30    ccc    C21    825 0.33498000  12.010000   ; qtot 31.512745
  826         h1     30    ccc    H30    826 0.06178000   1.008000   ; qtot 31.574525
  827         h1     30    ccc    H31    827 0.11278000   1.008000   ; qtot 31.687305
  828         h2     30    ccc    H32    828 0.12178000   1.008000   ; qtot 31.809085
  829         oh     30    ccc    O10    829 -0.56972000  16.000000   ; qtot 31.239365
  830         oh     30    ccc    O11    830 -0.57772000  16.000000   ; qtot 30.661645
  831         c3     30    ccc    C22    831 0.14548000  12.010000   ; qtot 30.807125
  832         ho     30    ccc    H33    832 0.40508000   1.008000   ; qtot 31.212205
  833         hn     30    ccc    H34    833 0.31758000   1.008000   ; qtot 31.529785
  834         h1     30    ccc    H35    834 0.06278000   1.008000   ; qtot 31.592565
  835         h1     30    ccc    H36    835 0.06278000   1.008000   ; qtot 31.655345
  836         oh     30    ccc    O12    836 -0.59472000  16.000000   ; qtot 31.060625
  837         ho     30    ccc    H37    837 0.41908000   1.008000   ; qtot 31.479705
  838         os     30    ccc    O13    838 -0.44552000  16.000000   ; qtot 31.034185
  839         ho     30    ccc    H38    839 0.41908000   1.008000   ; qtot 31.453265
  840         h1     30    ccc    H39    840 0.08578000   1.008000   ; qtot 31.539045
  841         oh     30    ccc     O5    841 -0.58672000  16.000000   ; qtot 30.952325
  842         ho     30    ccc    H40    842 0.41908000   1.008000   ; qtot 31.371405
  843         n3     30    ccc     N4    843 -0.54282000  14.010000   ; qtot 30.828585
  844         hn     30    ccc    H41    844 0.17125500   1.008000   ; qtot 30.999840
; residue   31 ccc rtp ccc q 1.0
  845          n     31    ccc     N1    845 -0.33303000  14.010000   ; qtot 30.666810
  846         hn     31    ccc     H4    846 0.25916100   1.008000   ; qtot 30.925971
  847         c3     31    ccc     C3    847 -0.03328100  12.010000   ; qtot 30.892690
  848         h1     31    ccc     H5    848 0.10618100   1.008000   ; qtot 30.998871
  849         c3     31    ccc     C4    849 -0.02083000  12.010000   ; qtot 30.978041
  850         h1     31    ccc     H6    850 0.10618100   1.008000   ; qtot 31.084222
  851         h1     31    ccc     H7    851 0.07988000   1.008000   ; qtot 31.164102
  852         h1     31    ccc     H8    852 0.07988000   1.008000   ; qtot 31.243982
  853         n4     31    ccc     N2    853 -0.02747900  14.010000   ; qtot 31.216503
  854         c3     31    ccc     C5    854 -0.05097600  12.010000   ; qtot 31.165527
  855         c3     31    ccc     C6    855 -0.05097600  12.010000   ; qtot 31.114551
  856         h1     31    ccc     H9    856 0.11563300   1.008000   ; qtot 31.230184
  857         c3     31    ccc     C7    857 -0.18457900  12.010000   ; qtot 31.045605
  858         h1     31    ccc    H10    858 0.11563300   1.008000   ; qtot 31.161238
  859         hc     31    ccc    H11    859 0.08347900   1.008000   ; qtot 31.244717
  860         hc     31    ccc    H12    860 0.08347900   1.008000   ; qtot 31.328196
  861          c     31    ccc     C8    861 0.67254400  12.010000   ; qtot 32.000740
  862          o     31    ccc     O2    862 -0.52917200  16.000000   ; qtot 31.471568
  863         h1     31    ccc    H13    863 0.11563300   1.008000   ; qtot 31.587201
  864         h1     31    ccc    H14    864 0.11563300   1.008000   ; qtot 31.702834
  865         c3     31    ccc     C9    865 -0.18457900  12.010000   ; qtot 31.518255
  866         hc     31    ccc    H15    866 0.08347900   1.008000   ; qtot 31.601734
  867         hc     31    ccc    H16    867 0.08347900   1.008000   ; qtot 31.685213
  868          c     31    ccc    C10    868 0.67254400  12.010000   ; qtot 32.357757
  869          o     31    ccc     O4    869 -0.52917200  16.000000   ; qtot 31.828585
  870         c3     31    ccc    C11    870 0.08518000  12.010000   ; qtot 31.913765
  871         c3     31    ccc    C12    871 0.07918000  12.010000   ; qtot 31.992945
  872         h1     31    ccc    H17    872 0.06978000   1.008000   ; qtot 32.062725
  873         c3     31    ccc    C13    873 0.07918000  12.010000   ; qtot 32.141905
  874         c3     31    ccc    C14    874 0.03578000  12.010000   ; qtot 32.177685
  875         c3     31    ccc    C15    875 0.33498000  12.010000   ; qtot 32.512665
  876         h1     31    ccc    H18    876 0.06178000   1.008000   ; qtot 32.574445
  877         h1     31    ccc    H19    877 0.11278000   1.008000   ; qtot 32.687225
  878         h2     31    ccc    H20    878 0.12178000   1.008000   ; qtot 32.809005
  879         oh     31    ccc     O1    879 -0.56972000  16.000000   ; qtot 32.239285
  880         oh     31    ccc     O6    880 -0.57772000  16.000000   ; qtot 31.661565
  881         c3     31    ccc    C16    881 0.14548000  12.010000   ; qtot 31.807045
  882         ho     31    ccc    H21    882 0.40508000   1.008000   ; qtot 32.212125
  883         hn     31    ccc    H22    883 0.31758000   1.008000   ; qtot 32.529705
  884         h1     31    ccc    H23    884 0.06278000   1.008000   ; qtot 32.592485
  885         h1     31    ccc    H24    885 0.06278000   1.008000   ; qtot 32.655265
  886         oh     31    ccc     O7    886 -0.59472000  16.000000   ; qtot 32.060545
  887         ho     31    ccc    H25    887 0.41908000   1.008000   ; qtot 32.479625
  888         os     31    ccc     O8    888 -0.44552000  16.000000   ; qtot 32.034105
  889         ho     31    ccc    H26    889 0.41908000   1.008000   ; qtot 32.453185
  890         h1     31    ccc    H27    890 0.08578000   1.008000   ; qtot 32.538965
  891         oh     31    ccc     O9    891 -0.58672000  16.000000   ; qtot 31.952245
  892         ho     31    ccc    H28    892 0.41908000   1.008000   ; qtot 32.371325
  893         n3     31    ccc     N3    893 -0.54282000  14.010000   ; qtot 31.828505
  894         c3     31    ccc    C17    894 0.08518000  12.010000   ; qtot 31.913685
  895         c3     31    ccc    C18    895 0.07918000  12.010000   ; qtot 31.992865
  896         h1     31    ccc    H29    896 0.06978000   1.008000   ; qtot 32.062645
  897         c3     31    ccc    C19    897 0.07918000  12.010000   ; qtot 32.141825
  898         c3     31    ccc    C20    898 0.03578000  12.010000   ; qtot 32.177605
  899         c3     31    ccc    C21    899 0.33498000  12.010000   ; qtot 32.512585
  900         h1     31    ccc    H30    900 0.06178000   1.008000   ; qtot 32.574365
  901         h1     31    ccc    H31    901 0.11278000   1.008000   ; qtot 32.687145
  902         h2     31    ccc    H32    902 0.12178000   1.008000   ; qtot 32.808925
  903         oh     31    ccc    O10    903 -0.56972000  16.000000   ; qtot 32.239205
  904         oh     31    ccc    O11    904 -0.57772000  16.000000   ; qtot 31.661485
  905         c3     31    ccc    C22    905 0.14548000  12.010000   ; qtot 31.806965
  906         ho     31    ccc    H33    906 0.40508000   1.008000   ; qtot 32.212045
  907         hn     31    ccc    H34    907 0.31758000   1.008000   ; qtot 32.529625
  908         h1     31    ccc    H35    908 0.06278000   1.008000   ; qtot 32.592405
  909         h1     31    ccc    H36    909 0.06278000   1.008000   ; qtot 32.655185
  910         oh     31    ccc    O12    910 -0.59472000  16.000000   ; qtot 32.060465
  911         ho     31    ccc    H37    911 0.41908000   1.008000   ; qtot 32.479545
  912         os     31    ccc    O13    912 -0.44552000  16.000000   ; qtot 32.034025
  913         ho     31    ccc    H38    913 0.41908000   1.008000   ; qtot 32.453105
  914         h1     31    ccc    H39    914 0.08578000   1.008000   ; qtot 32.538885
  915         oh     31    ccc     O5    915 -0.58672000  16.000000   ; qtot 31.952165
  916         ho     31    ccc    H40    916 0.41908000   1.008000   ; qtot 32.371245
  917         n3     31    ccc     N4    917 -0.54282000  14.010000   ; qtot 31.828425
  918         hn     31    ccc    H41    918 0.17125500   1.008000   ; qtot 31.999680
; residue   32 ccc rtp ccc q 1.0
  919          n     32    ccc     N1    919 -0.33303000  14.010000   ; qtot 31.666650
  920         hn     32    ccc     H4    920 0.25916100   1.008000   ; qtot 31.925811
  921         c3     32    ccc     C3    921 -0.03328100  12.010000   ; qtot 31.892530
  922         h1     32    ccc     H5    922 0.10618100   1.008000   ; qtot 31.998711
  923         c3     32    ccc     C4    923 -0.02083000  12.010000   ; qtot 31.977881
  924         h1     32    ccc     H6    924 0.10618100   1.008000   ; qtot 32.084062
  925         h1     32    ccc     H7    925 0.07988000   1.008000   ; qtot 32.163942
  926         h1     32    ccc     H8    926 0.07988000   1.008000   ; qtot 32.243822
  927         n4     32    ccc     N2    927 -0.02747900  14.010000   ; qtot 32.216343
  928         c3     32    ccc     C5    928 -0.05097600  12.010000   ; qtot 32.165367
  929         c3     32    ccc     C6    929 -0.05097600  12.010000   ; qtot 32.114391
  930         h1     32    ccc     H9    930 0.11563300   1.008000   ; qtot 32.230024
  931         c3     32    ccc     C7    931 -0.18457900  12.010000   ; qtot 32.045445
  932         h1     32    ccc    H10    932 0.11563300   1.008000   ; qtot 32.161078
  933         hc     32    ccc    H11    933 0.08347900   1.008000   ; qtot 32.244557
  934         hc     32    ccc    H12    934 0.08347900   1.008000   ; qtot 32.328036
  935          c     32    ccc     C8    935 0.67254400  12.010000   ; qtot 33.000580
  936          o     32    ccc     O2    936 -0.52917200  16.000000   ; qtot 32.471408
  937         h1     32    ccc    H13    937 0.11563300   1.008000   ; qtot 32.587041
  938         h1     32    ccc    H14    938 0.11563300   1.008000   ; qtot 32.702674
  939         c3     32    ccc     C9    939 -0.18457900  12.010000   ; qtot 32.518095
  940         hc     32    ccc    H15    940 0.08347900   1.008000   ; qtot 32.601574
  941         hc     32    ccc    H16    941 0.08347900   1.008000   ; qtot 32.685053
  942          c     32    ccc    C10    942 0.67254400  12.010000   ; qtot 33.357597
  943          o     32    ccc     O4    943 -0.52917200  16.000000   ; qtot 32.828425
  944         c3     32    ccc    C11    944 0.08518000  12.010000   ; qtot 32.913605
  945         c3     32    ccc    C12    945 0.07918000  12.010000   ; qtot 32.992785
  946         h1     32    ccc    H17    946 0.06978000   1.008000   ; qtot 33.062565
  947         c3     32    ccc    C13    947 0.07918000  12.010000   ; qtot 33.141745
  948         c3     32    ccc    C14    948 0.03578000  12.010000   ; qtot 33.177525
  949         c3     32    ccc    C15    949 0.33498000  12.010000   ; qtot 33.512505
  950         h1     32    ccc    H18    950 0.06178000   1.008000   ; qtot 33.574285
  951         h1     32    ccc    H19    951 0.11278000   1.008000   ; qtot 33.687065
  952         h2     32    ccc    H20    952 0.12178000   1.008000   ; qtot 33.808845
  953         oh     32    ccc     O1    953 -0.56972000  16.000000   ; qtot 33.239125
  954         oh     32    ccc     O6    954 -0.57772000  16.000000   ; qtot 32.661405
  955         c3     32    ccc    C16    955 0.14548000  12.010000   ; qtot 32.806885
  956         ho     32    ccc    H21    956 0.40508000   1.008000   ; qtot 33.211965
  957         hn     32    ccc    H22    957 0.31758000   1.008000   ; qtot 33.529545
  958         h1     32    ccc    H23    958 0.06278000   1.008000   ; qtot 33.592325
  959         h1     32    ccc    H24    959 0.06278000   1.008000   ; qtot 33.655105
  960         oh     32    ccc     O7    960 -0.59472000  16.000000   ; qtot 33.060385
  961         ho     32    ccc    H25    961 0.41908000   1.008000   ; qtot 33.479465
  962         os     32    ccc     O8    962 -0.44552000  16.000000   ; qtot 33.033945
  963         ho     32    ccc    H26    963 0.41908000   1.008000   ; qtot 33.453025
  964         h1     32    ccc    H27    964 0.08578000   1.008000   ; qtot 33.538805
  965         oh     32    ccc     O9    965 -0.58672000  16.000000   ; qtot 32.952085
  966         ho     32    ccc    H28    966 0.41908000   1.008000   ; qtot 33.371165
  967         n3     32    ccc     N3    967 -0.54282000  14.010000   ; qtot 32.828345
  968         c3     32    ccc    C17    968 0.08518000  12.010000   ; qtot 32.913525
  969         c3     32    ccc    C18    969 0.07918000  12.010000   ; qtot 32.992705
  970         h1     32    ccc    H29    970 0.06978000   1.008000   ; qtot 33.062485
  971         c3     32    ccc    C19    971 0.07918000  12.010000   ; qtot 33.141665
  972         c3     32    ccc    C20    972 0.03578000  12.010000   ; qtot 33.177445
  973         c3     32    ccc    C21    973 0.33498000  12.010000   ; qtot 33.512425
  974         h1     32    ccc    H30    974 0.06178000   1.008000   ; qtot 33.574205
  975         h1     32    ccc    H31    975 0.11278000   1.008000   ; qtot 33.686985
  976         h2     32    ccc    H32    976 0.12178000   1.008000   ; qtot 33.808765
  977         oh     32    ccc    O10    977 -0.56972000  16.000000   ; qtot 33.239045
  978         oh     32    ccc    O11    978 -0.57772000  16.000000   ; qtot 32.661325
  979         c3     32    ccc    C22    979 0.14548000  12.010000   ; qtot 32.806805
  980         ho     32    ccc    H33    980 0.40508000   1.008000   ; qtot 33.211885
  981         hn     32    ccc    H34    981 0.31758000   1.008000   ; qtot 33.529465
  982         h1     32    ccc    H35    982 0.06278000   1.008000   ; qtot 33.592245
  983         h1     32    ccc    H36    983 0.06278000   1.008000   ; qtot 33.655025
  984         oh     32    ccc    O12    984 -0.59472000  16.000000   ; qtot 33.060305
  985         ho     32    ccc    H37    985 0.41908000   1.008000   ; qtot 33.479385
  986         os     32    ccc    O13    986 -0.44552000  16.000000   ; qtot 33.033865
  987         ho     32    ccc    H38    987 0.41908000   1.008000   ; qtot 33.452945
  988         h1     32    ccc    H39    988 0.08578000   1.008000   ; qtot 33.538725
  989         oh     32    ccc     O5    989 -0.58672000  16.000000   ; qtot 32.952005
  990         ho     32    ccc    H40    990 0.41908000   1.008000   ; qtot 33.371085
  991         n3     32    ccc     N4    991 -0.54282000  14.010000   ; qtot 32.828265
  992         hn     32    ccc    H41    992 0.17125500   1.008000   ; qtot 32.999520
; residue   33 ccc rtp ccc q 1.0
  993          n     33    ccc     N1    993 -0.33303000  14.010000   ; qtot 32.666490
  994         hn     33    ccc     H4    994 0.25916100   1.008000   ; qtot 32.925651
  995         c3     33    ccc     C3    995 -0.03328100  12.010000   ; qtot 32.892370
  996         h1     33    ccc     H5    996 0.10618100   1.008000   ; qtot 32.998551
  997         c3     33    ccc     C4    997 -0.02083000  12.010000   ; qtot 32.977721
  998         h1     33    ccc     H6    998 0.10618100   1.008000   ; qtot 33.083902
  999         h1     33    ccc     H7    999 0.07988000   1.008000   ; qtot 33.163782
 1000         h1     33    ccc     H8   1000 0.07988000   1.008000   ; qtot 33.243662
 1001         n4     33    ccc     N2   1001 -0.02747900  14.010000   ; qtot 33.216183
 1002         c3     33    ccc     C5   1002 -0.05097600  12.010000   ; qtot 33.165207
 1003         c3     33    ccc     C6   1003 -0.05097600  12.010000   ; qtot 33.114231
 1004         h1     33    ccc     H9   1004 0.11563300   1.008000   ; qtot 33.229864
 1005         c3     33    ccc     C7   1005 -0.18457900  12.010000   ; qtot 33.045285
 1006         h1     33    ccc    H10   1006 0.11563300   1.008000   ; qtot 33.160918
 1007         hc     33    ccc    H11   1007 0.08347900   1.008000   ; qtot 33.244397
 1008         hc     33    ccc    H12   1008 0.08347900   1.008000   ; qtot 33.327876
 1009          c     33    ccc     C8   1009 0.67254400  12.010000   ; qtot 34.000420
 1010          o     33    ccc     O2   1010 -0.52917200  16.000000   ; qtot 33.471248
 1011         h1     33    ccc    H13   1011 0.11563300   1.008000   ; qtot 33.586881
 1012         h1     33    ccc    H14   1012 0.11563300   1.008000   ; qtot 33.702514
 1013         c3     33    ccc     C9   1013 -0.18457900  12.010000   ; qtot 33.517935
 1014         hc     33    ccc    H15   1014 0.08347900   1.008000   ; qtot 33.601414
 1015         hc     33    ccc    H16   1015 0.08347900   1.008000   ; qtot 33.684893
 1016          c     33    ccc    C10   1016 0.67254400  12.010000   ; qtot 34.357437
 1017          o     33    ccc     O4   1017 -0.52917200  16.000000   ; qtot 33.828265
 1018         c3     33    ccc    C11   1018 0.08518000  12.010000   ; qtot 33.913445
 1019         c3     33    ccc    C12   1019 0.07918000  12.010000   ; qtot 33.992625
 1020         h1     33    ccc    H17   1020 0.06978000   1.008000   ; qtot 34.062405
 1021         c3     33    ccc    C13   1021 0.07918000  12.010000   ; qtot 34.141585
 1022         c3     33    ccc    C14   1022 0.03578000  12.010000   ; qtot 34.177365
 1023         c3     33    ccc    C15   1023 0.33498000  12.010000   ; qtot 34.512345
 1024         h1     33    ccc    H18   1024 0.06178000   1.008000   ; qtot 34.574125
 1025         h1     33    ccc    H19   1025 0.11278000   1.008000   ; qtot 34.686905
 1026         h2     33    ccc    H20   1026 0.12178000   1.008000   ; qtot 34.808685
 1027         oh     33    ccc     O1   1027 -0.56972000  16.000000   ; qtot 34.238965
 1028         oh     33    ccc     O6   1028 -0.57772000  16.000000   ; qtot 33.661245
 1029         c3     33    ccc    C16   1029 0.14548000  12.010000   ; qtot 33.806725
 1030         ho     33    ccc    H21   1030 0.40508000   1.008000   ; qtot 34.211805
 1031         hn     33    ccc    H22   1031 0.31758000   1.008000   ; qtot 34.529385
 1032         h1     33    ccc    H23   1032 0.06278000   1.008000   ; qtot 34.592165
 1033         h1     33    ccc    H24   1033 0.06278000   1.008000   ; qtot 34.654945
 1034         oh     33    ccc     O7   1034 -0.59472000  16.000000   ; qtot 34.060225
 1035         ho     33    ccc    H25   1035 0.41908000   1.008000   ; qtot 34.479305
 1036         os     33    ccc     O8   1036 -0.44552000  16.000000   ; qtot 34.033785
 1037         ho     33    ccc    H26   1037 0.41908000   1.008000   ; qtot 34.452865
 1038         h1     33    ccc    H27   1038 0.08578000   1.008000   ; qtot 34.538645
 1039         oh     33    ccc     O9   1039 -0.58672000  16.000000   ; qtot 33.951925
 1040         ho     33    ccc    H28   1040 0.41908000   1.008000   ; qtot 34.371005
 1041         n3     33    ccc     N3   1041 -0.54282000  14.010000   ; qtot 33.828185
 1042         c3     33    ccc    C17   1042 0.08518000  12.010000   ; qtot 33.913365
 1043         c3     33    ccc    C18   1043 0.07918000  12.010000   ; qtot 33.992545
 1044         h1     33    ccc    H29   1044 0.06978000   1.008000   ; qtot 34.062325
 1045         c3     33    ccc    C19   1045 0.07918000  12.010000   ; qtot 34.141505
 1046         c3     33    ccc    C20   1046 0.03578000  12.010000   ; qtot 34.177285
 1047         c3     33    ccc    C21   1047 0.33498000  12.010000   ; qtot 34.512265
 1048         h1     33    ccc    H30   1048 0.06178000   1.008000   ; qtot 34.574045
 1049         h1     33    ccc    H31   1049 0.11278000   1.008000   ; qtot 34.686825
 1050         h2     33    ccc    H32   1050 0.12178000   1.008000   ; qtot 34.808605
 1051         oh     33    ccc    O10   1051 -0.56972000  16.000000   ; qtot 34.238885
 1052         oh     33    ccc    O11   1052 -0.57772000  16.000000   ; qtot 33.661165
 1053         c3     33    ccc    C22   1053 0.14548000  12.010000   ; qtot 33.806645
 1054         ho     33    ccc    H33   1054 0.40508000   1.008000   ; qtot 34.211725
 1055         hn     33    ccc    H34   1055 0.31758000   1.008000   ; qtot 34.529305
 1056         h1     33    ccc    H35   1056 0.06278000   1.008000   ; qtot 34.592085
 1057         h1     33    ccc    H36   1057 0.06278000   1.008000   ; qtot 34.654865
 1058         oh     33    ccc    O12   1058 -0.59472000  16.000000   ; qtot 34.060145
 1059         ho     33    ccc    H37   1059 0.41908000   1.008000   ; qtot 34.479225
 1060         os     33    ccc    O13   1060 -0.44552000  16.000000   ; qtot 34.033705
 1061         ho     33    ccc    H38   1061 0.41908000   1.008000   ; qtot 34.452785
 1062         h1     33    ccc    H39   1062 0.08578000   1.008000   ; qtot 34.538565
 1063         oh     33    ccc     O5   1063 -0.58672000  16.000000   ; qtot 33.951845
 1064         ho     33    ccc    H40   1064 0.41908000   1.008000   ; qtot 34.370925
 1065         n3     33    ccc     N4   1065 -0.54282000  14.010000   ; qtot 33.828105
 1066         hn     33    ccc    H41   1066 0.17125500   1.008000   ; qtot 33.999360
; residue   34 ccc rtp ccc q 1.0
 1067          n     34    ccc     N1   1067 -0.33303000  14.010000   ; qtot 33.666330
 1068         hn     34    ccc     H4   1068 0.25916100   1.008000   ; qtot 33.925491
 1069         c3     34    ccc     C3   1069 -0.03328100  12.010000   ; qtot 33.892210
 1070         h1     34    ccc     H5   1070 0.10618100   1.008000   ; qtot 33.998391
 1071         c3     34    ccc     C4   1071 -0.02083000  12.010000   ; qtot 33.977561
 1072         h1     34    ccc     H6   1072 0.10618100   1.008000   ; qtot 34.083742
 1073         h1     34    ccc     H7   1073 0.07988000   1.008000   ; qtot 34.163622
 1074         h1     34    ccc     H8   1074 0.07988000   1.008000   ; qtot 34.243502
 1075         n4     34    ccc     N2   1075 -0.02747900  14.010000   ; qtot 34.216023
 1076         c3     34    ccc     C5   1076 -0.05097600  12.010000   ; qtot 34.165047
 1077         c3     34    ccc     C6   1077 -0.05097600  12.010000   ; qtot 34.114071
 1078         h1     34    ccc     H9   1078 0.11563300   1.008000   ; qtot 34.229704
 1079         c3     34    ccc     C7   1079 -0.18457900  12.010000   ; qtot 34.045125
 1080         h1     34    ccc    H10   1080 0.11563300   1.008000   ; qtot 34.160758
 1081         hc     34    ccc    H11   1081 0.08347900   1.008000   ; qtot 34.244237
 1082         hc     34    ccc    H12   1082 0.08347900   1.008000   ; qtot 34.327716
 1083          c     34    ccc     C8   1083 0.67254400  12.010000   ; qtot 35.000260
 1084          o     34    ccc     O2   1084 -0.52917200  16.000000   ; qtot 34.471088
 1085         h1     34    ccc    H13   1085 0.11563300   1.008000   ; qtot 34.586721
 1086         h1     34    ccc    H14   1086 0.11563300   1.008000   ; qtot 34.702354
 1087         c3     34    ccc     C9   1087 -0.18457900  12.010000   ; qtot 34.517775
 1088         hc     34    ccc    H15   1088 0.08347900   1.008000   ; qtot 34.601254
 1089         hc     34    ccc    H16   1089 0.08347900   1.008000   ; qtot 34.684733
 1090          c     34    ccc    C10   1090 0.67254400  12.010000   ; qtot 35.357277
 1091          o     34    ccc     O4   1091 -0.52917200  16.000000   ; qtot 34.828105
 1092         c3     34    ccc    C11   1092 0.08518000  12.010000   ; qtot 34.913285
 1093         c3     34    ccc    C12   1093 0.07918000  12.010000   ; qtot 34.992465
 1094         h1     34    ccc    H17   1094 0.06978000   1.008000   ; qtot 35.062245
 1095         c3     34    ccc    C13   1095 0.07918000  12.010000   ; qtot 35.141425
 1096         c3     34    ccc    C14   1096 0.03578000  12.010000   ; qtot 35.177205
 1097         c3     34    ccc    C15   1097 0.33498000  12.010000   ; qtot 35.512185
 1098         h1     34    ccc    H18   1098 0.06178000   1.008000   ; qtot 35.573965
 1099         h1     34    ccc    H19   1099 0.11278000   1.008000   ; qtot 35.686745
 1100         h2     34    ccc    H20   1100 0.12178000   1.008000   ; qtot 35.808525
 1101         oh     34    ccc     O1   1101 -0.56972000  16.000000   ; qtot 35.238805
 1102         oh     34    ccc     O6   1102 -0.57772000  16.000000   ; qtot 34.661085
 1103         c3     34    ccc    C16   1103 0.14548000  12.010000   ; qtot 34.806565
 1104         ho     34    ccc    H21   1104 0.40508000   1.008000   ; qtot 35.211645
 1105         hn     34    ccc    H22   1105 0.31758000   1.008000   ; qtot 35.529225
 1106         h1     34    ccc    H23   1106 0.06278000   1.008000   ; qtot 35.592005
 1107         h1     34    ccc    H24   1107 0.06278000   1.008000   ; qtot 35.654785
 1108         oh     34    ccc     O7   1108 -0.59472000  16.000000   ; qtot 35.060065
 1109         ho     34    ccc    H25   1109 0.41908000   1.008000   ; qtot 35.479145
 1110         os     34    ccc     O8   1110 -0.44552000  16.000000   ; qtot 35.033625
 1111         ho     34    ccc    H26   1111 0.41908000   1.008000   ; qtot 35.452705
 1112         h1     34    ccc    H27   1112 0.08578000   1.008000   ; qtot 35.538485
 1113         oh     34    ccc     O9   1113 -0.58672000  16.000000   ; qtot 34.951765
 1114         ho     34    ccc    H28   1114 0.41908000   1.008000   ; qtot 35.370845
 1115         n3     34    ccc     N3   1115 -0.54282000  14.010000   ; qtot 34.828025
 1116         c3     34    ccc    C17   1116 0.08518000  12.010000   ; qtot 34.913205
 1117         c3     34    ccc    C18   1117 0.07918000  12.010000   ; qtot 34.992385
 1118         h1     34    ccc    H29   1118 0.06978000   1.008000   ; qtot 35.062165
 1119         c3     34    ccc    C19   1119 0.07918000  12.010000   ; qtot 35.141345
 1120         c3     34    ccc    C20   1120 0.03578000  12.010000   ; qtot 35.177125
 1121         c3     34    ccc    C21   1121 0.33498000  12.010000   ; qtot 35.512105
 1122         h1     34    ccc    H30   1122 0.06178000   1.008000   ; qtot 35.573885
 1123         h1     34    ccc    H31   1123 0.11278000   1.008000   ; qtot 35.686665
 1124         h2     34    ccc    H32   1124 0.12178000   1.008000   ; qtot 35.808445
 1125         oh     34    ccc    O10   1125 -0.56972000  16.000000   ; qtot 35.238725
 1126         oh     34    ccc    O11   1126 -0.57772000  16.000000   ; qtot 34.661005
 1127         c3     34    ccc    C22   1127 0.14548000  12.010000   ; qtot 34.806485
 1128         ho     34    ccc    H33   1128 0.40508000   1.008000   ; qtot 35.211565
 1129         hn     34    ccc    H34   1129 0.31758000   1.008000   ; qtot 35.529145
 1130         h1     34    ccc    H35   1130 0.06278000   1.008000   ; qtot 35.591925
 1131         h1     34    ccc    H36   1131 0.06278000   1.008000   ; qtot 35.654705
 1132         oh     34    ccc    O12   1132 -0.59472000  16.000000   ; qtot 35.059985
 1133         ho     34    ccc    H37   1133 0.41908000   1.008000   ; qtot 35.479065
 1134         os     34    ccc    O13   1134 -0.44552000  16.000000   ; qtot 35.033545
 1135         ho     34    ccc    H38   1135 0.41908000   1.008000   ; qtot 35.452625
 1136         h1     34    ccc    H39   1136 0.08578000   1.008000   ; qtot 35.538405
 1137         oh     34    ccc     O5   1137 -0.58672000  16.000000   ; qtot 34.951685
 1138         ho     34    ccc    H40   1138 0.41908000   1.008000   ; qtot 35.370765
 1139         n3     34    ccc     N4   1139 -0.54282000  14.010000   ; qtot 34.827945
 1140         hn     34    ccc    H41   1140 0.17125500   1.008000   ; qtot 34.999200
; residue   35 ccc rtp ccc q 1.0
 1141          n     35    ccc     N1   1141 -0.33303000  14.010000   ; qtot 34.666170
 1142         hn     35    ccc     H4   1142 0.25916100   1.008000   ; qtot 34.925331
 1143         c3     35    ccc     C3   1143 -0.03328100  12.010000   ; qtot 34.892050
 1144         h1     35    ccc     H5   1144 0.10618100   1.008000   ; qtot 34.998231
 1145         c3     35    ccc     C4   1145 -0.02083000  12.010000   ; qtot 34.977401
 1146         h1     35    ccc     H6   1146 0.10618100   1.008000   ; qtot 35.083582
 1147         h1     35    ccc     H7   1147 0.07988000   1.008000   ; qtot 35.163462
 1148         h1     35    ccc     H8   1148 0.07988000   1.008000   ; qtot 35.243342
 1149         n4     35    ccc     N2   1149 -0.02747900  14.010000   ; qtot 35.215863
 1150         c3     35    ccc     C5   1150 -0.05097600  12.010000   ; qtot 35.164887
 1151         c3     35    ccc     C6   1151 -0.05097600  12.010000   ; qtot 35.113911
 1152         h1     35    ccc     H9   1152 0.11563300   1.008000   ; qtot 35.229544
 1153         c3     35    ccc     C7   1153 -0.18457900  12.010000   ; qtot 35.044965
 1154         h1     35    ccc    H10   1154 0.11563300   1.008000   ; qtot 35.160598
 1155         hc     35    ccc    H11   1155 0.08347900   1.008000   ; qtot 35.244077
 1156         hc     35    ccc    H12   1156 0.08347900   1.008000   ; qtot 35.327556
 1157          c     35    ccc     C8   1157 0.67254400  12.010000   ; qtot 36.000100
 1158          o     35    ccc     O2   1158 -0.52917200  16.000000   ; qtot 35.470928
 1159         h1     35    ccc    H13   1159 0.11563300   1.008000   ; qtot 35.586561
 1160         h1     35    ccc    H14   1160 0.11563300   1.008000   ; qtot 35.702194
 1161         c3     35    ccc     C9   1161 -0.18457900  12.010000   ; qtot 35.517615
 1162         hc     35    ccc    H15   1162 0.08347900   1.008000   ; qtot 35.601094
 1163         hc     35    ccc    H16   1163 0.08347900   1.008000   ; qtot 35.684573
 1164          c     35    ccc    C10   1164 0.67254400  12.010000   ; qtot 36.357117
 1165          o     35    ccc     O4   1165 -0.52917200  16.000000   ; qtot 35.827945
 1166         c3     35    ccc    C11   1166 0.08518000  12.010000   ; qtot 35.913125
 1167         c3     35    ccc    C12   1167 0.07918000  12.010000   ; qtot 35.992305
 1168         h1     35    ccc    H17   1168 0.06978000   1.008000   ; qtot 36.062085
 1169         c3     35    ccc    C13   1169 0.07918000  12.010000   ; qtot 36.141265
 1170         c3     35    ccc    C14   1170 0.03578000  12.010000   ; qtot 36.177045
 1171         c3     35    ccc    C15   1171 0.33498000  12.010000   ; qtot 36.512025
 1172         h1     35    ccc    H18   1172 0.06178000   1.008000   ; qtot 36.573805
 1173         h1     35    ccc    H19   1173 0.11278000   1.008000   ; qtot 36.686585
 1174         h2     35    ccc    H20   1174 0.12178000   1.008000   ; qtot 36.808365
 1175         oh     35    ccc     O1   1175 -0.56972000  16.000000   ; qtot 36.238645
 1176         oh     35    ccc     O6   1176 -0.57772000  16.000000   ; qtot 35.660925
 1177         c3     35    ccc    C16   1177 0.14548000  12.010000   ; qtot 35.806405
 1178         ho     35    ccc    H21   1178 0.40508000   1.008000   ; qtot 36.211485
 1179         hn     35    ccc    H22   1179 0.31758000   1.008000   ; qtot 36.529065
 1180         h1     35    ccc    H23   1180 0.06278000   1.008000   ; qtot 36.591845
 1181         h1     35    ccc    H24   1181 0.06278000   1.008000   ; qtot 36.654625
 1182         oh     35    ccc     O7   1182 -0.59472000  16.000000   ; qtot 36.059905
 1183         ho     35    ccc    H25   1183 0.41908000   1.008000   ; qtot 36.478985
 1184         os     35    ccc     O8   1184 -0.44552000  16.000000   ; qtot 36.033465
 1185         ho     35    ccc    H26   1185 0.41908000   1.008000   ; qtot 36.452545
 1186         h1     35    ccc    H27   1186 0.08578000   1.008000   ; qtot 36.538325
 1187         oh     35    ccc     O9   1187 -0.58672000  16.000000   ; qtot 35.951605
 1188         ho     35    ccc    H28   1188 0.41908000   1.008000   ; qtot 36.370685
 1189         n3     35    ccc     N3   1189 -0.54282000  14.010000   ; qtot 35.827865
 1190         c3     35    ccc    C17   1190 0.08518000  12.010000   ; qtot 35.913045
 1191         c3     35    ccc    C18   1191 0.07918000  12.010000   ; qtot 35.992225
 1192         h1     35    ccc    H29   1192 0.06978000   1.008000   ; qtot 36.062005
 1193         c3     35    ccc    C19   1193 0.07918000  12.010000   ; qtot 36.141185
 1194         c3     35    ccc    C20   1194 0.03578000  12.010000   ; qtot 36.176965
 1195         c3     35    ccc    C21   1195 0.33498000  12.010000   ; qtot 36.511945
 1196         h1     35    ccc    H30   1196 0.06178000   1.008000   ; qtot 36.573725
 1197         h1     35    ccc    H31   1197 0.11278000   1.008000   ; qtot 36.686505
 1198         h2     35    ccc    H32   1198 0.12178000   1.008000   ; qtot 36.808285
 1199         oh     35    ccc    O10   1199 -0.56972000  16.000000   ; qtot 36.238565
 1200         oh     35    ccc    O11   1200 -0.57772000  16.000000   ; qtot 35.660845
 1201         c3     35    ccc    C22   1201 0.14548000  12.010000   ; qtot 35.806325
 1202         ho     35    ccc    H33   1202 0.40508000   1.008000   ; qtot 36.211405
 1203         hn     35    ccc    H34   1203 0.31758000   1.008000   ; qtot 36.528985
 1204         h1     35    ccc    H35   1204 0.06278000   1.008000   ; qtot 36.591765
 1205         h1     35    ccc    H36   1205 0.06278000   1.008000   ; qtot 36.654545
 1206         oh     35    ccc    O12   1206 -0.59472000  16.000000   ; qtot 36.059825
 1207         ho     35    ccc    H37   1207 0.41908000   1.008000   ; qtot 36.478905
 1208         os     35    ccc    O13   1208 -0.44552000  16.000000   ; qtot 36.033385
 1209         ho     35    ccc    H38   1209 0.41908000   1.008000   ; qtot 36.452465
 1210         h1     35    ccc    H39   1210 0.08578000   1.008000   ; qtot 36.538245
 1211         oh     35    ccc     O5   1211 -0.58672000  16.000000   ; qtot 35.951525
 1212         ho     35    ccc    H40   1212 0.41908000   1.008000   ; qtot 36.370605
 1213         n3     35    ccc     N4   1213 -0.54282000  14.010000   ; qtot 35.827785
 1214         hn     35    ccc    H41   1214 0.17125500   1.008000   ; qtot 35.999040
; residue   36 ccc rtp ccc q 1.0
 1215          n     36    ccc     N1   1215 -0.33303000  14.010000   ; qtot 35.666010
 1216         hn     36    ccc     H4   1216 0.25916100   1.008000   ; qtot 35.925171
 1217         c3     36    ccc     C3   1217 -0.03328100  12.010000   ; qtot 35.891890
 1218         h1     36    ccc     H5   1218 0.10618100   1.008000   ; qtot 35.998071
 1219         c3     36    ccc     C4   1219 -0.02083000  12.010000   ; qtot 35.977241
 1220         h1     36    ccc     H6   1220 0.10618100   1.008000   ; qtot 36.083422
 1221         h1     36    ccc     H7   1221 0.07988000   1.008000   ; qtot 36.163302
 1222         h1     36    ccc     H8   1222 0.07988000   1.008000   ; qtot 36.243182
 1223         n4     36    ccc     N2   1223 -0.02747900  14.010000   ; qtot 36.215703
 1224         c3     36    ccc     C5   1224 -0.05097600  12.010000   ; qtot 36.164727
 1225         c3     36    ccc     C6   1225 -0.05097600  12.010000   ; qtot 36.113751
 1226         h1     36    ccc     H9   1226 0.11563300   1.008000   ; qtot 36.229384
 1227         c3     36    ccc     C7   1227 -0.18457900  12.010000   ; qtot 36.044805
 1228         h1     36    ccc    H10   1228 0.11563300   1.008000   ; qtot 36.160438
 1229         hc     36    ccc    H11   1229 0.08347900   1.008000   ; qtot 36.243917
 1230         hc     36    ccc    H12   1230 0.08347900   1.008000   ; qtot 36.327396
 1231          c     36    ccc     C8   1231 0.67254400  12.010000   ; qtot 36.999940
 1232          o     36    ccc     O2   1232 -0.52917200  16.000000   ; qtot 36.470768
 1233         h1     36    ccc    H13   1233 0.11563300   1.008000   ; qtot 36.586401
 1234         h1     36    ccc    H14   1234 0.11563300   1.008000   ; qtot 36.702034
 1235         c3     36    ccc     C9   1235 -0.18457900  12.010000   ; qtot 36.517455
 1236         hc     36    ccc    H15   1236 0.08347900   1.008000   ; qtot 36.600934
 1237         hc     36    ccc    H16   1237 0.08347900   1.008000   ; qtot 36.684413
 1238          c     36    ccc    C10   1238 0.67254400  12.010000   ; qtot 37.356957
 1239          o     36    ccc     O4   1239 -0.52917200  16.000000   ; qtot 36.827785
 1240         c3     36    ccc    C11   1240 0.08518000  12.010000   ; qtot 36.912965
 1241         c3     36    ccc    C12   1241 0.07918000  12.010000   ; qtot 36.992145
 1242         h1     36    ccc    H17   1242 0.06978000   1.008000   ; qtot 37.061925
 1243         c3     36    ccc    C13   1243 0.07918000  12.010000   ; qtot 37.141105
 1244         c3     36    ccc    C14   1244 0.03578000  12.010000   ; qtot 37.176885
 1245         c3     36    ccc    C15   1245 0.33498000  12.010000   ; qtot 37.511865
 1246         h1     36    ccc    H18   1246 0.06178000   1.008000   ; qtot 37.573645
 1247         h1     36    ccc    H19   1247 0.11278000   1.008000   ; qtot 37.686425
 1248         h2     36    ccc    H20   1248 0.12178000   1.008000   ; qtot 37.808205
 1249         oh     36    ccc     O1   1249 -0.56972000  16.000000   ; qtot 37.238485
 1250         oh     36    ccc     O6   1250 -0.57772000  16.000000   ; qtot 36.660765
 1251         c3     36    ccc    C16   1251 0.14548000  12.010000   ; qtot 36.806245
 1252         ho     36    ccc    H21   1252 0.40508000   1.008000   ; qtot 37.211325
 1253         hn     36    ccc    H22   1253 0.31758000   1.008000   ; qtot 37.528905
 1254         h1     36    ccc    H23   1254 0.06278000   1.008000   ; qtot 37.591685
 1255         h1     36    ccc    H24   1255 0.06278000   1.008000   ; qtot 37.654465
 1256         oh     36    ccc     O7   1256 -0.59472000  16.000000   ; qtot 37.059745
 1257         ho     36    ccc    H25   1257 0.41908000   1.008000   ; qtot 37.478825
 1258         os     36    ccc     O8   1258 -0.44552000  16.000000   ; qtot 37.033305
 1259         ho     36    ccc    H26   1259 0.41908000   1.008000   ; qtot 37.452385
 1260         h1     36    ccc    H27   1260 0.08578000   1.008000   ; qtot 37.538165
 1261         oh     36    ccc     O9   1261 -0.58672000  16.000000   ; qtot 36.951445
 1262         ho     36    ccc    H28   1262 0.41908000   1.008000   ; qtot 37.370525
 1263         n3     36    ccc     N3   1263 -0.54282000  14.010000   ; qtot 36.827705
 1264         c3     36    ccc    C17   1264 0.08518000  12.010000   ; qtot 36.912885
 1265         c3     36    ccc    C18   1265 0.07918000  12.010000   ; qtot 36.992065
 1266         h1     36    ccc    H29   1266 0.06978000   1.008000   ; qtot 37.061845
 1267         c3     36    ccc    C19   1267 0.07918000  12.010000   ; qtot 37.141025
 1268         c3     36    ccc    C20   1268 0.03578000  12.010000   ; qtot 37.176805
 1269         c3     36    ccc    C21   1269 0.33498000  12.010000   ; qtot 37.511785
 1270         h1     36    ccc    H30   1270 0.06178000   1.008000   ; qtot 37.573565
 1271         h1     36    ccc    H31   1271 0.11278000   1.008000   ; qtot 37.686345
 1272         h2     36    ccc    H32   1272 0.12178000   1.008000   ; qtot 37.808125
 1273         oh     36    ccc    O10   1273 -0.56972000  16.000000   ; qtot 37.238405
 1274         oh     36    ccc    O11   1274 -0.57772000  16.000000   ; qtot 36.660685
 1275         c3     36    ccc    C22   1275 0.14548000  12.010000   ; qtot 36.806165
 1276         ho     36    ccc    H33   1276 0.40508000   1.008000   ; qtot 37.211245
 1277         hn     36    ccc    H34   1277 0.31758000   1.008000   ; qtot 37.528825
 1278         h1     36    ccc    H35   1278 0.06278000   1.008000   ; qtot 37.591605
 1279         h1     36    ccc    H36   1279 0.06278000   1.008000   ; qtot 37.654385
 1280         oh     36    ccc    O12   1280 -0.59472000  16.000000   ; qtot 37.059665
 1281         ho     36    ccc    H37   1281 0.41908000   1.008000   ; qtot 37.478745
 1282         os     36    ccc    O13   1282 -0.44552000  16.000000   ; qtot 37.033225
 1283         ho     36    ccc    H38   1283 0.41908000   1.008000   ; qtot 37.452305
 1284         h1     36    ccc    H39   1284 0.08578000   1.008000   ; qtot 37.538085
 1285         oh     36    ccc     O5   1285 -0.58672000  16.000000   ; qtot 36.951365
 1286         ho     36    ccc    H40   1286 0.41908000   1.008000   ; qtot 37.370445
 1287         n3     36    ccc     N4   1287 -0.54282000  14.010000   ; qtot 36.827625
 1288         hn     36    ccc    H41   1288 0.17125500   1.008000   ; qtot 36.998880
; residue   37 ccc rtp ccc q 1.0
 1289          n     37    ccc     N1   1289 -0.33303000  14.010000   ; qtot 36.665850
 1290         hn     37    ccc     H4   1290 0.25916100   1.008000   ; qtot 36.925011
 1291         c3     37    ccc     C3   1291 -0.03328100  12.010000   ; qtot 36.891730
 1292         h1     37    ccc     H5   1292 0.10618100   1.008000   ; qtot 36.997911
 1293         c3     37    ccc     C4   1293 -0.02083000  12.010000   ; qtot 36.977081
 1294         h1     37    ccc     H6   1294 0.10618100   1.008000   ; qtot 37.083262
 1295         h1     37    ccc     H7   1295 0.07988000   1.008000   ; qtot 37.163142
 1296         h1     37    ccc     H8   1296 0.07988000   1.008000   ; qtot 37.243022
 1297         n4     37    ccc     N2   1297 -0.02747900  14.010000   ; qtot 37.215543
 1298         c3     37    ccc     C5   1298 -0.05097600  12.010000   ; qtot 37.164567
 1299         c3     37    ccc     C6   1299 -0.05097600  12.010000   ; qtot 37.113591
 1300         h1     37    ccc     H9   1300 0.11563300   1.008000   ; qtot 37.229224
 1301         c3     37    ccc     C7   1301 -0.18457900  12.010000   ; qtot 37.044645
 1302         h1     37    ccc    H10   1302 0.11563300   1.008000   ; qtot 37.160278
 1303         hc     37    ccc    H11   1303 0.08347900   1.008000   ; qtot 37.243757
 1304         hc     37    ccc    H12   1304 0.08347900   1.008000   ; qtot 37.327236
 1305          c     37    ccc     C8   1305 0.67254400  12.010000   ; qtot 37.999780
 1306          o     37    ccc     O2   1306 -0.52917200  16.000000   ; qtot 37.470608
 1307         h1     37    ccc    H13   1307 0.11563300   1.008000   ; qtot 37.586241
 1308         h1     37    ccc    H14   1308 0.11563300   1.008000   ; qtot 37.701874
 1309         c3     37    ccc     C9   1309 -0.18457900  12.010000   ; qtot 37.517295
 1310         hc     37    ccc    H15   1310 0.08347900   1.008000   ; qtot 37.600774
 1311         hc     37    ccc    H16   1311 0.08347900   1.008000   ; qtot 37.684253
 1312          c     37    ccc    C10   1312 0.67254400  12.010000   ; qtot 38.356797
 1313          o     37    ccc     O4   1313 -0.52917200  16.000000   ; qtot 37.827625
 1314         c3     37    ccc    C11   1314 0.08518000  12.010000   ; qtot 37.912805
 1315         c3     37    ccc    C12   1315 0.07918000  12.010000   ; qtot 37.991985
 1316         h1     37    ccc    H17   1316 0.06978000   1.008000   ; qtot 38.061765
 1317         c3     37    ccc    C13   1317 0.07918000  12.010000   ; qtot 38.140945
 1318         c3     37    ccc    C14   1318 0.03578000  12.010000   ; qtot 38.176725
 1319         c3     37    ccc    C15   1319 0.33498000  12.010000   ; qtot 38.511705
 1320         h1     37    ccc    H18   1320 0.06178000   1.008000   ; qtot 38.573485
 1321         h1     37    ccc    H19   1321 0.11278000   1.008000   ; qtot 38.686265
 1322         h2     37    ccc    H20   1322 0.12178000   1.008000   ; qtot 38.808045
 1323         oh     37    ccc     O1   1323 -0.56972000  16.000000   ; qtot 38.238325
 1324         oh     37    ccc     O6   1324 -0.57772000  16.000000   ; qtot 37.660605
 1325         c3     37    ccc    C16   1325 0.14548000  12.010000   ; qtot 37.806085
 1326         ho     37    ccc    H21   1326 0.40508000   1.008000   ; qtot 38.211165
 1327         hn     37    ccc    H22   1327 0.31758000   1.008000   ; qtot 38.528745
 1328         h1     37    ccc    H23   1328 0.06278000   1.008000   ; qtot 38.591525
 1329         h1     37    ccc    H24   1329 0.06278000   1.008000   ; qtot 38.654305
 1330         oh     37    ccc     O7   1330 -0.59472000  16.000000   ; qtot 38.059585
 1331         ho     37    ccc    H25   1331 0.41908000   1.008000   ; qtot 38.478665
 1332         os     37    ccc     O8   1332 -0.44552000  16.000000   ; qtot 38.033145
 1333         ho     37    ccc    H26   1333 0.41908000   1.008000   ; qtot 38.452225
 1334         h1     37    ccc    H27   1334 0.08578000   1.008000   ; qtot 38.538005
 1335         oh     37    ccc     O9   1335 -0.58672000  16.000000   ; qtot 37.951285
 1336         ho     37    ccc    H28   1336 0.41908000   1.008000   ; qtot 38.370365
 1337         n3     37    ccc     N3   1337 -0.54282000  14.010000   ; qtot 37.827545
 1338         c3     37    ccc    C17   1338 0.08518000  12.010000   ; qtot 37.912725
 1339         c3     37    ccc    C18   1339 0.07918000  12.010000   ; qtot 37.991905
 1340         h1     37    ccc    H29   1340 0.06978000   1.008000   ; qtot 38.061685
 1341         c3     37    ccc    C19   1341 0.07918000  12.010000   ; qtot 38.140865
 1342         c3     37    ccc    C20   1342 0.03578000  12.010000   ; qtot 38.176645
 1343         c3     37    ccc    C21   1343 0.33498000  12.010000   ; qtot 38.511625
 1344         h1     37    ccc    H30   1344 0.06178000   1.008000   ; qtot 38.573405
 1345         h1     37    ccc    H31   1345 0.11278000   1.008000   ; qtot 38.686185
 1346         h2     37    ccc    H32   1346 0.12178000   1.008000   ; qtot 38.807965
 1347         oh     37    ccc    O10   1347 -0.56972000  16.000000   ; qtot 38.238245
 1348         oh     37    ccc    O11   1348 -0.57772000  16.000000   ; qtot 37.660525
 1349         c3     37    ccc    C22   1349 0.14548000  12.010000   ; qtot 37.806005
 1350         ho     37    ccc    H33   1350 0.40508000   1.008000   ; qtot 38.211085
 1351         hn     37    ccc    H34   1351 0.31758000   1.008000   ; qtot 38.528665
 1352         h1     37    ccc    H35   1352 0.06278000   1.008000   ; qtot 38.591445
 1353         h1     37    ccc    H36   1353 0.06278000   1.008000   ; qtot 38.654225
 1354         oh     37    ccc    O12   1354 -0.59472000  16.000000   ; qtot 38.059505
 1355         ho     37    ccc    H37   1355 0.41908000   1.008000   ; qtot 38.478585
 1356         os     37    ccc    O13   1356 -0.44552000  16.000000   ; qtot 38.033065
 1357         ho     37    ccc    H38   1357 0.41908000   1.008000   ; qtot 38.452145
 1358         h1     37    ccc    H39   1358 0.08578000   1.008000   ; qtot 38.537925
 1359         oh     37    ccc     O5   1359 -0.58672000  16.000000   ; qtot 37.951205
 1360         ho     37    ccc    H40   1360 0.41908000   1.008000   ; qtot 38.370285
 1361         n3     37    ccc     N4   1361 -0.54282000  14.010000   ; qtot 37.827465
 1362         hn     37    ccc    H41   1362 0.17125500   1.008000   ; qtot 37.998720
; residue   38 ccc rtp ccc q 1.0
 1363          n     38    ccc     N1   1363 -0.33303000  14.010000   ; qtot 37.665690
 1364         hn     38    ccc     H4   1364 0.25916100   1.008000   ; qtot 37.924851
 1365         c3     38    ccc     C3   1365 -0.03328100  12.010000   ; qtot 37.891570
 1366         h1     38    ccc     H5   1366 0.10618100   1.008000   ; qtot 37.997751
 1367         c3     38    ccc     C4   1367 -0.02083000  12.010000   ; qtot 37.976921
 1368         h1     38    ccc     H6   1368 0.10618100   1.008000   ; qtot 38.083102
 1369         h1     38    ccc     H7   1369 0.07988000   1.008000   ; qtot 38.162982
 1370         h1     38    ccc     H8   1370 0.07988000   1.008000   ; qtot 38.242862
 1371         n4     38    ccc     N2   1371 -0.02747900  14.010000   ; qtot 38.215383
 1372         c3     38    ccc     C5   1372 -0.05097600  12.010000   ; qtot 38.164407
 1373         c3     38    ccc     C6   1373 -0.05097600  12.010000   ; qtot 38.113431
 1374         h1     38    ccc     H9   1374 0.11563300   1.008000   ; qtot 38.229064
 1375         c3     38    ccc     C7   1375 -0.18457900  12.010000   ; qtot 38.044485
 1376         h1     38    ccc    H10   1376 0.11563300   1.008000   ; qtot 38.160118
 1377         hc     38    ccc    H11   1377 0.08347900   1.008000   ; qtot 38.243597
 1378         hc     38    ccc    H12   1378 0.08347900   1.008000   ; qtot 38.327076
 1379          c     38    ccc     C8   1379 0.67254400  12.010000   ; qtot 38.999620
 1380          o     38    ccc     O2   1380 -0.52917200  16.000000   ; qtot 38.470448
 1381         h1     38    ccc    H13   1381 0.11563300   1.008000   ; qtot 38.586081
 1382         h1     38    ccc    H14   1382 0.11563300   1.008000   ; qtot 38.701714
 1383         c3     38    ccc     C9   1383 -0.18457900  12.010000   ; qtot 38.517135
 1384         hc     38    ccc    H15   1384 0.08347900   1.008000   ; qtot 38.600614
 1385         hc     38    ccc    H16   1385 0.08347900   1.008000   ; qtot 38.684093
 1386          c     38    ccc    C10   1386 0.67254400  12.010000   ; qtot 39.356637
 1387          o     38    ccc     O4   1387 -0.52917200  16.000000   ; qtot 38.827465
 1388         c3     38    ccc    C11   1388 0.08518000  12.010000   ; qtot 38.912645
 1389         c3     38    ccc    C12   1389 0.07918000  12.010000   ; qtot 38.991825
 1390         h1     38    ccc    H17   1390 0.06978000   1.008000   ; qtot 39.061605
 1391         c3     38    ccc    C13   1391 0.07918000  12.010000   ; qtot 39.140785
 1392         c3     38    ccc    C14   1392 0.03578000  12.010000   ; qtot 39.176565
 1393         c3     38    ccc    C15   1393 0.33498000  12.010000   ; qtot 39.511545
 1394         h1     38    ccc    H18   1394 0.06178000   1.008000   ; qtot 39.573325
 1395         h1     38    ccc    H19   1395 0.11278000   1.008000   ; qtot 39.686105
 1396         h2     38    ccc    H20   1396 0.12178000   1.008000   ; qtot 39.807885
 1397         oh     38    ccc     O1   1397 -0.56972000  16.000000   ; qtot 39.238165
 1398         oh     38    ccc     O6   1398 -0.57772000  16.000000   ; qtot 38.660445
 1399         c3     38    ccc    C16   1399 0.14548000  12.010000   ; qtot 38.805925
 1400         ho     38    ccc    H21   1400 0.40508000   1.008000   ; qtot 39.211005
 1401         hn     38    ccc    H22   1401 0.31758000   1.008000   ; qtot 39.528585
 1402         h1     38    ccc    H23   1402 0.06278000   1.008000   ; qtot 39.591365
 1403         h1     38    ccc    H24   1403 0.06278000   1.008000   ; qtot 39.654145
 1404         oh     38    ccc     O7   1404 -0.59472000  16.000000   ; qtot 39.059425
 1405         ho     38    ccc    H25   1405 0.41908000   1.008000   ; qtot 39.478505
 1406         os     38    ccc     O8   1406 -0.44552000  16.000000   ; qtot 39.032985
 1407         ho     38    ccc    H26   1407 0.41908000   1.008000   ; qtot 39.452065
 1408         h1     38    ccc    H27   1408 0.08578000   1.008000   ; qtot 39.537845
 1409         oh     38    ccc     O9   1409 -0.58672000  16.000000   ; qtot 38.951125
 1410         ho     38    ccc    H28   1410 0.41908000   1.008000   ; qtot 39.370205
 1411         n3     38    ccc     N3   1411 -0.54282000  14.010000   ; qtot 38.827385
 1412         c3     38    ccc    C17   1412 0.08518000  12.010000   ; qtot 38.912565
 1413         c3     38    ccc    C18   1413 0.07918000  12.010000   ; qtot 38.991745
 1414         h1     38    ccc    H29   1414 0.06978000   1.008000   ; qtot 39.061525
 1415         c3     38    ccc    C19   1415 0.07918000  12.010000   ; qtot 39.140705
 1416         c3     38    ccc    C20   1416 0.03578000  12.010000   ; qtot 39.176485
 1417         c3     38    ccc    C21   1417 0.33498000  12.010000   ; qtot 39.511465
 1418         h1     38    ccc    H30   1418 0.06178000   1.008000   ; qtot 39.573245
 1419         h1     38    ccc    H31   1419 0.11278000   1.008000   ; qtot 39.686025
 1420         h2     38    ccc    H32   1420 0.12178000   1.008000   ; qtot 39.807805
 1421         oh     38    ccc    O10   1421 -0.56972000  16.000000   ; qtot 39.238085
 1422         oh     38    ccc    O11   1422 -0.57772000  16.000000   ; qtot 38.660365
 1423         c3     38    ccc    C22   1423 0.14548000  12.010000   ; qtot 38.805845
 1424         ho     38    ccc    H33   1424 0.40508000   1.008000   ; qtot 39.210925
 1425         hn     38    ccc    H34   1425 0.31758000   1.008000   ; qtot 39.528505
 1426         h1     38    ccc    H35   1426 0.06278000   1.008000   ; qtot 39.591285
 1427         h1     38    ccc    H36   1427 0.06278000   1.008000   ; qtot 39.654065
 1428         oh     38    ccc    O12   1428 -0.59472000  16.000000   ; qtot 39.059345
 1429         ho     38    ccc    H37   1429 0.41908000   1.008000   ; qtot 39.478425
 1430         os     38    ccc    O13   1430 -0.44552000  16.000000   ; qtot 39.032905
 1431         ho     38    ccc    H38   1431 0.41908000   1.008000   ; qtot 39.451985
 1432         h1     38    ccc    H39   1432 0.08578000   1.008000   ; qtot 39.537765
 1433         oh     38    ccc     O5   1433 -0.58672000  16.000000   ; qtot 38.951045
 1434         ho     38    ccc    H40   1434 0.41908000   1.008000   ; qtot 39.370125
 1435         n3     38    ccc     N4   1435 -0.54282000  14.010000   ; qtot 38.827305
 1436         hn     38    ccc    H41   1436 0.17125500   1.008000   ; qtot 38.998560
; residue   39 ccc rtp ccc q 1.0
 1437          n     39    ccc     N1   1437 -0.33303000  14.010000   ; qtot 38.665530
 1438         hn     39    ccc     H4   1438 0.25916100   1.008000   ; qtot 38.924691
 1439         c3     39    ccc     C3   1439 -0.03328100  12.010000   ; qtot 38.891410
 1440         h1     39    ccc     H5   1440 0.10618100   1.008000   ; qtot 38.997591
 1441         c3     39    ccc     C4   1441 -0.02083000  12.010000   ; qtot 38.976761
 1442         h1     39    ccc     H6   1442 0.10618100   1.008000   ; qtot 39.082942
 1443         h1     39    ccc     H7   1443 0.07988000   1.008000   ; qtot 39.162822
 1444         h1     39    ccc     H8   1444 0.07988000   1.008000   ; qtot 39.242702
 1445         n4     39    ccc     N2   1445 -0.02747900  14.010000   ; qtot 39.215223
 1446         c3     39    ccc     C5   1446 -0.05097600  12.010000   ; qtot 39.164247
 1447         c3     39    ccc     C6   1447 -0.05097600  12.010000   ; qtot 39.113271
 1448         h1     39    ccc     H9   1448 0.11563300   1.008000   ; qtot 39.228904
 1449         c3     39    ccc     C7   1449 -0.18457900  12.010000   ; qtot 39.044325
 1450         h1     39    ccc    H10   1450 0.11563300   1.008000   ; qtot 39.159958
 1451         hc     39    ccc    H11   1451 0.08347900   1.008000   ; qtot 39.243437
 1452         hc     39    ccc    H12   1452 0.08347900   1.008000   ; qtot 39.326916
 1453          c     39    ccc     C8   1453 0.67254400  12.010000   ; qtot 39.999460
 1454          o     39    ccc     O2   1454 -0.52917200  16.000000   ; qtot 39.470288
 1455         h1     39    ccc    H13   1455 0.11563300   1.008000   ; qtot 39.585921
 1456         h1     39    ccc    H14   1456 0.11563300   1.008000   ; qtot 39.701554
 1457         c3     39    ccc     C9   1457 -0.18457900  12.010000   ; qtot 39.516975
 1458         hc     39    ccc    H15   1458 0.08347900   1.008000   ; qtot 39.600454
 1459         hc     39    ccc    H16   1459 0.08347900   1.008000   ; qtot 39.683933
 1460          c     39    ccc    C10   1460 0.67254400  12.010000   ; qtot 40.356477
 1461          o     39    ccc     O4   1461 -0.52917200  16.000000   ; qtot 39.827305
 1462         c3     39    ccc    C11   1462 0.08518000  12.010000   ; qtot 39.912485
 1463         c3     39    ccc    C12   1463 0.07918000  12.010000   ; qtot 39.991665
 1464         h1     39    ccc    H17   1464 0.06978000   1.008000   ; qtot 40.061445
 1465         c3     39    ccc    C13   1465 0.07918000  12.010000   ; qtot 40.140625
 1466         c3     39    ccc    C14   1466 0.03578000  12.010000   ; qtot 40.176405
 1467         c3     39    ccc    C15   1467 0.33498000  12.010000   ; qtot 40.511385
 1468         h1     39    ccc    H18   1468 0.06178000   1.008000   ; qtot 40.573165
 1469         h1     39    ccc    H19   1469 0.11278000   1.008000   ; qtot 40.685945
 1470         h2     39    ccc    H20   1470 0.12178000   1.008000   ; qtot 40.807725
 1471         oh     39    ccc     O1   1471 -0.56972000  16.000000   ; qtot 40.238005
 1472         oh     39    ccc     O6   1472 -0.57772000  16.000000   ; qtot 39.660285
 1473         c3     39    ccc    C16   1473 0.14548000  12.010000   ; qtot 39.805765
 1474         ho     39    ccc    H21   1474 0.40508000   1.008000   ; qtot 40.210845
 1475         hn     39    ccc    H22   1475 0.31758000   1.008000   ; qtot 40.528425
 1476         h1     39    ccc    H23   1476 0.06278000   1.008000   ; qtot 40.591205
 1477         h1     39    ccc    H24   1477 0.06278000   1.008000   ; qtot 40.653985
 1478         oh     39    ccc     O7   1478 -0.59472000  16.000000   ; qtot 40.059265
 1479         ho     39    ccc    H25   1479 0.41908000   1.008000   ; qtot 40.478345
 1480         os     39    ccc     O8   1480 -0.44552000  16.000000   ; qtot 40.032825
 1481         ho     39    ccc    H26   1481 0.41908000   1.008000   ; qtot 40.451905
 1482         h1     39    ccc    H27   1482 0.08578000   1.008000   ; qtot 40.537685
 1483         oh     39    ccc     O9   1483 -0.58672000  16.000000   ; qtot 39.950965
 1484         ho     39    ccc    H28   1484 0.41908000   1.008000   ; qtot 40.370045
 1485         n3     39    ccc     N3   1485 -0.54282000  14.010000   ; qtot 39.827225
 1486         c3     39    ccc    C17   1486 0.08518000  12.010000   ; qtot 39.912405
 1487         c3     39    ccc    C18   1487 0.07918000  12.010000   ; qtot 39.991585
 1488         h1     39    ccc    H29   1488 0.06978000   1.008000   ; qtot 40.061365
 1489         c3     39    ccc    C19   1489 0.07918000  12.010000   ; qtot 40.140545
 1490         c3     39    ccc    C20   1490 0.03578000  12.010000   ; qtot 40.176325
 1491         c3     39    ccc    C21   1491 0.33498000  12.010000   ; qtot 40.511305
 1492         h1     39    ccc    H30   1492 0.06178000   1.008000   ; qtot 40.573085
 1493         h1     39    ccc    H31   1493 0.11278000   1.008000   ; qtot 40.685865
 1494         h2     39    ccc    H32   1494 0.12178000   1.008000   ; qtot 40.807645
 1495         oh     39    ccc    O10   1495 -0.56972000  16.000000   ; qtot 40.237925
 1496         oh     39    ccc    O11   1496 -0.57772000  16.000000   ; qtot 39.660205
 1497         c3     39    ccc    C22   1497 0.14548000  12.010000   ; qtot 39.805685
 1498         ho     39    ccc    H33   1498 0.40508000   1.008000   ; qtot 40.210765
 1499         hn     39    ccc    H34   1499 0.31758000   1.008000   ; qtot 40.528345
 1500         h1     39    ccc    H35   1500 0.06278000   1.008000   ; qtot 40.591125
 1501         h1     39    ccc    H36   1501 0.06278000   1.008000   ; qtot 40.653905
 1502         oh     39    ccc    O12   1502 -0.59472000  16.000000   ; qtot 40.059185
 1503         ho     39    ccc    H37   1503 0.41908000   1.008000   ; qtot 40.478265
 1504         os     39    ccc    O13   1504 -0.44552000  16.000000   ; qtot 40.032745
 1505         ho     39    ccc    H38   1505 0.41908000   1.008000   ; qtot 40.451825
 1506         h1     39    ccc    H39   1506 0.08578000   1.008000   ; qtot 40.537605
 1507         oh     39    ccc     O5   1507 -0.58672000  16.000000   ; qtot 39.950885
 1508         ho     39    ccc    H40   1508 0.41908000   1.008000   ; qtot 40.369965
 1509         n3     39    ccc     N4   1509 -0.54282000  14.010000   ; qtot 39.827145
 1510         hn     39    ccc    H41   1510 0.17125500   1.008000   ; qtot 39.998400
; residue   40 ccc rtp ccc q 1.0
 1511          n     40    ccc     N1   1511 -0.33303000  14.010000   ; qtot 39.665370
 1512         hn     40    ccc     H4   1512 0.25916100   1.008000   ; qtot 39.924531
 1513         c3     40    ccc     C3   1513 -0.03328100  12.010000   ; qtot 39.891250
 1514         h1     40    ccc     H5   1514 0.10618100   1.008000   ; qtot 39.997431
 1515         c3     40    ccc     C4   1515 -0.02083000  12.010000   ; qtot 39.976601
 1516         h1     40    ccc     H6   1516 0.10618100   1.008000   ; qtot 40.082782
 1517         h1     40    ccc     H7   1517 0.07988000   1.008000   ; qtot 40.162662
 1518         h1     40    ccc     H8   1518 0.07988000   1.008000   ; qtot 40.242542
 1519         n4     40    ccc     N2   1519 -0.02747900  14.010000   ; qtot 40.215063
 1520         c3     40    ccc     C5   1520 -0.05097600  12.010000   ; qtot 40.164087
 1521         c3     40    ccc     C6   1521 -0.05097600  12.010000   ; qtot 40.113111
 1522         h1     40    ccc     H9   1522 0.11563300   1.008000   ; qtot 40.228744
 1523         c3     40    ccc     C7   1523 -0.18457900  12.010000   ; qtot 40.044165
 1524         h1     40    ccc    H10   1524 0.11563300   1.008000   ; qtot 40.159798
 1525         hc     40    ccc    H11   1525 0.08347900   1.008000   ; qtot 40.243277
 1526         hc     40    ccc    H12   1526 0.08347900   1.008000   ; qtot 40.326756
 1527          c     40    ccc     C8   1527 0.67254400  12.010000   ; qtot 40.999300
 1528          o     40    ccc     O2   1528 -0.52917200  16.000000   ; qtot 40.470128
 1529         h1     40    ccc    H13   1529 0.11563300   1.008000   ; qtot 40.585761
 1530         h1     40    ccc    H14   1530 0.11563300   1.008000   ; qtot 40.701394
 1531         c3     40    ccc     C9   1531 -0.18457900  12.010000   ; qtot 40.516815
 1532         hc     40    ccc    H15   1532 0.08347900   1.008000   ; qtot 40.600294
 1533         hc     40    ccc    H16   1533 0.08347900   1.008000   ; qtot 40.683773
 1534          c     40    ccc    C10   1534 0.67254400  12.010000   ; qtot 41.356317
 1535          o     40    ccc     O4   1535 -0.52917200  16.000000   ; qtot 40.827145
 1536         c3     40    ccc    C11   1536 0.08518000  12.010000   ; qtot 40.912325
 1537         c3     40    ccc    C12   1537 0.07918000  12.010000   ; qtot 40.991505
 1538         h1     40    ccc    H17   1538 0.06978000   1.008000   ; qtot 41.061285
 1539         c3     40    ccc    C13   1539 0.07918000  12.010000   ; qtot 41.140465
 1540         c3     40    ccc    C14   1540 0.03578000  12.010000   ; qtot 41.176245
 1541         c3     40    ccc    C15   1541 0.33498000  12.010000   ; qtot 41.511225
 1542         h1     40    ccc    H18   1542 0.06178000   1.008000   ; qtot 41.573005
 1543         h1     40    ccc    H19   1543 0.11278000   1.008000   ; qtot 41.685785
 1544         h2     40    ccc    H20   1544 0.12178000   1.008000   ; qtot 41.807565
 1545         oh     40    ccc     O1   1545 -0.56972000  16.000000   ; qtot 41.237845
 1546         oh     40    ccc     O6   1546 -0.57772000  16.000000   ; qtot 40.660125
 1547         c3     40    ccc    C16   1547 0.14548000  12.010000   ; qtot 40.805605
 1548         ho     40    ccc    H21   1548 0.40508000   1.008000   ; qtot 41.210685
 1549         hn     40    ccc    H22   1549 0.31758000   1.008000   ; qtot 41.528265
 1550         h1     40    ccc    H23   1550 0.06278000   1.008000   ; qtot 41.591045
 1551         h1     40    ccc    H24   1551 0.06278000   1.008000   ; qtot 41.653825
 1552         oh     40    ccc     O7   1552 -0.59472000  16.000000   ; qtot 41.059105
 1553         ho     40    ccc    H25   1553 0.41908000   1.008000   ; qtot 41.478185
 1554         os     40    ccc     O8   1554 -0.44552000  16.000000   ; qtot 41.032665
 1555         ho     40    ccc    H26   1555 0.41908000   1.008000   ; qtot 41.451745
 1556         h1     40    ccc    H27   1556 0.08578000   1.008000   ; qtot 41.537525
 1557         oh     40    ccc     O9   1557 -0.58672000  16.000000   ; qtot 40.950805
 1558         ho     40    ccc    H28   1558 0.41908000   1.008000   ; qtot 41.369885
 1559         n3     40    ccc     N3   1559 -0.54282000  14.010000   ; qtot 40.827065
 1560         c3     40    ccc    C17   1560 0.08518000  12.010000   ; qtot 40.912245
 1561         c3     40    ccc    C18   1561 0.07918000  12.010000   ; qtot 40.991425
 1562         h1     40    ccc    H29   1562 0.06978000   1.008000   ; qtot 41.061205
 1563         c3     40    ccc    C19   1563 0.07918000  12.010000   ; qtot 41.140385
 1564         c3     40    ccc    C20   1564 0.03578000  12.010000   ; qtot 41.176165
 1565         c3     40    ccc    C21   1565 0.33498000  12.010000   ; qtot 41.511145
 1566         h1     40    ccc    H30   1566 0.06178000   1.008000   ; qtot 41.572925
 1567         h1     40    ccc    H31   1567 0.11278000   1.008000   ; qtot 41.685705
 1568         h2     40    ccc    H32   1568 0.12178000   1.008000   ; qtot 41.807485
 1569         oh     40    ccc    O10   1569 -0.56972000  16.000000   ; qtot 41.237765
 1570         oh     40    ccc    O11   1570 -0.57772000  16.000000   ; qtot 40.660045
 1571         c3     40    ccc    C22   1571 0.14548000  12.010000   ; qtot 40.805525
 1572         ho     40    ccc    H33   1572 0.40508000   1.008000   ; qtot 41.210605
 1573         hn     40    ccc    H34   1573 0.31758000   1.008000   ; qtot 41.528185
 1574         h1     40    ccc    H35   1574 0.06278000   1.008000   ; qtot 41.590965
 1575         h1     40    ccc    H36   1575 0.06278000   1.008000   ; qtot 41.653745
 1576         oh     40    ccc    O12   1576 -0.59472000  16.000000   ; qtot 41.059025
 1577         ho     40    ccc    H37   1577 0.41908000   1.008000   ; qtot 41.478105
 1578         os     40    ccc    O13   1578 -0.44552000  16.000000   ; qtot 41.032585
 1579         ho     40    ccc    H38   1579 0.41908000   1.008000   ; qtot 41.451665
 1580         h1     40    ccc    H39   1580 0.08578000   1.008000   ; qtot 41.537445
 1581         oh     40    ccc     O5   1581 -0.58672000  16.000000   ; qtot 40.950725
 1582         ho     40    ccc    H40   1582 0.41908000   1.008000   ; qtot 41.369805
 1583         n3     40    ccc     N4   1583 -0.54282000  14.010000   ; qtot 40.826985
 1584         hn     40    ccc    H41   1584 0.17125500   1.008000   ; qtot 40.998240
; residue   41 ccc rtp ccc q 1.0
 1585          n     41    ccc     N1   1585 -0.33303000  14.010000   ; qtot 40.665210
 1586         hn     41    ccc     H4   1586 0.25916100   1.008000   ; qtot 40.924371
 1587         c3     41    ccc     C3   1587 -0.03328100  12.010000   ; qtot 40.891090
 1588         h1     41    ccc     H5   1588 0.10618100   1.008000   ; qtot 40.997271
 1589         c3     41    ccc     C4   1589 -0.02083000  12.010000   ; qtot 40.976441
 1590         h1     41    ccc     H6   1590 0.10618100   1.008000   ; qtot 41.082622
 1591         h1     41    ccc     H7   1591 0.07988000   1.008000   ; qtot 41.162502
 1592         h1     41    ccc     H8   1592 0.07988000   1.008000   ; qtot 41.242382
 1593         n4     41    ccc     N2   1593 -0.02747900  14.010000   ; qtot 41.214903
 1594         c3     41    ccc     C5   1594 -0.05097600  12.010000   ; qtot 41.163927
 1595         c3     41    ccc     C6   1595 -0.05097600  12.010000   ; qtot 41.112951
 1596         h1     41    ccc     H9   1596 0.11563300   1.008000   ; qtot 41.228584
 1597         c3     41    ccc     C7   1597 -0.18457900  12.010000   ; qtot 41.044005
 1598         h1     41    ccc    H10   1598 0.11563300   1.008000   ; qtot 41.159638
 1599         hc     41    ccc    H11   1599 0.08347900   1.008000   ; qtot 41.243117
 1600         hc     41    ccc    H12   1600 0.08347900   1.008000   ; qtot 41.326596
 1601          c     41    ccc     C8   1601 0.67254400  12.010000   ; qtot 41.999140
 1602          o     41    ccc     O2   1602 -0.52917200  16.000000   ; qtot 41.469968
 1603         h1     41    ccc    H13   1603 0.11563300   1.008000   ; qtot 41.585601
 1604         h1     41    ccc    H14   1604 0.11563300   1.008000   ; qtot 41.701234
 1605         c3     41    ccc     C9   1605 -0.18457900  12.010000   ; qtot 41.516655
 1606         hc     41    ccc    H15   1606 0.08347900   1.008000   ; qtot 41.600134
 1607         hc     41    ccc    H16   1607 0.08347900   1.008000   ; qtot 41.683613
 1608          c     41    ccc    C10   1608 0.67254400  12.010000   ; qtot 42.356157
 1609          o     41    ccc     O4   1609 -0.52917200  16.000000   ; qtot 41.826985
 1610         c3     41    ccc    C11   1610 0.08518000  12.010000   ; qtot 41.912165
 1611         c3     41    ccc    C12   1611 0.07918000  12.010000   ; qtot 41.991345
 1612         h1     41    ccc    H17   1612 0.06978000   1.008000   ; qtot 42.061125
 1613         c3     41    ccc    C13   1613 0.07918000  12.010000   ; qtot 42.140305
 1614         c3     41    ccc    C14   1614 0.03578000  12.010000   ; qtot 42.176085
 1615         c3     41    ccc    C15   1615 0.33498000  12.010000   ; qtot 42.511065
 1616         h1     41    ccc    H18   1616 0.06178000   1.008000   ; qtot 42.572845
 1617         h1     41    ccc    H19   1617 0.11278000   1.008000   ; qtot 42.685625
 1618         h2     41    ccc    H20   1618 0.12178000   1.008000   ; qtot 42.807405
 1619         oh     41    ccc     O1   1619 -0.56972000  16.000000   ; qtot 42.237685
 1620         oh     41    ccc     O6   1620 -0.57772000  16.000000   ; qtot 41.659965
 1621         c3     41    ccc    C16   1621 0.14548000  12.010000   ; qtot 41.805445
 1622         ho     41    ccc    H21   1622 0.40508000   1.008000   ; qtot 42.210525
 1623         hn     41    ccc    H22   1623 0.31758000   1.008000   ; qtot 42.528105
 1624         h1     41    ccc    H23   1624 0.06278000   1.008000   ; qtot 42.590885
 1625         h1     41    ccc    H24   1625 0.06278000   1.008000   ; qtot 42.653665
 1626         oh     41    ccc     O7   1626 -0.59472000  16.000000   ; qtot 42.058945
 1627         ho     41    ccc    H25   1627 0.41908000   1.008000   ; qtot 42.478025
 1628         os     41    ccc     O8   1628 -0.44552000  16.000000   ; qtot 42.032505
 1629         ho     41    ccc    H26   1629 0.41908000   1.008000   ; qtot 42.451585
 1630         h1     41    ccc    H27   1630 0.08578000   1.008000   ; qtot 42.537365
 1631         oh     41    ccc     O9   1631 -0.58672000  16.000000   ; qtot 41.950645
 1632         ho     41    ccc    H28   1632 0.41908000   1.008000   ; qtot 42.369725
 1633         n3     41    ccc     N3   1633 -0.54282000  14.010000   ; qtot 41.826905
 1634         c3     41    ccc    C17   1634 0.08518000  12.010000   ; qtot 41.912085
 1635         c3     41    ccc    C18   1635 0.07918000  12.010000   ; qtot 41.991265
 1636         h1     41    ccc    H29   1636 0.06978000   1.008000   ; qtot 42.061045
 1637         c3     41    ccc    C19   1637 0.07918000  12.010000   ; qtot 42.140225
 1638         c3     41    ccc    C20   1638 0.03578000  12.010000   ; qtot 42.176005
 1639         c3     41    ccc    C21   1639 0.33498000  12.010000   ; qtot 42.510985
 1640         h1     41    ccc    H30   1640 0.06178000   1.008000   ; qtot 42.572765
 1641         h1     41    ccc    H31   1641 0.11278000   1.008000   ; qtot 42.685545
 1642         h2     41    ccc    H32   1642 0.12178000   1.008000   ; qtot 42.807325
 1643         oh     41    ccc    O10   1643 -0.56972000  16.000000   ; qtot 42.237605
 1644         oh     41    ccc    O11   1644 -0.57772000  16.000000   ; qtot 41.659885
 1645         c3     41    ccc    C22   1645 0.14548000  12.010000   ; qtot 41.805365
 1646         ho     41    ccc    H33   1646 0.40508000   1.008000   ; qtot 42.210445
 1647         hn     41    ccc    H34   1647 0.31758000   1.008000   ; qtot 42.528025
 1648         h1     41    ccc    H35   1648 0.06278000   1.008000   ; qtot 42.590805
 1649         h1     41    ccc    H36   1649 0.06278000   1.008000   ; qtot 42.653585
 1650         oh     41    ccc    O12   1650 -0.59472000  16.000000   ; qtot 42.058865
 1651         ho     41    ccc    H37   1651 0.41908000   1.008000   ; qtot 42.477945
 1652         os     41    ccc    O13   1652 -0.44552000  16.000000   ; qtot 42.032425
 1653         ho     41    ccc    H38   1653 0.41908000   1.008000   ; qtot 42.451505
 1654         h1     41    ccc    H39   1654 0.08578000   1.008000   ; qtot 42.537285
 1655         oh     41    ccc     O5   1655 -0.58672000  16.000000   ; qtot 41.950565
 1656         ho     41    ccc    H40   1656 0.41908000   1.008000   ; qtot 42.369645
 1657         n3     41    ccc     N4   1657 -0.54282000  14.010000   ; qtot 41.826825
 1658         hn     41    ccc    H41   1658 0.17125500   1.008000   ; qtot 41.998080
; residue   42 ccc rtp ccc q 1.0
 1659          n     42    ccc     N1   1659 -0.33303000  14.010000   ; qtot 41.665050
 1660         hn     42    ccc     H4   1660 0.25916100   1.008000   ; qtot 41.924211
 1661         c3     42    ccc     C3   1661 -0.03328100  12.010000   ; qtot 41.890930
 1662         h1     42    ccc     H5   1662 0.10618100   1.008000   ; qtot 41.997111
 1663         c3     42    ccc     C4   1663 -0.02083000  12.010000   ; qtot 41.976281
 1664         h1     42    ccc     H6   1664 0.10618100   1.008000   ; qtot 42.082462
 1665         h1     42    ccc     H7   1665 0.07988000   1.008000   ; qtot 42.162342
 1666         h1     42    ccc     H8   1666 0.07988000   1.008000   ; qtot 42.242222
 1667         n4     42    ccc     N2   1667 -0.02747900  14.010000   ; qtot 42.214743
 1668         c3     42    ccc     C5   1668 -0.05097600  12.010000   ; qtot 42.163767
 1669         c3     42    ccc     C6   1669 -0.05097600  12.010000   ; qtot 42.112791
 1670         h1     42    ccc     H9   1670 0.11563300   1.008000   ; qtot 42.228424
 1671         c3     42    ccc     C7   1671 -0.18457900  12.010000   ; qtot 42.043845
 1672         h1     42    ccc    H10   1672 0.11563300   1.008000   ; qtot 42.159478
 1673         hc     42    ccc    H11   1673 0.08347900   1.008000   ; qtot 42.242957
 1674         hc     42    ccc    H12   1674 0.08347900   1.008000   ; qtot 42.326436
 1675          c     42    ccc     C8   1675 0.67254400  12.010000   ; qtot 42.998980
 1676          o     42    ccc     O2   1676 -0.52917200  16.000000   ; qtot 42.469808
 1677         h1     42    ccc    H13   1677 0.11563300   1.008000   ; qtot 42.585441
 1678         h1     42    ccc    H14   1678 0.11563300   1.008000   ; qtot 42.701074
 1679         c3     42    ccc     C9   1679 -0.18457900  12.010000   ; qtot 42.516495
 1680         hc     42    ccc    H15   1680 0.08347900   1.008000   ; qtot 42.599974
 1681         hc     42    ccc    H16   1681 0.08347900   1.008000   ; qtot 42.683453
 1682          c     42    ccc    C10   1682 0.67254400  12.010000   ; qtot 43.355997
 1683          o     42    ccc     O4   1683 -0.52917200  16.000000   ; qtot 42.826825
 1684         c3     42    ccc    C11   1684 0.08518000  12.010000   ; qtot 42.912005
 1685         c3     42    ccc    C12   1685 0.07918000  12.010000   ; qtot 42.991185
 1686         h1     42    ccc    H17   1686 0.06978000   1.008000   ; qtot 43.060965
 1687         c3     42    ccc    C13   1687 0.07918000  12.010000   ; qtot 43.140145
 1688         c3     42    ccc    C14   1688 0.03578000  12.010000   ; qtot 43.175925
 1689         c3     42    ccc    C15   1689 0.33498000  12.010000   ; qtot 43.510905
 1690         h1     42    ccc    H18   1690 0.06178000   1.008000   ; qtot 43.572685
 1691         h1     42    ccc    H19   1691 0.11278000   1.008000   ; qtot 43.685465
 1692         h2     42    ccc    H20   1692 0.12178000   1.008000   ; qtot 43.807245
 1693         oh     42    ccc     O1   1693 -0.56972000  16.000000   ; qtot 43.237525
 1694         oh     42    ccc     O6   1694 -0.57772000  16.000000   ; qtot 42.659805
 1695         c3     42    ccc    C16   1695 0.14548000  12.010000   ; qtot 42.805285
 1696         ho     42    ccc    H21   1696 0.40508000   1.008000   ; qtot 43.210365
 1697         hn     42    ccc    H22   1697 0.31758000   1.008000   ; qtot 43.527945
 1698         h1     42    ccc    H23   1698 0.06278000   1.008000   ; qtot 43.590725
 1699         h1     42    ccc    H24   1699 0.06278000   1.008000   ; qtot 43.653505
 1700         oh     42    ccc     O7   1700 -0.59472000  16.000000   ; qtot 43.058785
 1701         ho     42    ccc    H25   1701 0.41908000   1.008000   ; qtot 43.477865
 1702         os     42    ccc     O8   1702 -0.44552000  16.000000   ; qtot 43.032345
 1703         ho     42    ccc    H26   1703 0.41908000   1.008000   ; qtot 43.451425
 1704         h1     42    ccc    H27   1704 0.08578000   1.008000   ; qtot 43.537205
 1705         oh     42    ccc     O9   1705 -0.58672000  16.000000   ; qtot 42.950485
 1706         ho     42    ccc    H28   1706 0.41908000   1.008000   ; qtot 43.369565
 1707         n3     42    ccc     N3   1707 -0.54282000  14.010000   ; qtot 42.826745
 1708         c3     42    ccc    C17   1708 0.08518000  12.010000   ; qtot 42.911925
 1709         c3     42    ccc    C18   1709 0.07918000  12.010000   ; qtot 42.991105
 1710         h1     42    ccc    H29   1710 0.06978000   1.008000   ; qtot 43.060885
 1711         c3     42    ccc    C19   1711 0.07918000  12.010000   ; qtot 43.140065
 1712         c3     42    ccc    C20   1712 0.03578000  12.010000   ; qtot 43.175845
 1713         c3     42    ccc    C21   1713 0.33498000  12.010000   ; qtot 43.510825
 1714         h1     42    ccc    H30   1714 0.06178000   1.008000   ; qtot 43.572605
 1715         h1     42    ccc    H31   1715 0.11278000   1.008000   ; qtot 43.685385
 1716         h2     42    ccc    H32   1716 0.12178000   1.008000   ; qtot 43.807165
 1717         oh     42    ccc    O10   1717 -0.56972000  16.000000   ; qtot 43.237445
 1718         oh     42    ccc    O11   1718 -0.57772000  16.000000   ; qtot 42.659725
 1719         c3     42    ccc    C22   1719 0.14548000  12.010000   ; qtot 42.805205
 1720         ho     42    ccc    H33   1720 0.40508000   1.008000   ; qtot 43.210285
 1721         hn     42    ccc    H34   1721 0.31758000   1.008000   ; qtot 43.527865
 1722         h1     42    ccc    H35   1722 0.06278000   1.008000   ; qtot 43.590645
 1723         h1     42    ccc    H36   1723 0.06278000   1.008000   ; qtot 43.653425
 1724         oh     42    ccc    O12   1724 -0.59472000  16.000000   ; qtot 43.058705
 1725         ho     42    ccc    H37   1725 0.41908000   1.008000   ; qtot 43.477785
 1726         os     42    ccc    O13   1726 -0.44552000  16.000000   ; qtot 43.032265
 1727         ho     42    ccc    H38   1727 0.41908000   1.008000   ; qtot 43.451345
 1728         h1     42    ccc    H39   1728 0.08578000   1.008000   ; qtot 43.537125
 1729         oh     42    ccc     O5   1729 -0.58672000  16.000000   ; qtot 42.950404
 1730         ho     42    ccc    H40   1730 0.41908000   1.008000   ; qtot 43.369484
 1731         n3     42    ccc     N4   1731 -0.54282000  14.010000   ; qtot 42.826664
 1732         hn     42    ccc    H41   1732 0.17125500   1.008000   ; qtot 42.997919
; residue   43 ccc rtp ccc q 1.0
 1733          n     43    ccc     N1   1733 -0.33303000  14.010000   ; qtot 42.664889
 1734         hn     43    ccc     H4   1734 0.25916100   1.008000   ; qtot 42.924050
 1735         c3     43    ccc     C3   1735 -0.03328100  12.010000   ; qtot 42.890769
 1736         h1     43    ccc     H5   1736 0.10618100   1.008000   ; qtot 42.996950
 1737         c3     43    ccc     C4   1737 -0.02083000  12.010000   ; qtot 42.976120
 1738         h1     43    ccc     H6   1738 0.10618100   1.008000   ; qtot 43.082301
 1739         h1     43    ccc     H7   1739 0.07988000   1.008000   ; qtot 43.162181
 1740         h1     43    ccc     H8   1740 0.07988000   1.008000   ; qtot 43.242061
 1741         n4     43    ccc     N2   1741 -0.02747900  14.010000   ; qtot 43.214582
 1742         c3     43    ccc     C5   1742 -0.05097600  12.010000   ; qtot 43.163606
 1743         c3     43    ccc     C6   1743 -0.05097600  12.010000   ; qtot 43.112630
 1744         h1     43    ccc     H9   1744 0.11563300   1.008000   ; qtot 43.228263
 1745         c3     43    ccc     C7   1745 -0.18457900  12.010000   ; qtot 43.043684
 1746         h1     43    ccc    H10   1746 0.11563300   1.008000   ; qtot 43.159317
 1747         hc     43    ccc    H11   1747 0.08347900   1.008000   ; qtot 43.242796
 1748         hc     43    ccc    H12   1748 0.08347900   1.008000   ; qtot 43.326275
 1749          c     43    ccc     C8   1749 0.67254400  12.010000   ; qtot 43.998819
 1750          o     43    ccc     O2   1750 -0.52917200  16.000000   ; qtot 43.469647
 1751         h1     43    ccc    H13   1751 0.11563300   1.008000   ; qtot 43.585280
 1752         h1     43    ccc    H14   1752 0.11563300   1.008000   ; qtot 43.700913
 1753         c3     43    ccc     C9   1753 -0.18457900  12.010000   ; qtot 43.516334
 1754         hc     43    ccc    H15   1754 0.08347900   1.008000   ; qtot 43.599813
 1755         hc     43    ccc    H16   1755 0.08347900   1.008000   ; qtot 43.683292
 1756          c     43    ccc    C10   1756 0.67254400  12.010000   ; qtot 44.355836
 1757          o     43    ccc     O4   1757 -0.52917200  16.000000   ; qtot 43.826664
 1758         c3     43    ccc    C11   1758 0.08518000  12.010000   ; qtot 43.911844
 1759         c3     43    ccc    C12   1759 0.07918000  12.010000   ; qtot 43.991024
 1760         h1     43    ccc    H17   1760 0.06978000   1.008000   ; qtot 44.060804
 1761         c3     43    ccc    C13   1761 0.07918000  12.010000   ; qtot 44.139984
 1762         c3     43    ccc    C14   1762 0.03578000  12.010000   ; qtot 44.175764
 1763         c3     43    ccc    C15   1763 0.33498000  12.010000   ; qtot 44.510744
 1764         h1     43    ccc    H18   1764 0.06178000   1.008000   ; qtot 44.572524
 1765         h1     43    ccc    H19   1765 0.11278000   1.008000   ; qtot 44.685304
 1766         h2     43    ccc    H20   1766 0.12178000   1.008000   ; qtot 44.807084
 1767         oh     43    ccc     O1   1767 -0.56972000  16.000000   ; qtot 44.237364
 1768         oh     43    ccc     O6   1768 -0.57772000  16.000000   ; qtot 43.659644
 1769         c3     43    ccc    C16   1769 0.14548000  12.010000   ; qtot 43.805124
 1770         ho     43    ccc    H21   1770 0.40508000   1.008000   ; qtot 44.210204
 1771         hn     43    ccc    H22   1771 0.31758000   1.008000   ; qtot 44.527784
 1772         h1     43    ccc    H23   1772 0.06278000   1.008000   ; qtot 44.590564
 1773         h1     43    ccc    H24   1773 0.06278000   1.008000   ; qtot 44.653344
 1774         oh     43    ccc     O7   1774 -0.59472000  16.000000   ; qtot 44.058624
 1775         ho     43    ccc    H25   1775 0.41908000   1.008000   ; qtot 44.477704
 1776         os     43    ccc     O8   1776 -0.44552000  16.000000   ; qtot 44.032184
 1777         ho     43    ccc    H26   1777 0.41908000   1.008000   ; qtot 44.451264
 1778         h1     43    ccc    H27   1778 0.08578000   1.008000   ; qtot 44.537044
 1779         oh     43    ccc     O9   1779 -0.58672000  16.000000   ; qtot 43.950324
 1780         ho     43    ccc    H28   1780 0.41908000   1.008000   ; qtot 44.369404
 1781         n3     43    ccc     N3   1781 -0.54282000  14.010000   ; qtot 43.826584
 1782         c3     43    ccc    C17   1782 0.08518000  12.010000   ; qtot 43.911764
 1783         c3     43    ccc    C18   1783 0.07918000  12.010000   ; qtot 43.990944
 1784         h1     43    ccc    H29   1784 0.06978000   1.008000   ; qtot 44.060724
 1785         c3     43    ccc    C19   1785 0.07918000  12.010000   ; qtot 44.139904
 1786         c3     43    ccc    C20   1786 0.03578000  12.010000   ; qtot 44.175684
 1787         c3     43    ccc    C21   1787 0.33498000  12.010000   ; qtot 44.510664
 1788         h1     43    ccc    H30   1788 0.06178000   1.008000   ; qtot 44.572444
 1789         h1     43    ccc    H31   1789 0.11278000   1.008000   ; qtot 44.685224
 1790         h2     43    ccc    H32   1790 0.12178000   1.008000   ; qtot 44.807004
 1791         oh     43    ccc    O10   1791 -0.56972000  16.000000   ; qtot 44.237284
 1792         oh     43    ccc    O11   1792 -0.57772000  16.000000   ; qtot 43.659564
 1793         c3     43    ccc    C22   1793 0.14548000  12.010000   ; qtot 43.805044
 1794         ho     43    ccc    H33   1794 0.40508000   1.008000   ; qtot 44.210124
 1795         hn     43    ccc    H34   1795 0.31758000   1.008000   ; qtot 44.527704
 1796         h1     43    ccc    H35   1796 0.06278000   1.008000   ; qtot 44.590484
 1797         h1     43    ccc    H36   1797 0.06278000   1.008000   ; qtot 44.653264
 1798         oh     43    ccc    O12   1798 -0.59472000  16.000000   ; qtot 44.058544
 1799         ho     43    ccc    H37   1799 0.41908000   1.008000   ; qtot 44.477624
 1800         os     43    ccc    O13   1800 -0.44552000  16.000000   ; qtot 44.032104
 1801         ho     43    ccc    H38   1801 0.41908000   1.008000   ; qtot 44.451184
 1802         h1     43    ccc    H39   1802 0.08578000   1.008000   ; qtot 44.536964
 1803         oh     43    ccc     O5   1803 -0.58672000  16.000000   ; qtot 43.950244
 1804         ho     43    ccc    H40   1804 0.41908000   1.008000   ; qtot 44.369324
 1805         n3     43    ccc     N4   1805 -0.54282000  14.010000   ; qtot 43.826504
 1806         hn     43    ccc    H41   1806 0.17125500   1.008000   ; qtot 43.997759
; residue   44 ccc rtp ccc q 1.0
 1807          n     44    ccc     N1   1807 -0.33303000  14.010000   ; qtot 43.664729
 1808         hn     44    ccc     H4   1808 0.25916100   1.008000   ; qtot 43.923890
 1809         c3     44    ccc     C3   1809 -0.03328100  12.010000   ; qtot 43.890609
 1810         h1     44    ccc     H5   1810 0.10618100   1.008000   ; qtot 43.996790
 1811         c3     44    ccc     C4   1811 -0.02083000  12.010000   ; qtot 43.975960
 1812         h1     44    ccc     H6   1812 0.10618100   1.008000   ; qtot 44.082141
 1813         h1     44    ccc     H7   1813 0.07988000   1.008000   ; qtot 44.162021
 1814         h1     44    ccc     H8   1814 0.07988000   1.008000   ; qtot 44.241901
 1815         n4     44    ccc     N2   1815 -0.02747900  14.010000   ; qtot 44.214422
 1816         c3     44    ccc     C5   1816 -0.05097600  12.010000   ; qtot 44.163446
 1817         c3     44    ccc     C6   1817 -0.05097600  12.010000   ; qtot 44.112470
 1818         h1     44    ccc     H9   1818 0.11563300   1.008000   ; qtot 44.228103
 1819         c3     44    ccc     C7   1819 -0.18457900  12.010000   ; qtot 44.043524
 1820         h1     44    ccc    H10   1820 0.11563300   1.008000   ; qtot 44.159157
 1821         hc     44    ccc    H11   1821 0.08347900   1.008000   ; qtot 44.242636
 1822         hc     44    ccc    H12   1822 0.08347900   1.008000   ; qtot 44.326115
 1823          c     44    ccc     C8   1823 0.67254400  12.010000   ; qtot 44.998659
 1824          o     44    ccc     O2   1824 -0.52917200  16.000000   ; qtot 44.469487
 1825         h1     44    ccc    H13   1825 0.11563300   1.008000   ; qtot 44.585120
 1826         h1     44    ccc    H14   1826 0.11563300   1.008000   ; qtot 44.700753
 1827         c3     44    ccc     C9   1827 -0.18457900  12.010000   ; qtot 44.516174
 1828         hc     44    ccc    H15   1828 0.08347900   1.008000   ; qtot 44.599653
 1829         hc     44    ccc    H16   1829 0.08347900   1.008000   ; qtot 44.683132
 1830          c     44    ccc    C10   1830 0.67254400  12.010000   ; qtot 45.355676
 1831          o     44    ccc     O4   1831 -0.52917200  16.000000   ; qtot 44.826504
 1832         c3     44    ccc    C11   1832 0.08518000  12.010000   ; qtot 44.911684
 1833         c3     44    ccc    C12   1833 0.07918000  12.010000   ; qtot 44.990864
 1834         h1     44    ccc    H17   1834 0.06978000   1.008000   ; qtot 45.060644
 1835         c3     44    ccc    C13   1835 0.07918000  12.010000   ; qtot 45.139824
 1836         c3     44    ccc    C14   1836 0.03578000  12.010000   ; qtot 45.175604
 1837         c3     44    ccc    C15   1837 0.33498000  12.010000   ; qtot 45.510584
 1838         h1     44    ccc    H18   1838 0.06178000   1.008000   ; qtot 45.572364
 1839         h1     44    ccc    H19   1839 0.11278000   1.008000   ; qtot 45.685144
 1840         h2     44    ccc    H20   1840 0.12178000   1.008000   ; qtot 45.806924
 1841         oh     44    ccc     O1   1841 -0.56972000  16.000000   ; qtot 45.237204
 1842         oh     44    ccc     O6   1842 -0.57772000  16.000000   ; qtot 44.659484
 1843         c3     44    ccc    C16   1843 0.14548000  12.010000   ; qtot 44.804964
 1844         ho     44    ccc    H21   1844 0.40508000   1.008000   ; qtot 45.210044
 1845         hn     44    ccc    H22   1845 0.31758000   1.008000   ; qtot 45.527624
 1846         h1     44    ccc    H23   1846 0.06278000   1.008000   ; qtot 45.590404
 1847         h1     44    ccc    H24   1847 0.06278000   1.008000   ; qtot 45.653184
 1848         oh     44    ccc     O7   1848 -0.59472000  16.000000   ; qtot 45.058464
 1849         ho     44    ccc    H25   1849 0.41908000   1.008000   ; qtot 45.477544
 1850         os     44    ccc     O8   1850 -0.44552000  16.000000   ; qtot 45.032024
 1851         ho     44    ccc    H26   1851 0.41908000   1.008000   ; qtot 45.451104
 1852         h1     44    ccc    H27   1852 0.08578000   1.008000   ; qtot 45.536884
 1853         oh     44    ccc     O9   1853 -0.58672000  16.000000   ; qtot 44.950164
 1854         ho     44    ccc    H28   1854 0.41908000   1.008000   ; qtot 45.369244
 1855         n3     44    ccc     N3   1855 -0.54282000  14.010000   ; qtot 44.826424
 1856         c3     44    ccc    C17   1856 0.08518000  12.010000   ; qtot 44.911604
 1857         c3     44    ccc    C18   1857 0.07918000  12.010000   ; qtot 44.990784
 1858         h1     44    ccc    H29   1858 0.06978000   1.008000   ; qtot 45.060564
 1859         c3     44    ccc    C19   1859 0.07918000  12.010000   ; qtot 45.139744
 1860         c3     44    ccc    C20   1860 0.03578000  12.010000   ; qtot 45.175524
 1861         c3     44    ccc    C21   1861 0.33498000  12.010000   ; qtot 45.510504
 1862         h1     44    ccc    H30   1862 0.06178000   1.008000   ; qtot 45.572284
 1863         h1     44    ccc    H31   1863 0.11278000   1.008000   ; qtot 45.685064
 1864         h2     44    ccc    H32   1864 0.12178000   1.008000   ; qtot 45.806844
 1865         oh     44    ccc    O10   1865 -0.56972000  16.000000   ; qtot 45.237124
 1866         oh     44    ccc    O11   1866 -0.57772000  16.000000   ; qtot 44.659404
 1867         c3     44    ccc    C22   1867 0.14548000  12.010000   ; qtot 44.804884
 1868         ho     44    ccc    H33   1868 0.40508000   1.008000   ; qtot 45.209964
 1869         hn     44    ccc    H34   1869 0.31758000   1.008000   ; qtot 45.527544
 1870         h1     44    ccc    H35   1870 0.06278000   1.008000   ; qtot 45.590324
 1871         h1     44    ccc    H36   1871 0.06278000   1.008000   ; qtot 45.653104
 1872         oh     44    ccc    O12   1872 -0.59472000  16.000000   ; qtot 45.058384
 1873         ho     44    ccc    H37   1873 0.41908000   1.008000   ; qtot 45.477464
 1874         os     44    ccc    O13   1874 -0.44552000  16.000000   ; qtot 45.031944
 1875         ho     44    ccc    H38   1875 0.41908000   1.008000   ; qtot 45.451024
 1876         h1     44    ccc    H39   1876 0.08578000   1.008000   ; qtot 45.536804
 1877         oh     44    ccc     O5   1877 -0.58672000  16.000000   ; qtot 44.950084
 1878         ho     44    ccc    H40   1878 0.41908000   1.008000   ; qtot 45.369164
 1879         n3     44    ccc     N4   1879 -0.54282000  14.010000   ; qtot 44.826344
 1880         hn     44    ccc    H41   1880 0.17125500   1.008000   ; qtot 44.997599
; residue   45 ccc rtp ccc q 1.0
 1881          n     45    ccc     N1   1881 -0.33303000  14.010000   ; qtot 44.664569
 1882         hn     45    ccc     H4   1882 0.25916100   1.008000   ; qtot 44.923730
 1883         c3     45    ccc     C3   1883 -0.03328100  12.010000   ; qtot 44.890449
 1884         h1     45    ccc     H5   1884 0.10618100   1.008000   ; qtot 44.996630
 1885         c3     45    ccc     C4   1885 -0.02083000  12.010000   ; qtot 44.975800
 1886         h1     45    ccc     H6   1886 0.10618100   1.008000   ; qtot 45.081981
 1887         h1     45    ccc     H7   1887 0.07988000   1.008000   ; qtot 45.161861
 1888         h1     45    ccc     H8   1888 0.07988000   1.008000   ; qtot 45.241741
 1889         n4     45    ccc     N2   1889 -0.02747900  14.010000   ; qtot 45.214262
 1890         c3     45    ccc     C5   1890 -0.05097600  12.010000   ; qtot 45.163286
 1891         c3     45    ccc     C6   1891 -0.05097600  12.010000   ; qtot 45.112310
 1892         h1     45    ccc     H9   1892 0.11563300   1.008000   ; qtot 45.227943
 1893         c3     45    ccc     C7   1893 -0.18457900  12.010000   ; qtot 45.043364
 1894         h1     45    ccc    H10   1894 0.11563300   1.008000   ; qtot 45.158997
 1895         hc     45    ccc    H11   1895 0.08347900   1.008000   ; qtot 45.242476
 1896         hc     45    ccc    H12   1896 0.08347900   1.008000   ; qtot 45.325955
 1897          c     45    ccc     C8   1897 0.67254400  12.010000   ; qtot 45.998499
 1898          o     45    ccc     O2   1898 -0.52917200  16.000000   ; qtot 45.469327
 1899         h1     45    ccc    H13   1899 0.11563300   1.008000   ; qtot 45.584960
 1900         h1     45    ccc    H14   1900 0.11563300   1.008000   ; qtot 45.700593
 1901         c3     45    ccc     C9   1901 -0.18457900  12.010000   ; qtot 45.516014
 1902         hc     45    ccc    H15   1902 0.08347900   1.008000   ; qtot 45.599493
 1903         hc     45    ccc    H16   1903 0.08347900   1.008000   ; qtot 45.682972
 1904          c     45    ccc    C10   1904 0.67254400  12.010000   ; qtot 46.355516
 1905          o     45    ccc     O4   1905 -0.52917200  16.000000   ; qtot 45.826344
 1906         c3     45    ccc    C11   1906 0.08518000  12.010000   ; qtot 45.911524
 1907         c3     45    ccc    C12   1907 0.07918000  12.010000   ; qtot 45.990704
 1908         h1     45    ccc    H17   1908 0.06978000   1.008000   ; qtot 46.060484
 1909         c3     45    ccc    C13   1909 0.07918000  12.010000   ; qtot 46.139664
 1910         c3     45    ccc    C14   1910 0.03578000  12.010000   ; qtot 46.175444
 1911         c3     45    ccc    C15   1911 0.33498000  12.010000   ; qtot 46.510424
 1912         h1     45    ccc    H18   1912 0.06178000   1.008000   ; qtot 46.572204
 1913         h1     45    ccc    H19   1913 0.11278000   1.008000   ; qtot 46.684984
 1914         h2     45    ccc    H20   1914 0.12178000   1.008000   ; qtot 46.806764
 1915         oh     45    ccc     O1   1915 -0.56972000  16.000000   ; qtot 46.237044
 1916         oh     45    ccc     O6   1916 -0.57772000  16.000000   ; qtot 45.659324
 1917         c3     45    ccc    C16   1917 0.14548000  12.010000   ; qtot 45.804804
 1918         ho     45    ccc    H21   1918 0.40508000   1.008000   ; qtot 46.209884
 1919         hn     45    ccc    H22   1919 0.31758000   1.008000   ; qtot 46.527464
 1920         h1     45    ccc    H23   1920 0.06278000   1.008000   ; qtot 46.590244
 1921         h1     45    ccc    H24   1921 0.06278000   1.008000   ; qtot 46.653024
 1922         oh     45    ccc     O7   1922 -0.59472000  16.000000   ; qtot 46.058304
 1923         ho     45    ccc    H25   1923 0.41908000   1.008000   ; qtot 46.477384
 1924         os     45    ccc     O8   1924 -0.44552000  16.000000   ; qtot 46.031864
 1925         ho     45    ccc    H26   1925 0.41908000   1.008000   ; qtot 46.450944
 1926         h1     45    ccc    H27   1926 0.08578000   1.008000   ; qtot 46.536724
 1927         oh     45    ccc     O9   1927 -0.58672000  16.000000   ; qtot 45.950004
 1928         ho     45    ccc    H28   1928 0.41908000   1.008000   ; qtot 46.369084
 1929         n3     45    ccc     N3   1929 -0.54282000  14.010000   ; qtot 45.826264
 1930         c3     45    ccc    C17   1930 0.08518000  12.010000   ; qtot 45.911444
 1931         c3     45    ccc    C18   1931 0.07918000  12.010000   ; qtot 45.990624
 1932         h1     45    ccc    H29   1932 0.06978000   1.008000   ; qtot 46.060404
 1933         c3     45    ccc    C19   1933 0.07918000  12.010000   ; qtot 46.139584
 1934         c3     45    ccc    C20   1934 0.03578000  12.010000   ; qtot 46.175364
 1935         c3     45    ccc    C21   1935 0.33498000  12.010000   ; qtot 46.510344
 1936         h1     45    ccc    H30   1936 0.06178000   1.008000   ; qtot 46.572124
 1937         h1     45    ccc    H31   1937 0.11278000   1.008000   ; qtot 46.684904
 1938         h2     45    ccc    H32   1938 0.12178000   1.008000   ; qtot 46.806684
 1939         oh     45    ccc    O10   1939 -0.56972000  16.000000   ; qtot 46.236964
 1940         oh     45    ccc    O11   1940 -0.57772000  16.000000   ; qtot 45.659244
 1941         c3     45    ccc    C22   1941 0.14548000  12.010000   ; qtot 45.804724
 1942         ho     45    ccc    H33   1942 0.40508000   1.008000   ; qtot 46.209804
 1943         hn     45    ccc    H34   1943 0.31758000   1.008000   ; qtot 46.527384
 1944         h1     45    ccc    H35   1944 0.06278000   1.008000   ; qtot 46.590164
 1945         h1     45    ccc    H36   1945 0.06278000   1.008000   ; qtot 46.652944
 1946         oh     45    ccc    O12   1946 -0.59472000  16.000000   ; qtot 46.058224
 1947         ho     45    ccc    H37   1947 0.41908000   1.008000   ; qtot 46.477304
 1948         os     45    ccc    O13   1948 -0.44552000  16.000000   ; qtot 46.031784
 1949         ho     45    ccc    H38   1949 0.41908000   1.008000   ; qtot 46.450864
 1950         h1     45    ccc    H39   1950 0.08578000   1.008000   ; qtot 46.536644
 1951         oh     45    ccc     O5   1951 -0.58672000  16.000000   ; qtot 45.949924
 1952         ho     45    ccc    H40   1952 0.41908000   1.008000   ; qtot 46.369004
 1953         n3     45    ccc     N4   1953 -0.54282000  14.010000   ; qtot 45.826184
 1954         hn     45    ccc    H41   1954 0.17125500   1.008000   ; qtot 45.997439
; residue   46 ccc rtp ccc q 1.0
 1955          n     46    ccc     N1   1955 -0.33303000  14.010000   ; qtot 45.664409
 1956         hn     46    ccc     H4   1956 0.25916100   1.008000   ; qtot 45.923570
 1957         c3     46    ccc     C3   1957 -0.03328100  12.010000   ; qtot 45.890289
 1958         h1     46    ccc     H5   1958 0.10618100   1.008000   ; qtot 45.996470
 1959         c3     46    ccc     C4   1959 -0.02083000  12.010000   ; qtot 45.975640
 1960         h1     46    ccc     H6   1960 0.10618100   1.008000   ; qtot 46.081821
 1961         h1     46    ccc     H7   1961 0.07988000   1.008000   ; qtot 46.161701
 1962         h1     46    ccc     H8   1962 0.07988000   1.008000   ; qtot 46.241581
 1963         n4     46    ccc     N2   1963 -0.02747900  14.010000   ; qtot 46.214102
 1964         c3     46    ccc     C5   1964 -0.05097600  12.010000   ; qtot 46.163126
 1965         c3     46    ccc     C6   1965 -0.05097600  12.010000   ; qtot 46.112150
 1966         h1     46    ccc     H9   1966 0.11563300   1.008000   ; qtot 46.227783
 1967         c3     46    ccc     C7   1967 -0.18457900  12.010000   ; qtot 46.043204
 1968         h1     46    ccc    H10   1968 0.11563300   1.008000   ; qtot 46.158837
 1969         hc     46    ccc    H11   1969 0.08347900   1.008000   ; qtot 46.242316
 1970         hc     46    ccc    H12   1970 0.08347900   1.008000   ; qtot 46.325795
 1971          c     46    ccc     C8   1971 0.67254400  12.010000   ; qtot 46.998339
 1972          o     46    ccc     O2   1972 -0.52917200  16.000000   ; qtot 46.469167
 1973         h1     46    ccc    H13   1973 0.11563300   1.008000   ; qtot 46.584800
 1974         h1     46    ccc    H14   1974 0.11563300   1.008000   ; qtot 46.700433
 1975         c3     46    ccc     C9   1975 -0.18457900  12.010000   ; qtot 46.515854
 1976         hc     46    ccc    H15   1976 0.08347900   1.008000   ; qtot 46.599333
 1977         hc     46    ccc    H16   1977 0.08347900   1.008000   ; qtot 46.682812
 1978          c     46    ccc    C10   1978 0.67254400  12.010000   ; qtot 47.355356
 1979          o     46    ccc     O4   1979 -0.52917200  16.000000   ; qtot 46.826184
 1980         c3     46    ccc    C11   1980 0.08518000  12.010000   ; qtot 46.911364
 1981         c3     46    ccc    C12   1981 0.07918000  12.010000   ; qtot 46.990544
 1982         h1     46    ccc    H17   1982 0.06978000   1.008000   ; qtot 47.060324
 1983         c3     46    ccc    C13   1983 0.07918000  12.010000   ; qtot 47.139504
 1984         c3     46    ccc    C14   1984 0.03578000  12.010000   ; qtot 47.175284
 1985         c3     46    ccc    C15   1985 0.33498000  12.010000   ; qtot 47.510264
 1986         h1     46    ccc    H18   1986 0.06178000   1.008000   ; qtot 47.572044
 1987         h1     46    ccc    H19   1987 0.11278000   1.008000   ; qtot 47.684824
 1988         h2     46    ccc    H20   1988 0.12178000   1.008000   ; qtot 47.806604
 1989         oh     46    ccc     O1   1989 -0.56972000  16.000000   ; qtot 47.236884
 1990         oh     46    ccc     O6   1990 -0.57772000  16.000000   ; qtot 46.659164
 1991         c3     46    ccc    C16   1991 0.14548000  12.010000   ; qtot 46.804644
 1992         ho     46    ccc    H21   1992 0.40508000   1.008000   ; qtot 47.209724
 1993         hn     46    ccc    H22   1993 0.31758000   1.008000   ; qtot 47.527304
 1994         h1     46    ccc    H23   1994 0.06278000   1.008000   ; qtot 47.590084
 1995         h1     46    ccc    H24   1995 0.06278000   1.008000   ; qtot 47.652864
 1996         oh     46    ccc     O7   1996 -0.59472000  16.000000   ; qtot 47.058144
 1997         ho     46    ccc    H25   1997 0.41908000   1.008000   ; qtot 47.477224
 1998         os     46    ccc     O8   1998 -0.44552000  16.000000   ; qtot 47.031704
 1999         ho     46    ccc    H26   1999 0.41908000   1.008000   ; qtot 47.450784
 2000         h1     46    ccc    H27   2000 0.08578000   1.008000   ; qtot 47.536564
 2001         oh     46    ccc     O9   2001 -0.58672000  16.000000   ; qtot 46.949844
 2002         ho     46    ccc    H28   2002 0.41908000   1.008000   ; qtot 47.368924
 2003         n3     46    ccc     N3   2003 -0.54282000  14.010000   ; qtot 46.826104
 2004         c3     46    ccc    C17   2004 0.08518000  12.010000   ; qtot 46.911284
 2005         c3     46    ccc    C18   2005 0.07918000  12.010000   ; qtot 46.990464
 2006         h1     46    ccc    H29   2006 0.06978000   1.008000   ; qtot 47.060244
 2007         c3     46    ccc    C19   2007 0.07918000  12.010000   ; qtot 47.139424
 2008         c3     46    ccc    C20   2008 0.03578000  12.010000   ; qtot 47.175204
 2009         c3     46    ccc    C21   2009 0.33498000  12.010000   ; qtot 47.510184
 2010         h1     46    ccc    H30   2010 0.06178000   1.008000   ; qtot 47.571964
 2011         h1     46    ccc    H31   2011 0.11278000   1.008000   ; qtot 47.684744
 2012         h2     46    ccc    H32   2012 0.12178000   1.008000   ; qtot 47.806524
 2013         oh     46    ccc    O10   2013 -0.56972000  16.000000   ; qtot 47.236804
 2014         oh     46    ccc    O11   2014 -0.57772000  16.000000   ; qtot 46.659084
 2015         c3     46    ccc    C22   2015 0.14548000  12.010000   ; qtot 46.804564
 2016         ho     46    ccc    H33   2016 0.40508000   1.008000   ; qtot 47.209644
 2017         hn     46    ccc    H34   2017 0.31758000   1.008000   ; qtot 47.527224
 2018         h1     46    ccc    H35   2018 0.06278000   1.008000   ; qtot 47.590004
 2019         h1     46    ccc    H36   2019 0.06278000   1.008000   ; qtot 47.652784
 2020         oh     46    ccc    O12   2020 -0.59472000  16.000000   ; qtot 47.058064
 2021         ho     46    ccc    H37   2021 0.41908000   1.008000   ; qtot 47.477144
 2022         os     46    ccc    O13   2022 -0.44552000  16.000000   ; qtot 47.031624
 2023         ho     46    ccc    H38   2023 0.41908000   1.008000   ; qtot 47.450704
 2024         h1     46    ccc    H39   2024 0.08578000   1.008000   ; qtot 47.536484
 2025         oh     46    ccc     O5   2025 -0.58672000  16.000000   ; qtot 46.949764
 2026         ho     46    ccc    H40   2026 0.41908000   1.008000   ; qtot 47.368844
 2027         n3     46    ccc     N4   2027 -0.54282000  14.010000   ; qtot 46.826024
 2028         hn     46    ccc    H41   2028 0.17125500   1.008000   ; qtot 46.997279
; residue   47 ccc rtp ccc q 1.0
 2029          n     47    ccc     N1   2029 -0.33303000  14.010000   ; qtot 46.664249
 2030         hn     47    ccc     H4   2030 0.25916100   1.008000   ; qtot 46.923410
 2031         c3     47    ccc     C3   2031 -0.03328100  12.010000   ; qtot 46.890129
 2032         h1     47    ccc     H5   2032 0.10618100   1.008000   ; qtot 46.996310
 2033         c3     47    ccc     C4   2033 -0.02083000  12.010000   ; qtot 46.975480
 2034         h1     47    ccc     H6   2034 0.10618100   1.008000   ; qtot 47.081661
 2035         h1     47    ccc     H7   2035 0.07988000   1.008000   ; qtot 47.161541
 2036         h1     47    ccc     H8   2036 0.07988000   1.008000   ; qtot 47.241421
 2037         n4     47    ccc     N2   2037 -0.02747900  14.010000   ; qtot 47.213942
 2038         c3     47    ccc     C5   2038 -0.05097600  12.010000   ; qtot 47.162966
 2039         c3     47    ccc     C6   2039 -0.05097600  12.010000   ; qtot 47.111990
 2040         h1     47    ccc     H9   2040 0.11563300   1.008000   ; qtot 47.227623
 2041         c3     47    ccc     C7   2041 -0.18457900  12.010000   ; qtot 47.043044
 2042         h1     47    ccc    H10   2042 0.11563300   1.008000   ; qtot 47.158677
 2043         hc     47    ccc    H11   2043 0.08347900   1.008000   ; qtot 47.242156
 2044         hc     47    ccc    H12   2044 0.08347900   1.008000   ; qtot 47.325635
 2045          c     47    ccc     C8   2045 0.67254400  12.010000   ; qtot 47.998179
 2046          o     47    ccc     O2   2046 -0.52917200  16.000000   ; qtot 47.469007
 2047         h1     47    ccc    H13   2047 0.11563300   1.008000   ; qtot 47.584640
 2048         h1     47    ccc    H14   2048 0.11563300   1.008000   ; qtot 47.700273
 2049         c3     47    ccc     C9   2049 -0.18457900  12.010000   ; qtot 47.515694
 2050         hc     47    ccc    H15   2050 0.08347900   1.008000   ; qtot 47.599173
 2051         hc     47    ccc    H16   2051 0.08347900   1.008000   ; qtot 47.682652
 2052          c     47    ccc    C10   2052 0.67254400  12.010000   ; qtot 48.355196
 2053          o     47    ccc     O4   2053 -0.52917200  16.000000   ; qtot 47.826024
 2054         c3     47    ccc    C11   2054 0.08518000  12.010000   ; qtot 47.911204
 2055         c3     47    ccc    C12   2055 0.07918000  12.010000   ; qtot 47.990384
 2056         h1     47    ccc    H17   2056 0.06978000   1.008000   ; qtot 48.060164
 2057         c3     47    ccc    C13   2057 0.07918000  12.010000   ; qtot 48.139344
 2058         c3     47    ccc    C14   2058 0.03578000  12.010000   ; qtot 48.175124
 2059         c3     47    ccc    C15   2059 0.33498000  12.010000   ; qtot 48.510104
 2060         h1     47    ccc    H18   2060 0.06178000   1.008000   ; qtot 48.571884
 2061         h1     47    ccc    H19   2061 0.11278000   1.008000   ; qtot 48.684664
 2062         h2     47    ccc    H20   2062 0.12178000   1.008000   ; qtot 48.806444
 2063         oh     47    ccc     O1   2063 -0.56972000  16.000000   ; qtot 48.236724
 2064         oh     47    ccc     O6   2064 -0.57772000  16.000000   ; qtot 47.659004
 2065         c3     47    ccc    C16   2065 0.14548000  12.010000   ; qtot 47.804484
 2066         ho     47    ccc    H21   2066 0.40508000   1.008000   ; qtot 48.209564
 2067         hn     47    ccc    H22   2067 0.31758000   1.008000   ; qtot 48.527144
 2068         h1     47    ccc    H23   2068 0.06278000   1.008000   ; qtot 48.589924
 2069         h1     47    ccc    H24   2069 0.06278000   1.008000   ; qtot 48.652704
 2070         oh     47    ccc     O7   2070 -0.59472000  16.000000   ; qtot 48.057984
 2071         ho     47    ccc    H25   2071 0.41908000   1.008000   ; qtot 48.477064
 2072         os     47    ccc     O8   2072 -0.44552000  16.000000   ; qtot 48.031544
 2073         ho     47    ccc    H26   2073 0.41908000   1.008000   ; qtot 48.450624
 2074         h1     47    ccc    H27   2074 0.08578000   1.008000   ; qtot 48.536404
 2075         oh     47    ccc     O9   2075 -0.58672000  16.000000   ; qtot 47.949684
 2076         ho     47    ccc    H28   2076 0.41908000   1.008000   ; qtot 48.368764
 2077         n3     47    ccc     N3   2077 -0.54282000  14.010000   ; qtot 47.825944
 2078         c3     47    ccc    C17   2078 0.08518000  12.010000   ; qtot 47.911124
 2079         c3     47    ccc    C18   2079 0.07918000  12.010000   ; qtot 47.990304
 2080         h1     47    ccc    H29   2080 0.06978000   1.008000   ; qtot 48.060084
 2081         c3     47    ccc    C19   2081 0.07918000  12.010000   ; qtot 48.139264
 2082         c3     47    ccc    C20   2082 0.03578000  12.010000   ; qtot 48.175044
 2083         c3     47    ccc    C21   2083 0.33498000  12.010000   ; qtot 48.510024
 2084         h1     47    ccc    H30   2084 0.06178000   1.008000   ; qtot 48.571804
 2085         h1     47    ccc    H31   2085 0.11278000   1.008000   ; qtot 48.684584
 2086         h2     47    ccc    H32   2086 0.12178000   1.008000   ; qtot 48.806364
 2087         oh     47    ccc    O10   2087 -0.56972000  16.000000   ; qtot 48.236644
 2088         oh     47    ccc    O11   2088 -0.57772000  16.000000   ; qtot 47.658924
 2089         c3     47    ccc    C22   2089 0.14548000  12.010000   ; qtot 47.804404
 2090         ho     47    ccc    H33   2090 0.40508000   1.008000   ; qtot 48.209484
 2091         hn     47    ccc    H34   2091 0.31758000   1.008000   ; qtot 48.527064
 2092         h1     47    ccc    H35   2092 0.06278000   1.008000   ; qtot 48.589844
 2093         h1     47    ccc    H36   2093 0.06278000   1.008000   ; qtot 48.652624
 2094         oh     47    ccc    O12   2094 -0.59472000  16.000000   ; qtot 48.057904
 2095         ho     47    ccc    H37   2095 0.41908000   1.008000   ; qtot 48.476984
 2096         os     47    ccc    O13   2096 -0.44552000  16.000000   ; qtot 48.031464
 2097         ho     47    ccc    H38   2097 0.41908000   1.008000   ; qtot 48.450544
 2098         h1     47    ccc    H39   2098 0.08578000   1.008000   ; qtot 48.536324
 2099         oh     47    ccc     O5   2099 -0.58672000  16.000000   ; qtot 47.949604
 2100         ho     47    ccc    H40   2100 0.41908000   1.008000   ; qtot 48.368684
 2101         n3     47    ccc     N4   2101 -0.54282000  14.010000   ; qtot 47.825864
 2102         hn     47    ccc    H41   2102 0.17125500   1.008000   ; qtot 47.997119
; residue   48 ccc rtp ccc q 1.0
 2103          n     48    ccc     N1   2103 -0.33303000  14.010000   ; qtot 47.664089
 2104         hn     48    ccc     H4   2104 0.25916100   1.008000   ; qtot 47.923250
 2105         c3     48    ccc     C3   2105 -0.03328100  12.010000   ; qtot 47.889969
 2106         h1     48    ccc     H5   2106 0.10618100   1.008000   ; qtot 47.996150
 2107         c3     48    ccc     C4   2107 -0.02083000  12.010000   ; qtot 47.975320
 2108         h1     48    ccc     H6   2108 0.10618100   1.008000   ; qtot 48.081501
 2109         h1     48    ccc     H7   2109 0.07988000   1.008000   ; qtot 48.161381
 2110         h1     48    ccc     H8   2110 0.07988000   1.008000   ; qtot 48.241261
 2111         n4     48    ccc     N2   2111 -0.02747900  14.010000   ; qtot 48.213782
 2112         c3     48    ccc     C5   2112 -0.05097600  12.010000   ; qtot 48.162806
 2113         c3     48    ccc     C6   2113 -0.05097600  12.010000   ; qtot 48.111830
 2114         h1     48    ccc     H9   2114 0.11563300   1.008000   ; qtot 48.227463
 2115         c3     48    ccc     C7   2115 -0.18457900  12.010000   ; qtot 48.042884
 2116         h1     48    ccc    H10   2116 0.11563300   1.008000   ; qtot 48.158517
 2117         hc     48    ccc    H11   2117 0.08347900   1.008000   ; qtot 48.241996
 2118         hc     48    ccc    H12   2118 0.08347900   1.008000   ; qtot 48.325475
 2119          c     48    ccc     C8   2119 0.67254400  12.010000   ; qtot 48.998019
 2120          o     48    ccc     O2   2120 -0.52917200  16.000000   ; qtot 48.468847
 2121         h1     48    ccc    H13   2121 0.11563300   1.008000   ; qtot 48.584480
 2122         h1     48    ccc    H14   2122 0.11563300   1.008000   ; qtot 48.700113
 2123         c3     48    ccc     C9   2123 -0.18457900  12.010000   ; qtot 48.515534
 2124         hc     48    ccc    H15   2124 0.08347900   1.008000   ; qtot 48.599013
 2125         hc     48    ccc    H16   2125 0.08347900   1.008000   ; qtot 48.682492
 2126          c     48    ccc    C10   2126 0.67254400  12.010000   ; qtot 49.355036
 2127          o     48    ccc     O4   2127 -0.52917200  16.000000   ; qtot 48.825864
 2128         c3     48    ccc    C11   2128 0.08518000  12.010000   ; qtot 48.911044
 2129         c3     48    ccc    C12   2129 0.07918000  12.010000   ; qtot 48.990224
 2130         h1     48    ccc    H17   2130 0.06978000   1.008000   ; qtot 49.060004
 2131         c3     48    ccc    C13   2131 0.07918000  12.010000   ; qtot 49.139184
 2132         c3     48    ccc    C14   2132 0.03578000  12.010000   ; qtot 49.174964
 2133         c3     48    ccc    C15   2133 0.33498000  12.010000   ; qtot 49.509944
 2134         h1     48    ccc    H18   2134 0.06178000   1.008000   ; qtot 49.571724
 2135         h1     48    ccc    H19   2135 0.11278000   1.008000   ; qtot 49.684504
 2136         h2     48    ccc    H20   2136 0.12178000   1.008000   ; qtot 49.806284
 2137         oh     48    ccc     O1   2137 -0.56972000  16.000000   ; qtot 49.236564
 2138         oh     48    ccc     O6   2138 -0.57772000  16.000000   ; qtot 48.658844
 2139         c3     48    ccc    C16   2139 0.14548000  12.010000   ; qtot 48.804324
 2140         ho     48    ccc    H21   2140 0.40508000   1.008000   ; qtot 49.209404
 2141         hn     48    ccc    H22   2141 0.31758000   1.008000   ; qtot 49.526984
 2142         h1     48    ccc    H23   2142 0.06278000   1.008000   ; qtot 49.589764
 2143         h1     48    ccc    H24   2143 0.06278000   1.008000   ; qtot 49.652544
 2144         oh     48    ccc     O7   2144 -0.59472000  16.000000   ; qtot 49.057824
 2145         ho     48    ccc    H25   2145 0.41908000   1.008000   ; qtot 49.476904
 2146         os     48    ccc     O8   2146 -0.44552000  16.000000   ; qtot 49.031384
 2147         ho     48    ccc    H26   2147 0.41908000   1.008000   ; qtot 49.450464
 2148         h1     48    ccc    H27   2148 0.08578000   1.008000   ; qtot 49.536244
 2149         oh     48    ccc     O9   2149 -0.58672000  16.000000   ; qtot 48.949524
 2150         ho     48    ccc    H28   2150 0.41908000   1.008000   ; qtot 49.368604
 2151         n3     48    ccc     N3   2151 -0.54282000  14.010000   ; qtot 48.825784
 2152         c3     48    ccc    C17   2152 0.08518000  12.010000   ; qtot 48.910964
 2153         c3     48    ccc    C18   2153 0.07918000  12.010000   ; qtot 48.990144
 2154         h1     48    ccc    H29   2154 0.06978000   1.008000   ; qtot 49.059924
 2155         c3     48    ccc    C19   2155 0.07918000  12.010000   ; qtot 49.139104
 2156         c3     48    ccc    C20   2156 0.03578000  12.010000   ; qtot 49.174884
 2157         c3     48    ccc    C21   2157 0.33498000  12.010000   ; qtot 49.509864
 2158         h1     48    ccc    H30   2158 0.06178000   1.008000   ; qtot 49.571644
 2159         h1     48    ccc    H31   2159 0.11278000   1.008000   ; qtot 49.684424
 2160         h2     48    ccc    H32   2160 0.12178000   1.008000   ; qtot 49.806204
 2161         oh     48    ccc    O10   2161 -0.56972000  16.000000   ; qtot 49.236484
 2162         oh     48    ccc    O11   2162 -0.57772000  16.000000   ; qtot 48.658764
 2163         c3     48    ccc    C22   2163 0.14548000  12.010000   ; qtot 48.804244
 2164         ho     48    ccc    H33   2164 0.40508000   1.008000   ; qtot 49.209324
 2165         hn     48    ccc    H34   2165 0.31758000   1.008000   ; qtot 49.526904
 2166         h1     48    ccc    H35   2166 0.06278000   1.008000   ; qtot 49.589684
 2167         h1     48    ccc    H36   2167 0.06278000   1.008000   ; qtot 49.652464
 2168         oh     48    ccc    O12   2168 -0.59472000  16.000000   ; qtot 49.057744
 2169         ho     48    ccc    H37   2169 0.41908000   1.008000   ; qtot 49.476824
 2170         os     48    ccc    O13   2170 -0.44552000  16.000000   ; qtot 49.031304
 2171         ho     48    ccc    H38   2171 0.41908000   1.008000   ; qtot 49.450384
 2172         h1     48    ccc    H39   2172 0.08578000   1.008000   ; qtot 49.536164
 2173         oh     48    ccc     O5   2173 -0.58672000  16.000000   ; qtot 48.949444
 2174         ho     48    ccc    H40   2174 0.41908000   1.008000   ; qtot 49.368524
 2175         n3     48    ccc     N4   2175 -0.54282000  14.010000   ; qtot 48.825704
 2176         hn     48    ccc    H41   2176 0.17125500   1.008000   ; qtot 48.996959
; residue   49 ccc rtp ccc q 1.0
 2177          n     49    ccc     N1   2177 -0.33303000  14.010000   ; qtot 48.663929
 2178         hn     49    ccc     H4   2178 0.25916100   1.008000   ; qtot 48.923090
 2179         c3     49    ccc     C3   2179 -0.03328100  12.010000   ; qtot 48.889809
 2180         h1     49    ccc     H5   2180 0.10618100   1.008000   ; qtot 48.995990
 2181         c3     49    ccc     C4   2181 -0.02083000  12.010000   ; qtot 48.975160
 2182         h1     49    ccc     H6   2182 0.10618100   1.008000   ; qtot 49.081341
 2183         h1     49    ccc     H7   2183 0.07988000   1.008000   ; qtot 49.161221
 2184         h1     49    ccc     H8   2184 0.07988000   1.008000   ; qtot 49.241101
 2185         n4     49    ccc     N2   2185 -0.02747900  14.010000   ; qtot 49.213622
 2186         c3     49    ccc     C5   2186 -0.05097600  12.010000   ; qtot 49.162646
 2187         c3     49    ccc     C6   2187 -0.05097600  12.010000   ; qtot 49.111670
 2188         h1     49    ccc     H9   2188 0.11563300   1.008000   ; qtot 49.227303
 2189         c3     49    ccc     C7   2189 -0.18457900  12.010000   ; qtot 49.042724
 2190         h1     49    ccc    H10   2190 0.11563300   1.008000   ; qtot 49.158357
 2191         hc     49    ccc    H11   2191 0.08347900   1.008000   ; qtot 49.241836
 2192         hc     49    ccc    H12   2192 0.08347900   1.008000   ; qtot 49.325315
 2193          c     49    ccc     C8   2193 0.67254400  12.010000   ; qtot 49.997859
 2194          o     49    ccc     O2   2194 -0.52917200  16.000000   ; qtot 49.468687
 2195         h1     49    ccc    H13   2195 0.11563300   1.008000   ; qtot 49.584320
 2196         h1     49    ccc    H14   2196 0.11563300   1.008000   ; qtot 49.699953
 2197         c3     49    ccc     C9   2197 -0.18457900  12.010000   ; qtot 49.515374
 2198         hc     49    ccc    H15   2198 0.08347900   1.008000   ; qtot 49.598853
 2199         hc     49    ccc    H16   2199 0.08347900   1.008000   ; qtot 49.682332
 2200          c     49    ccc    C10   2200 0.67254400  12.010000   ; qtot 50.354876
 2201          o     49    ccc     O4   2201 -0.52917200  16.000000   ; qtot 49.825704
 2202         c3     49    ccc    C11   2202 0.08518000  12.010000   ; qtot 49.910884
 2203         c3     49    ccc    C12   2203 0.07918000  12.010000   ; qtot 49.990064
 2204         h1     49    ccc    H17   2204 0.06978000   1.008000   ; qtot 50.059844
 2205         c3     49    ccc    C13   2205 0.07918000  12.010000   ; qtot 50.139024
 2206         c3     49    ccc    C14   2206 0.03578000  12.010000   ; qtot 50.174804
 2207         c3     49    ccc    C15   2207 0.33498000  12.010000   ; qtot 50.509784
 2208         h1     49    ccc    H18   2208 0.06178000   1.008000   ; qtot 50.571564
 2209         h1     49    ccc    H19   2209 0.11278000   1.008000   ; qtot 50.684344
 2210         h2     49    ccc    H20   2210 0.12178000   1.008000   ; qtot 50.806124
 2211         oh     49    ccc     O1   2211 -0.56972000  16.000000   ; qtot 50.236404
 2212         oh     49    ccc     O6   2212 -0.57772000  16.000000   ; qtot 49.658684
 2213         c3     49    ccc    C16   2213 0.14548000  12.010000   ; qtot 49.804164
 2214         ho     49    ccc    H21   2214 0.40508000   1.008000   ; qtot 50.209244
 2215         hn     49    ccc    H22   2215 0.31758000   1.008000   ; qtot 50.526824
 2216         h1     49    ccc    H23   2216 0.06278000   1.008000   ; qtot 50.589604
 2217         h1     49    ccc    H24   2217 0.06278000   1.008000   ; qtot 50.652384
 2218         oh     49    ccc     O7   2218 -0.59472000  16.000000   ; qtot 50.057664
 2219         ho     49    ccc    H25   2219 0.41908000   1.008000   ; qtot 50.476744
 2220         os     49    ccc     O8   2220 -0.44552000  16.000000   ; qtot 50.031224
 2221         ho     49    ccc    H26   2221 0.41908000   1.008000   ; qtot 50.450304
 2222         h1     49    ccc    H27   2222 0.08578000   1.008000   ; qtot 50.536084
 2223         oh     49    ccc     O9   2223 -0.58672000  16.000000   ; qtot 49.949364
 2224         ho     49    ccc    H28   2224 0.41908000   1.008000   ; qtot 50.368444
 2225         n3     49    ccc     N3   2225 -0.54282000  14.010000   ; qtot 49.825624
 2226         c3     49    ccc    C17   2226 0.08518000  12.010000   ; qtot 49.910804
 2227         c3     49    ccc    C18   2227 0.07918000  12.010000   ; qtot 49.989984
 2228         h1     49    ccc    H29   2228 0.06978000   1.008000   ; qtot 50.059764
 2229         c3     49    ccc    C19   2229 0.07918000  12.010000   ; qtot 50.138944
 2230         c3     49    ccc    C20   2230 0.03578000  12.010000   ; qtot 50.174724
 2231         c3     49    ccc    C21   2231 0.33498000  12.010000   ; qtot 50.509704
 2232         h1     49    ccc    H30   2232 0.06178000   1.008000   ; qtot 50.571484
 2233         h1     49    ccc    H31   2233 0.11278000   1.008000   ; qtot 50.684264
 2234         h2     49    ccc    H32   2234 0.12178000   1.008000   ; qtot 50.806044
 2235         oh     49    ccc    O10   2235 -0.56972000  16.000000   ; qtot 50.236324
 2236         oh     49    ccc    O11   2236 -0.57772000  16.000000   ; qtot 49.658604
 2237         c3     49    ccc    C22   2237 0.14548000  12.010000   ; qtot 49.804084
 2238         ho     49    ccc    H33   2238 0.40508000   1.008000   ; qtot 50.209164
 2239         hn     49    ccc    H34   2239 0.31758000   1.008000   ; qtot 50.526744
 2240         h1     49    ccc    H35   2240 0.06278000   1.008000   ; qtot 50.589524
 2241         h1     49    ccc    H36   2241 0.06278000   1.008000   ; qtot 50.652304
 2242         oh     49    ccc    O12   2242 -0.59472000  16.000000   ; qtot 50.057584
 2243         ho     49    ccc    H37   2243 0.41908000   1.008000   ; qtot 50.476664
 2244         os     49    ccc    O13   2244 -0.44552000  16.000000   ; qtot 50.031144
 2245         ho     49    ccc    H38   2245 0.41908000   1.008000   ; qtot 50.450224
 2246         h1     49    ccc    H39   2246 0.08578000   1.008000   ; qtot 50.536004
 2247         oh     49    ccc     O5   2247 -0.58672000  16.000000   ; qtot 49.949284
 2248         ho     49    ccc    H40   2248 0.41908000   1.008000   ; qtot 50.368364
 2249         n3     49    ccc     N4   2249 -0.54282000  14.010000   ; qtot 49.825544
 2250         hn     49    ccc    H41   2250 0.17125500   1.008000   ; qtot 49.996799
; residue   50 ccc rtp ccc q 1.0
 2251          n     50    ccc     N1   2251 -0.33303000  14.010000   ; qtot 49.663769
 2252         hn     50    ccc     H4   2252 0.25916100   1.008000   ; qtot 49.922930
 2253         c3     50    ccc     C3   2253 -0.03328100  12.010000   ; qtot 49.889649
 2254         h1     50    ccc     H5   2254 0.10618100   1.008000   ; qtot 49.995830
 2255         c3     50    ccc     C4   2255 -0.02083000  12.010000   ; qtot 49.975000
 2256         h1     50    ccc     H6   2256 0.10618100   1.008000   ; qtot 50.081181
 2257         h1     50    ccc     H7   2257 0.07988000   1.008000   ; qtot 50.161061
 2258         h1     50    ccc     H8   2258 0.07988000   1.008000   ; qtot 50.240941
 2259         n4     50    ccc     N2   2259 -0.02747900  14.010000   ; qtot 50.213462
 2260         c3     50    ccc     C5   2260 -0.05097600  12.010000   ; qtot 50.162486
 2261         c3     50    ccc     C6   2261 -0.05097600  12.010000   ; qtot 50.111510
 2262         h1     50    ccc     H9   2262 0.11563300   1.008000   ; qtot 50.227143
 2263         c3     50    ccc     C7   2263 -0.18457900  12.010000   ; qtot 50.042564
 2264         h1     50    ccc    H10   2264 0.11563300   1.008000   ; qtot 50.158197
 2265         hc     50    ccc    H11   2265 0.08347900   1.008000   ; qtot 50.241676
 2266         hc     50    ccc    H12   2266 0.08347900   1.008000   ; qtot 50.325155
 2267          c     50    ccc     C8   2267 0.67254400  12.010000   ; qtot 50.997699
 2268          o     50    ccc     O2   2268 -0.52917200  16.000000   ; qtot 50.468527
 2269         h1     50    ccc    H13   2269 0.11563300   1.008000   ; qtot 50.584160
 2270         h1     50    ccc    H14   2270 0.11563300   1.008000   ; qtot 50.699793
 2271         c3     50    ccc     C9   2271 -0.18457900  12.010000   ; qtot 50.515214
 2272         hc     50    ccc    H15   2272 0.08347900   1.008000   ; qtot 50.598693
 2273         hc     50    ccc    H16   2273 0.08347900   1.008000   ; qtot 50.682172
 2274          c     50    ccc    C10   2274 0.67254400  12.010000   ; qtot 51.354716
 2275          o     50    ccc     O4   2275 -0.52917200  16.000000   ; qtot 50.825544
 2276         c3     50    ccc    C11   2276 0.08518000  12.010000   ; qtot 50.910724
 2277         c3     50    ccc    C12   2277 0.07918000  12.010000   ; qtot 50.989904
 2278         h1     50    ccc    H17   2278 0.06978000   1.008000   ; qtot 51.059684
 2279         c3     50    ccc    C13   2279 0.07918000  12.010000   ; qtot 51.138864
 2280         c3     50    ccc    C14   2280 0.03578000  12.010000   ; qtot 51.174644
 2281         c3     50    ccc    C15   2281 0.33498000  12.010000   ; qtot 51.509624
 2282         h1     50    ccc    H18   2282 0.06178000   1.008000   ; qtot 51.571404
 2283         h1     50    ccc    H19   2283 0.11278000   1.008000   ; qtot 51.684184
 2284         h2     50    ccc    H20   2284 0.12178000   1.008000   ; qtot 51.805964
 2285         oh     50    ccc     O1   2285 -0.56972000  16.000000   ; qtot 51.236244
 2286         oh     50    ccc     O6   2286 -0.57772000  16.000000   ; qtot 50.658524
 2287         c3     50    ccc    C16   2287 0.14548000  12.010000   ; qtot 50.804004
 2288         ho     50    ccc    H21   2288 0.40508000   1.008000   ; qtot 51.209084
 2289         hn     50    ccc    H22   2289 0.31758000   1.008000   ; qtot 51.526664
 2290         h1     50    ccc    H23   2290 0.06278000   1.008000   ; qtot 51.589444
 2291         h1     50    ccc    H24   2291 0.06278000   1.008000   ; qtot 51.652224
 2292         oh     50    ccc     O7   2292 -0.59472000  16.000000   ; qtot 51.057504
 2293         ho     50    ccc    H25   2293 0.41908000   1.008000   ; qtot 51.476584
 2294         os     50    ccc     O8   2294 -0.44552000  16.000000   ; qtot 51.031064
 2295         ho     50    ccc    H26   2295 0.41908000   1.008000   ; qtot 51.450144
 2296         h1     50    ccc    H27   2296 0.08578000   1.008000   ; qtot 51.535924
 2297         oh     50    ccc     O9   2297 -0.58672000  16.000000   ; qtot 50.949204
 2298         ho     50    ccc    H28   2298 0.41908000   1.008000   ; qtot 51.368284
 2299         n3     50    ccc     N3   2299 -0.54282000  14.010000   ; qtot 50.825464
 2300         c3     50    ccc    C17   2300 0.08518000  12.010000   ; qtot 50.910644
 2301         c3     50    ccc    C18   2301 0.07918000  12.010000   ; qtot 50.989824
 2302         h1     50    ccc    H29   2302 0.06978000   1.008000   ; qtot 51.059604
 2303         c3     50    ccc    C19   2303 0.07918000  12.010000   ; qtot 51.138784
 2304         c3     50    ccc    C20   2304 0.03578000  12.010000   ; qtot 51.174564
 2305         c3     50    ccc    C21   2305 0.33498000  12.010000   ; qtot 51.509544
 2306         h1     50    ccc    H30   2306 0.06178000   1.008000   ; qtot 51.571324
 2307         h1     50    ccc    H31   2307 0.11278000   1.008000   ; qtot 51.684104
 2308         h2     50    ccc    H32   2308 0.12178000   1.008000   ; qtot 51.805884
 2309         oh     50    ccc    O10   2309 -0.56972000  16.000000   ; qtot 51.236164
 2310         oh     50    ccc    O11   2310 -0.57772000  16.000000   ; qtot 50.658444
 2311         c3     50    ccc    C22   2311 0.14548000  12.010000   ; qtot 50.803924
 2312         ho     50    ccc    H33   2312 0.40508000   1.008000   ; qtot 51.209004
 2313         hn     50    ccc    H34   2313 0.31758000   1.008000   ; qtot 51.526584
 2314         h1     50    ccc    H35   2314 0.06278000   1.008000   ; qtot 51.589364
 2315         h1     50    ccc    H36   2315 0.06278000   1.008000   ; qtot 51.652144
 2316         oh     50    ccc    O12   2316 -0.59472000  16.000000   ; qtot 51.057424
 2317         ho     50    ccc    H37   2317 0.41908000   1.008000   ; qtot 51.476504
 2318         os     50    ccc    O13   2318 -0.44552000  16.000000   ; qtot 51.030984
 2319         ho     50    ccc    H38   2319 0.41908000   1.008000   ; qtot 51.450064
 2320         h1     50    ccc    H39   2320 0.08578000   1.008000   ; qtot 51.535844
 2321         oh     50    ccc     O5   2321 -0.58672000  16.000000   ; qtot 50.949124
 2322         ho     50    ccc    H40   2322 0.41908000   1.008000   ; qtot 51.368204
 2323         n3     50    ccc     N4   2323 -0.54282000  14.010000   ; qtot 50.825384
 2324         hn     50    ccc    H41   2324 0.17125500   1.008000   ; qtot 50.996639
; residue   51 ccc rtp ccc q 1.0
 2325          n     51    ccc     N1   2325 -0.33303000  14.010000   ; qtot 50.663609
 2326         hn     51    ccc     H4   2326 0.25916100   1.008000   ; qtot 50.922770
 2327         c3     51    ccc     C3   2327 -0.03328100  12.010000   ; qtot 50.889489
 2328         h1     51    ccc     H5   2328 0.10618100   1.008000   ; qtot 50.995670
 2329         c3     51    ccc     C4   2329 -0.02083000  12.010000   ; qtot 50.974840
 2330         h1     51    ccc     H6   2330 0.10618100   1.008000   ; qtot 51.081021
 2331         h1     51    ccc     H7   2331 0.07988000   1.008000   ; qtot 51.160901
 2332         h1     51    ccc     H8   2332 0.07988000   1.008000   ; qtot 51.240781
 2333         n4     51    ccc     N2   2333 -0.02747900  14.010000   ; qtot 51.213302
 2334         c3     51    ccc     C5   2334 -0.05097600  12.010000   ; qtot 51.162326
 2335         c3     51    ccc     C6   2335 -0.05097600  12.010000   ; qtot 51.111350
 2336         h1     51    ccc     H9   2336 0.11563300   1.008000   ; qtot 51.226983
 2337         c3     51    ccc     C7   2337 -0.18457900  12.010000   ; qtot 51.042404
 2338         h1     51    ccc    H10   2338 0.11563300   1.008000   ; qtot 51.158037
 2339         hc     51    ccc    H11   2339 0.08347900   1.008000   ; qtot 51.241516
 2340         hc     51    ccc    H12   2340 0.08347900   1.008000   ; qtot 51.324995
 2341          c     51    ccc     C8   2341 0.67254400  12.010000   ; qtot 51.997539
 2342          o     51    ccc     O2   2342 -0.52917200  16.000000   ; qtot 51.468367
 2343         h1     51    ccc    H13   2343 0.11563300   1.008000   ; qtot 51.584000
 2344         h1     51    ccc    H14   2344 0.11563300   1.008000   ; qtot 51.699633
 2345         c3     51    ccc     C9   2345 -0.18457900  12.010000   ; qtot 51.515054
 2346         hc     51    ccc    H15   2346 0.08347900   1.008000   ; qtot 51.598533
 2347         hc     51    ccc    H16   2347 0.08347900   1.008000   ; qtot 51.682012
 2348          c     51    ccc    C10   2348 0.67254400  12.010000   ; qtot 52.354556
 2349          o     51    ccc     O4   2349 -0.52917200  16.000000   ; qtot 51.825384
 2350         c3     51    ccc    C11   2350 0.08518000  12.010000   ; qtot 51.910564
 2351         c3     51    ccc    C12   2351 0.07918000  12.010000   ; qtot 51.989744
 2352         h1     51    ccc    H17   2352 0.06978000   1.008000   ; qtot 52.059524
 2353         c3     51    ccc    C13   2353 0.07918000  12.010000   ; qtot 52.138704
 2354         c3     51    ccc    C14   2354 0.03578000  12.010000   ; qtot 52.174484
 2355         c3     51    ccc    C15   2355 0.33498000  12.010000   ; qtot 52.509464
 2356         h1     51    ccc    H18   2356 0.06178000   1.008000   ; qtot 52.571244
 2357         h1     51    ccc    H19   2357 0.11278000   1.008000   ; qtot 52.684024
 2358         h2     51    ccc    H20   2358 0.12178000   1.008000   ; qtot 52.805804
 2359         oh     51    ccc     O1   2359 -0.56972000  16.000000   ; qtot 52.236084
 2360         oh     51    ccc     O6   2360 -0.57772000  16.000000   ; qtot 51.658364
 2361         c3     51    ccc    C16   2361 0.14548000  12.010000   ; qtot 51.803844
 2362         ho     51    ccc    H21   2362 0.40508000   1.008000   ; qtot 52.208924
 2363         hn     51    ccc    H22   2363 0.31758000   1.008000   ; qtot 52.526504
 2364         h1     51    ccc    H23   2364 0.06278000   1.008000   ; qtot 52.589284
 2365         h1     51    ccc    H24   2365 0.06278000   1.008000   ; qtot 52.652064
 2366         oh     51    ccc     O7   2366 -0.59472000  16.000000   ; qtot 52.057344
 2367         ho     51    ccc    H25   2367 0.41908000   1.008000   ; qtot 52.476424
 2368         os     51    ccc     O8   2368 -0.44552000  16.000000   ; qtot 52.030904
 2369         ho     51    ccc    H26   2369 0.41908000   1.008000   ; qtot 52.449984
 2370         h1     51    ccc    H27   2370 0.08578000   1.008000   ; qtot 52.535764
 2371         oh     51    ccc     O9   2371 -0.58672000  16.000000   ; qtot 51.949044
 2372         ho     51    ccc    H28   2372 0.41908000   1.008000   ; qtot 52.368124
 2373         n3     51    ccc     N3   2373 -0.54282000  14.010000   ; qtot 51.825304
 2374         c3     51    ccc    C17   2374 0.08518000  12.010000   ; qtot 51.910484
 2375         c3     51    ccc    C18   2375 0.07918000  12.010000   ; qtot 51.989664
 2376         h1     51    ccc    H29   2376 0.06978000   1.008000   ; qtot 52.059444
 2377         c3     51    ccc    C19   2377 0.07918000  12.010000   ; qtot 52.138624
 2378         c3     51    ccc    C20   2378 0.03578000  12.010000   ; qtot 52.174404
 2379         c3     51    ccc    C21   2379 0.33498000  12.010000   ; qtot 52.509384
 2380         h1     51    ccc    H30   2380 0.06178000   1.008000   ; qtot 52.571164
 2381         h1     51    ccc    H31   2381 0.11278000   1.008000   ; qtot 52.683944
 2382         h2     51    ccc    H32   2382 0.12178000   1.008000   ; qtot 52.805724
 2383         oh     51    ccc    O10   2383 -0.56972000  16.000000   ; qtot 52.236004
 2384         oh     51    ccc    O11   2384 -0.57772000  16.000000   ; qtot 51.658284
 2385         c3     51    ccc    C22   2385 0.14548000  12.010000   ; qtot 51.803764
 2386         ho     51    ccc    H33   2386 0.40508000   1.008000   ; qtot 52.208844
 2387         hn     51    ccc    H34   2387 0.31758000   1.008000   ; qtot 52.526424
 2388         h1     51    ccc    H35   2388 0.06278000   1.008000   ; qtot 52.589204
 2389         h1     51    ccc    H36   2389 0.06278000   1.008000   ; qtot 52.651984
 2390         oh     51    ccc    O12   2390 -0.59472000  16.000000   ; qtot 52.057264
 2391         ho     51    ccc    H37   2391 0.41908000   1.008000   ; qtot 52.476344
 2392         os     51    ccc    O13   2392 -0.44552000  16.000000   ; qtot 52.030824
 2393         ho     51    ccc    H38   2393 0.41908000   1.008000   ; qtot 52.449904
 2394         h1     51    ccc    H39   2394 0.08578000   1.008000   ; qtot 52.535684
 2395         oh     51    ccc     O5   2395 -0.58672000  16.000000   ; qtot 51.948964
 2396         ho     51    ccc    H40   2396 0.41908000   1.008000   ; qtot 52.368044
 2397         n3     51    ccc     N4   2397 -0.54282000  14.010000   ; qtot 51.825224
 2398         hn     51    ccc    H41   2398 0.17125500   1.008000   ; qtot 51.996479
; residue   52 ccc rtp ccc q 1.0
 2399          n     52    ccc     N1   2399 -0.33303000  14.010000   ; qtot 51.663449
 2400         hn     52    ccc     H4   2400 0.25916100   1.008000   ; qtot 51.922610
 2401         c3     52    ccc     C3   2401 -0.03328100  12.010000   ; qtot 51.889329
 2402         h1     52    ccc     H5   2402 0.10618100   1.008000   ; qtot 51.995510
 2403         c3     52    ccc     C4   2403 -0.02083000  12.010000   ; qtot 51.974680
 2404         h1     52    ccc     H6   2404 0.10618100   1.008000   ; qtot 52.080861
 2405         h1     52    ccc     H7   2405 0.07988000   1.008000   ; qtot 52.160741
 2406         h1     52    ccc     H8   2406 0.07988000   1.008000   ; qtot 52.240621
 2407         n4     52    ccc     N2   2407 -0.02747900  14.010000   ; qtot 52.213142
 2408         c3     52    ccc     C5   2408 -0.05097600  12.010000   ; qtot 52.162166
 2409         c3     52    ccc     C6   2409 -0.05097600  12.010000   ; qtot 52.111190
 2410         h1     52    ccc     H9   2410 0.11563300   1.008000   ; qtot 52.226823
 2411         c3     52    ccc     C7   2411 -0.18457900  12.010000   ; qtot 52.042244
 2412         h1     52    ccc    H10   2412 0.11563300   1.008000   ; qtot 52.157877
 2413         hc     52    ccc    H11   2413 0.08347900   1.008000   ; qtot 52.241356
 2414         hc     52    ccc    H12   2414 0.08347900   1.008000   ; qtot 52.324835
 2415          c     52    ccc     C8   2415 0.67254400  12.010000   ; qtot 52.997379
 2416          o     52    ccc     O2   2416 -0.52917200  16.000000   ; qtot 52.468207
 2417         h1     52    ccc    H13   2417 0.11563300   1.008000   ; qtot 52.583840
 2418         h1     52    ccc    H14   2418 0.11563300   1.008000   ; qtot 52.699473
 2419         c3     52    ccc     C9   2419 -0.18457900  12.010000   ; qtot 52.514894
 2420         hc     52    ccc    H15   2420 0.08347900   1.008000   ; qtot 52.598373
 2421         hc     52    ccc    H16   2421 0.08347900   1.008000   ; qtot 52.681852
 2422          c     52    ccc    C10   2422 0.67254400  12.010000   ; qtot 53.354396
 2423          o     52    ccc     O4   2423 -0.52917200  16.000000   ; qtot 52.825224
 2424         c3     52    ccc    C11   2424 0.08518000  12.010000   ; qtot 52.910404
 2425         c3     52    ccc    C12   2425 0.07918000  12.010000   ; qtot 52.989584
 2426         h1     52    ccc    H17   2426 0.06978000   1.008000   ; qtot 53.059364
 2427         c3     52    ccc    C13   2427 0.07918000  12.010000   ; qtot 53.138544
 2428         c3     52    ccc    C14   2428 0.03578000  12.010000   ; qtot 53.174324
 2429         c3     52    ccc    C15   2429 0.33498000  12.010000   ; qtot 53.509304
 2430         h1     52    ccc    H18   2430 0.06178000   1.008000   ; qtot 53.571084
 2431         h1     52    ccc    H19   2431 0.11278000   1.008000   ; qtot 53.683864
 2432         h2     52    ccc    H20   2432 0.12178000   1.008000   ; qtot 53.805644
 2433         oh     52    ccc     O1   2433 -0.56972000  16.000000   ; qtot 53.235924
 2434         oh     52    ccc     O6   2434 -0.57772000  16.000000   ; qtot 52.658204
 2435         c3     52    ccc    C16   2435 0.14548000  12.010000   ; qtot 52.803684
 2436         ho     52    ccc    H21   2436 0.40508000   1.008000   ; qtot 53.208764
 2437         hn     52    ccc    H22   2437 0.31758000   1.008000   ; qtot 53.526344
 2438         h1     52    ccc    H23   2438 0.06278000   1.008000   ; qtot 53.589124
 2439         h1     52    ccc    H24   2439 0.06278000   1.008000   ; qtot 53.651904
 2440         oh     52    ccc     O7   2440 -0.59472000  16.000000   ; qtot 53.057184
 2441         ho     52    ccc    H25   2441 0.41908000   1.008000   ; qtot 53.476264
 2442         os     52    ccc     O8   2442 -0.44552000  16.000000   ; qtot 53.030744
 2443         ho     52    ccc    H26   2443 0.41908000   1.008000   ; qtot 53.449824
 2444         h1     52    ccc    H27   2444 0.08578000   1.008000   ; qtot 53.535604
 2445         oh     52    ccc     O9   2445 -0.58672000  16.000000   ; qtot 52.948884
 2446         ho     52    ccc    H28   2446 0.41908000   1.008000   ; qtot 53.367964
 2447         n3     52    ccc     N3   2447 -0.54282000  14.010000   ; qtot 52.825144
 2448         c3     52    ccc    C17   2448 0.08518000  12.010000   ; qtot 52.910324
 2449         c3     52    ccc    C18   2449 0.07918000  12.010000   ; qtot 52.989504
 2450         h1     52    ccc    H29   2450 0.06978000   1.008000   ; qtot 53.059284
 2451         c3     52    ccc    C19   2451 0.07918000  12.010000   ; qtot 53.138464
 2452         c3     52    ccc    C20   2452 0.03578000  12.010000   ; qtot 53.174244
 2453         c3     52    ccc    C21   2453 0.33498000  12.010000   ; qtot 53.509224
 2454         h1     52    ccc    H30   2454 0.06178000   1.008000   ; qtot 53.571004
 2455         h1     52    ccc    H31   2455 0.11278000   1.008000   ; qtot 53.683784
 2456         h2     52    ccc    H32   2456 0.12178000   1.008000   ; qtot 53.805564
 2457         oh     52    ccc    O10   2457 -0.56972000  16.000000   ; qtot 53.235844
 2458         oh     52    ccc    O11   2458 -0.57772000  16.000000   ; qtot 52.658124
 2459         c3     52    ccc    C22   2459 0.14548000  12.010000   ; qtot 52.803604
 2460         ho     52    ccc    H33   2460 0.40508000   1.008000   ; qtot 53.208684
 2461         hn     52    ccc    H34   2461 0.31758000   1.008000   ; qtot 53.526264
 2462         h1     52    ccc    H35   2462 0.06278000   1.008000   ; qtot 53.589044
 2463         h1     52    ccc    H36   2463 0.06278000   1.008000   ; qtot 53.651824
 2464         oh     52    ccc    O12   2464 -0.59472000  16.000000   ; qtot 53.057104
 2465         ho     52    ccc    H37   2465 0.41908000   1.008000   ; qtot 53.476184
 2466         os     52    ccc    O13   2466 -0.44552000  16.000000   ; qtot 53.030664
 2467         ho     52    ccc    H38   2467 0.41908000   1.008000   ; qtot 53.449744
 2468         h1     52    ccc    H39   2468 0.08578000   1.008000   ; qtot 53.535524
 2469         oh     52    ccc     O5   2469 -0.58672000  16.000000   ; qtot 52.948804
 2470         ho     52    ccc    H40   2470 0.41908000   1.008000   ; qtot 53.367884
 2471         n3     52    ccc     N4   2471 -0.54282000  14.010000   ; qtot 52.825064
 2472         hn     52    ccc    H41   2472 0.17125500   1.008000   ; qtot 52.996319
; residue   53 ccc rtp ccc q 1.0
 2473          n     53    ccc     N1   2473 -0.33303000  14.010000   ; qtot 52.663289
 2474         hn     53    ccc     H4   2474 0.25916100   1.008000   ; qtot 52.922450
 2475         c3     53    ccc     C3   2475 -0.03328100  12.010000   ; qtot 52.889169
 2476         h1     53    ccc     H5   2476 0.10618100   1.008000   ; qtot 52.995350
 2477         c3     53    ccc     C4   2477 -0.02083000  12.010000   ; qtot 52.974520
 2478         h1     53    ccc     H6   2478 0.10618100   1.008000   ; qtot 53.080701
 2479         h1     53    ccc     H7   2479 0.07988000   1.008000   ; qtot 53.160581
 2480         h1     53    ccc     H8   2480 0.07988000   1.008000   ; qtot 53.240461
 2481         n4     53    ccc     N2   2481 -0.02747900  14.010000   ; qtot 53.212982
 2482         c3     53    ccc     C5   2482 -0.05097600  12.010000   ; qtot 53.162006
 2483         c3     53    ccc     C6   2483 -0.05097600  12.010000   ; qtot 53.111030
 2484         h1     53    ccc     H9   2484 0.11563300   1.008000   ; qtot 53.226663
 2485         c3     53    ccc     C7   2485 -0.18457900  12.010000   ; qtot 53.042084
 2486         h1     53    ccc    H10   2486 0.11563300   1.008000   ; qtot 53.157717
 2487         hc     53    ccc    H11   2487 0.08347900   1.008000   ; qtot 53.241196
 2488         hc     53    ccc    H12   2488 0.08347900   1.008000   ; qtot 53.324675
 2489          c     53    ccc     C8   2489 0.67254400  12.010000   ; qtot 53.997219
 2490          o     53    ccc     O2   2490 -0.52917200  16.000000   ; qtot 53.468047
 2491         h1     53    ccc    H13   2491 0.11563300   1.008000   ; qtot 53.583680
 2492         h1     53    ccc    H14   2492 0.11563300   1.008000   ; qtot 53.699313
 2493         c3     53    ccc     C9   2493 -0.18457900  12.010000   ; qtot 53.514734
 2494         hc     53    ccc    H15   2494 0.08347900   1.008000   ; qtot 53.598213
 2495         hc     53    ccc    H16   2495 0.08347900   1.008000   ; qtot 53.681692
 2496          c     53    ccc    C10   2496 0.67254400  12.010000   ; qtot 54.354236
 2497          o     53    ccc     O4   2497 -0.52917200  16.000000   ; qtot 53.825064
 2498         c3     53    ccc    C11   2498 0.08518000  12.010000   ; qtot 53.910244
 2499         c3     53    ccc    C12   2499 0.07918000  12.010000   ; qtot 53.989424
 2500         h1     53    ccc    H17   2500 0.06978000   1.008000   ; qtot 54.059204
 2501         c3     53    ccc    C13   2501 0.07918000  12.010000   ; qtot 54.138384
 2502         c3     53    ccc    C14   2502 0.03578000  12.010000   ; qtot 54.174164
 2503         c3     53    ccc    C15   2503 0.33498000  12.010000   ; qtot 54.509144
 2504         h1     53    ccc    H18   2504 0.06178000   1.008000   ; qtot 54.570924
 2505         h1     53    ccc    H19   2505 0.11278000   1.008000   ; qtot 54.683704
 2506         h2     53    ccc    H20   2506 0.12178000   1.008000   ; qtot 54.805484
 2507         oh     53    ccc     O1   2507 -0.56972000  16.000000   ; qtot 54.235764
 2508         oh     53    ccc     O6   2508 -0.57772000  16.000000   ; qtot 53.658044
 2509         c3     53    ccc    C16   2509 0.14548000  12.010000   ; qtot 53.803524
 2510         ho     53    ccc    H21   2510 0.40508000   1.008000   ; qtot 54.208604
 2511         hn     53    ccc    H22   2511 0.31758000   1.008000   ; qtot 54.526184
 2512         h1     53    ccc    H23   2512 0.06278000   1.008000   ; qtot 54.588964
 2513         h1     53    ccc    H24   2513 0.06278000   1.008000   ; qtot 54.651744
 2514         oh     53    ccc     O7   2514 -0.59472000  16.000000   ; qtot 54.057024
 2515         ho     53    ccc    H25   2515 0.41908000   1.008000   ; qtot 54.476104
 2516         os     53    ccc     O8   2516 -0.44552000  16.000000   ; qtot 54.030584
 2517         ho     53    ccc    H26   2517 0.41908000   1.008000   ; qtot 54.449664
 2518         h1     53    ccc    H27   2518 0.08578000   1.008000   ; qtot 54.535444
 2519         oh     53    ccc     O9   2519 -0.58672000  16.000000   ; qtot 53.948724
 2520         ho     53    ccc    H28   2520 0.41908000   1.008000   ; qtot 54.367804
 2521         n3     53    ccc     N3   2521 -0.54282000  14.010000   ; qtot 53.824984
 2522         c3     53    ccc    C17   2522 0.08518000  12.010000   ; qtot 53.910164
 2523         c3     53    ccc    C18   2523 0.07918000  12.010000   ; qtot 53.989344
 2524         h1     53    ccc    H29   2524 0.06978000   1.008000   ; qtot 54.059124
 2525         c3     53    ccc    C19   2525 0.07918000  12.010000   ; qtot 54.138304
 2526         c3     53    ccc    C20   2526 0.03578000  12.010000   ; qtot 54.174084
 2527         c3     53    ccc    C21   2527 0.33498000  12.010000   ; qtot 54.509064
 2528         h1     53    ccc    H30   2528 0.06178000   1.008000   ; qtot 54.570844
 2529         h1     53    ccc    H31   2529 0.11278000   1.008000   ; qtot 54.683624
 2530         h2     53    ccc    H32   2530 0.12178000   1.008000   ; qtot 54.805404
 2531         oh     53    ccc    O10   2531 -0.56972000  16.000000   ; qtot 54.235684
 2532         oh     53    ccc    O11   2532 -0.57772000  16.000000   ; qtot 53.657964
 2533         c3     53    ccc    C22   2533 0.14548000  12.010000   ; qtot 53.803444
 2534         ho     53    ccc    H33   2534 0.40508000   1.008000   ; qtot 54.208524
 2535         hn     53    ccc    H34   2535 0.31758000   1.008000   ; qtot 54.526104
 2536         h1     53    ccc    H35   2536 0.06278000   1.008000   ; qtot 54.588884
 2537         h1     53    ccc    H36   2537 0.06278000   1.008000   ; qtot 54.651664
 2538         oh     53    ccc    O12   2538 -0.59472000  16.000000   ; qtot 54.056944
 2539         ho     53    ccc    H37   2539 0.41908000   1.008000   ; qtot 54.476024
 2540         os     53    ccc    O13   2540 -0.44552000  16.000000   ; qtot 54.030504
 2541         ho     53    ccc    H38   2541 0.41908000   1.008000   ; qtot 54.449584
 2542         h1     53    ccc    H39   2542 0.08578000   1.008000   ; qtot 54.535364
 2543         oh     53    ccc     O5   2543 -0.58672000  16.000000   ; qtot 53.948644
 2544         ho     53    ccc    H40   2544 0.41908000   1.008000   ; qtot 54.367724
 2545         n3     53    ccc     N4   2545 -0.54282000  14.010000   ; qtot 53.824904
 2546         hn     53    ccc    H41   2546 0.17125500   1.008000   ; qtot 53.996159
; residue   54 ccc rtp ccc q 1.0
 2547          n     54    ccc     N1   2547 -0.33303000  14.010000   ; qtot 53.663129
 2548         hn     54    ccc     H4   2548 0.25916100   1.008000   ; qtot 53.922290
 2549         c3     54    ccc     C3   2549 -0.03328100  12.010000   ; qtot 53.889009
 2550         h1     54    ccc     H5   2550 0.10618100   1.008000   ; qtot 53.995190
 2551         c3     54    ccc     C4   2551 -0.02083000  12.010000   ; qtot 53.974360
 2552         h1     54    ccc     H6   2552 0.10618100   1.008000   ; qtot 54.080541
 2553         h1     54    ccc     H7   2553 0.07988000   1.008000   ; qtot 54.160421
 2554         h1     54    ccc     H8   2554 0.07988000   1.008000   ; qtot 54.240301
 2555         n4     54    ccc     N2   2555 -0.02747900  14.010000   ; qtot 54.212822
 2556         c3     54    ccc     C5   2556 -0.05097600  12.010000   ; qtot 54.161846
 2557         c3     54    ccc     C6   2557 -0.05097600  12.010000   ; qtot 54.110870
 2558         h1     54    ccc     H9   2558 0.11563300   1.008000   ; qtot 54.226503
 2559         c3     54    ccc     C7   2559 -0.18457900  12.010000   ; qtot 54.041924
 2560         h1     54    ccc    H10   2560 0.11563300   1.008000   ; qtot 54.157557
 2561         hc     54    ccc    H11   2561 0.08347900   1.008000   ; qtot 54.241036
 2562         hc     54    ccc    H12   2562 0.08347900   1.008000   ; qtot 54.324515
 2563          c     54    ccc     C8   2563 0.67254400  12.010000   ; qtot 54.997059
 2564          o     54    ccc     O2   2564 -0.52917200  16.000000   ; qtot 54.467887
 2565         h1     54    ccc    H13   2565 0.11563300   1.008000   ; qtot 54.583520
 2566         h1     54    ccc    H14   2566 0.11563300   1.008000   ; qtot 54.699153
 2567         c3     54    ccc     C9   2567 -0.18457900  12.010000   ; qtot 54.514574
 2568         hc     54    ccc    H15   2568 0.08347900   1.008000   ; qtot 54.598053
 2569         hc     54    ccc    H16   2569 0.08347900   1.008000   ; qtot 54.681532
 2570          c     54    ccc    C10   2570 0.67254400  12.010000   ; qtot 55.354076
 2571          o     54    ccc     O4   2571 -0.52917200  16.000000   ; qtot 54.824904
 2572         c3     54    ccc    C11   2572 0.08518000  12.010000   ; qtot 54.910084
 2573         c3     54    ccc    C12   2573 0.07918000  12.010000   ; qtot 54.989264
 2574         h1     54    ccc    H17   2574 0.06978000   1.008000   ; qtot 55.059044
 2575         c3     54    ccc    C13   2575 0.07918000  12.010000   ; qtot 55.138224
 2576         c3     54    ccc    C14   2576 0.03578000  12.010000   ; qtot 55.174004
 2577         c3     54    ccc    C15   2577 0.33498000  12.010000   ; qtot 55.508984
 2578         h1     54    ccc    H18   2578 0.06178000   1.008000   ; qtot 55.570764
 2579         h1     54    ccc    H19   2579 0.11278000   1.008000   ; qtot 55.683544
 2580         h2     54    ccc    H20   2580 0.12178000   1.008000   ; qtot 55.805324
 2581         oh     54    ccc     O1   2581 -0.56972000  16.000000   ; qtot 55.235604
 2582         oh     54    ccc     O6   2582 -0.57772000  16.000000   ; qtot 54.657884
 2583         c3     54    ccc    C16   2583 0.14548000  12.010000   ; qtot 54.803364
 2584         ho     54    ccc    H21   2584 0.40508000   1.008000   ; qtot 55.208444
 2585         hn     54    ccc    H22   2585 0.31758000   1.008000   ; qtot 55.526024
 2586         h1     54    ccc    H23   2586 0.06278000   1.008000   ; qtot 55.588804
 2587         h1     54    ccc    H24   2587 0.06278000   1.008000   ; qtot 55.651584
 2588         oh     54    ccc     O7   2588 -0.59472000  16.000000   ; qtot 55.056864
 2589         ho     54    ccc    H25   2589 0.41908000   1.008000   ; qtot 55.475944
 2590         os     54    ccc     O8   2590 -0.44552000  16.000000   ; qtot 55.030424
 2591         ho     54    ccc    H26   2591 0.41908000   1.008000   ; qtot 55.449504
 2592         h1     54    ccc    H27   2592 0.08578000   1.008000   ; qtot 55.535284
 2593         oh     54    ccc     O9   2593 -0.58672000  16.000000   ; qtot 54.948564
 2594         ho     54    ccc    H28   2594 0.41908000   1.008000   ; qtot 55.367644
 2595         n3     54    ccc     N3   2595 -0.54282000  14.010000   ; qtot 54.824824
 2596         c3     54    ccc    C17   2596 0.08518000  12.010000   ; qtot 54.910004
 2597         c3     54    ccc    C18   2597 0.07918000  12.010000   ; qtot 54.989184
 2598         h1     54    ccc    H29   2598 0.06978000   1.008000   ; qtot 55.058964
 2599         c3     54    ccc    C19   2599 0.07918000  12.010000   ; qtot 55.138144
 2600         c3     54    ccc    C20   2600 0.03578000  12.010000   ; qtot 55.173924
 2601         c3     54    ccc    C21   2601 0.33498000  12.010000   ; qtot 55.508904
 2602         h1     54    ccc    H30   2602 0.06178000   1.008000   ; qtot 55.570684
 2603         h1     54    ccc    H31   2603 0.11278000   1.008000   ; qtot 55.683464
 2604         h2     54    ccc    H32   2604 0.12178000   1.008000   ; qtot 55.805244
 2605         oh     54    ccc    O10   2605 -0.56972000  16.000000   ; qtot 55.235524
 2606         oh     54    ccc    O11   2606 -0.57772000  16.000000   ; qtot 54.657804
 2607         c3     54    ccc    C22   2607 0.14548000  12.010000   ; qtot 54.803284
 2608         ho     54    ccc    H33   2608 0.40508000   1.008000   ; qtot 55.208364
 2609         hn     54    ccc    H34   2609 0.31758000   1.008000   ; qtot 55.525944
 2610         h1     54    ccc    H35   2610 0.06278000   1.008000   ; qtot 55.588724
 2611         h1     54    ccc    H36   2611 0.06278000   1.008000   ; qtot 55.651504
 2612         oh     54    ccc    O12   2612 -0.59472000  16.000000   ; qtot 55.056784
 2613         ho     54    ccc    H37   2613 0.41908000   1.008000   ; qtot 55.475864
 2614         os     54    ccc    O13   2614 -0.44552000  16.000000   ; qtot 55.030344
 2615         ho     54    ccc    H38   2615 0.41908000   1.008000   ; qtot 55.449424
 2616         h1     54    ccc    H39   2616 0.08578000   1.008000   ; qtot 55.535204
 2617         oh     54    ccc     O5   2617 -0.58672000  16.000000   ; qtot 54.948484
 2618         ho     54    ccc    H40   2618 0.41908000   1.008000   ; qtot 55.367564
 2619         n3     54    ccc     N4   2619 -0.54282000  14.010000   ; qtot 54.824744
 2620         hn     54    ccc    H41   2620 0.17125500   1.008000   ; qtot 54.995999
; residue   55 ccc rtp ccc q 1.0
 2621          n     55    ccc     N1   2621 -0.33303000  14.010000   ; qtot 54.662969
 2622         hn     55    ccc     H4   2622 0.25916100   1.008000   ; qtot 54.922130
 2623         c3     55    ccc     C3   2623 -0.03328100  12.010000   ; qtot 54.888849
 2624         h1     55    ccc     H5   2624 0.10618100   1.008000   ; qtot 54.995030
 2625         c3     55    ccc     C4   2625 -0.02083000  12.010000   ; qtot 54.974200
 2626         h1     55    ccc     H6   2626 0.10618100   1.008000   ; qtot 55.080381
 2627         h1     55    ccc     H7   2627 0.07988000   1.008000   ; qtot 55.160261
 2628         h1     55    ccc     H8   2628 0.07988000   1.008000   ; qtot 55.240141
 2629         n4     55    ccc     N2   2629 -0.02747900  14.010000   ; qtot 55.212662
 2630         c3     55    ccc     C5   2630 -0.05097600  12.010000   ; qtot 55.161686
 2631         c3     55    ccc     C6   2631 -0.05097600  12.010000   ; qtot 55.110710
 2632         h1     55    ccc     H9   2632 0.11563300   1.008000   ; qtot 55.226343
 2633         c3     55    ccc     C7   2633 -0.18457900  12.010000   ; qtot 55.041764
 2634         h1     55    ccc    H10   2634 0.11563300   1.008000   ; qtot 55.157397
 2635         hc     55    ccc    H11   2635 0.08347900   1.008000   ; qtot 55.240876
 2636         hc     55    ccc    H12   2636 0.08347900   1.008000   ; qtot 55.324355
 2637          c     55    ccc     C8   2637 0.67254400  12.010000   ; qtot 55.996899
 2638          o     55    ccc     O2   2638 -0.52917200  16.000000   ; qtot 55.467727
 2639         h1     55    ccc    H13   2639 0.11563300   1.008000   ; qtot 55.583360
 2640         h1     55    ccc    H14   2640 0.11563300   1.008000   ; qtot 55.698993
 2641         c3     55    ccc     C9   2641 -0.18457900  12.010000   ; qtot 55.514414
 2642         hc     55    ccc    H15   2642 0.08347900   1.008000   ; qtot 55.597893
 2643         hc     55    ccc    H16   2643 0.08347900   1.008000   ; qtot 55.681372
 2644          c     55    ccc    C10   2644 0.67254400  12.010000   ; qtot 56.353916
 2645          o     55    ccc     O4   2645 -0.52917200  16.000000   ; qtot 55.824744
 2646         c3     55    ccc    C11   2646 0.08518000  12.010000   ; qtot 55.909924
 2647         c3     55    ccc    C12   2647 0.07918000  12.010000   ; qtot 55.989104
 2648         h1     55    ccc    H17   2648 0.06978000   1.008000   ; qtot 56.058884
 2649         c3     55    ccc    C13   2649 0.07918000  12.010000   ; qtot 56.138064
 2650         c3     55    ccc    C14   2650 0.03578000  12.010000   ; qtot 56.173844
 2651         c3     55    ccc    C15   2651 0.33498000  12.010000   ; qtot 56.508824
 2652         h1     55    ccc    H18   2652 0.06178000   1.008000   ; qtot 56.570604
 2653         h1     55    ccc    H19   2653 0.11278000   1.008000   ; qtot 56.683384
 2654         h2     55    ccc    H20   2654 0.12178000   1.008000   ; qtot 56.805164
 2655         oh     55    ccc     O1   2655 -0.56972000  16.000000   ; qtot 56.235444
 2656         oh     55    ccc     O6   2656 -0.57772000  16.000000   ; qtot 55.657724
 2657         c3     55    ccc    C16   2657 0.14548000  12.010000   ; qtot 55.803204
 2658         ho     55    ccc    H21   2658 0.40508000   1.008000   ; qtot 56.208284
 2659         hn     55    ccc    H22   2659 0.31758000   1.008000   ; qtot 56.525864
 2660         h1     55    ccc    H23   2660 0.06278000   1.008000   ; qtot 56.588644
 2661         h1     55    ccc    H24   2661 0.06278000   1.008000   ; qtot 56.651424
 2662         oh     55    ccc     O7   2662 -0.59472000  16.000000   ; qtot 56.056704
 2663         ho     55    ccc    H25   2663 0.41908000   1.008000   ; qtot 56.475784
 2664         os     55    ccc     O8   2664 -0.44552000  16.000000   ; qtot 56.030264
 2665         ho     55    ccc    H26   2665 0.41908000   1.008000   ; qtot 56.449344
 2666         h1     55    ccc    H27   2666 0.08578000   1.008000   ; qtot 56.535124
 2667         oh     55    ccc     O9   2667 -0.58672000  16.000000   ; qtot 55.948404
 2668         ho     55    ccc    H28   2668 0.41908000   1.008000   ; qtot 56.367484
 2669         n3     55    ccc     N3   2669 -0.54282000  14.010000   ; qtot 55.824664
 2670         c3     55    ccc    C17   2670 0.08518000  12.010000   ; qtot 55.909844
 2671         c3     55    ccc    C18   2671 0.07918000  12.010000   ; qtot 55.989024
 2672         h1     55    ccc    H29   2672 0.06978000   1.008000   ; qtot 56.058804
 2673         c3     55    ccc    C19   2673 0.07918000  12.010000   ; qtot 56.137984
 2674         c3     55    ccc    C20   2674 0.03578000  12.010000   ; qtot 56.173764
 2675         c3     55    ccc    C21   2675 0.33498000  12.010000   ; qtot 56.508744
 2676         h1     55    ccc    H30   2676 0.06178000   1.008000   ; qtot 56.570524
 2677         h1     55    ccc    H31   2677 0.11278000   1.008000   ; qtot 56.683304
 2678         h2     55    ccc    H32   2678 0.12178000   1.008000   ; qtot 56.805084
 2679         oh     55    ccc    O10   2679 -0.56972000  16.000000   ; qtot 56.235364
 2680         oh     55    ccc    O11   2680 -0.57772000  16.000000   ; qtot 55.657644
 2681         c3     55    ccc    C22   2681 0.14548000  12.010000   ; qtot 55.803124
 2682         ho     55    ccc    H33   2682 0.40508000   1.008000   ; qtot 56.208204
 2683         hn     55    ccc    H34   2683 0.31758000   1.008000   ; qtot 56.525784
 2684         h1     55    ccc    H35   2684 0.06278000   1.008000   ; qtot 56.588564
 2685         h1     55    ccc    H36   2685 0.06278000   1.008000   ; qtot 56.651344
 2686         oh     55    ccc    O12   2686 -0.59472000  16.000000   ; qtot 56.056624
 2687         ho     55    ccc    H37   2687 0.41908000   1.008000   ; qtot 56.475704
 2688         os     55    ccc    O13   2688 -0.44552000  16.000000   ; qtot 56.030184
 2689         ho     55    ccc    H38   2689 0.41908000   1.008000   ; qtot 56.449264
 2690         h1     55    ccc    H39   2690 0.08578000   1.008000   ; qtot 56.535044
 2691         oh     55    ccc     O5   2691 -0.58672000  16.000000   ; qtot 55.948324
 2692         ho     55    ccc    H40   2692 0.41908000   1.008000   ; qtot 56.367404
 2693         n3     55    ccc     N4   2693 -0.54282000  14.010000   ; qtot 55.824584
 2694         hn     55    ccc    H41   2694 0.17125500   1.008000   ; qtot 55.995839
; residue   56 ccc rtp ccc q 1.0
 2695          n     56    ccc     N1   2695 -0.33303000  14.010000   ; qtot 55.662809
 2696         hn     56    ccc     H4   2696 0.25916100   1.008000   ; qtot 55.921970
 2697         c3     56    ccc     C3   2697 -0.03328100  12.010000   ; qtot 55.888689
 2698         h1     56    ccc     H5   2698 0.10618100   1.008000   ; qtot 55.994870
 2699         c3     56    ccc     C4   2699 -0.02083000  12.010000   ; qtot 55.974040
 2700         h1     56    ccc     H6   2700 0.10618100   1.008000   ; qtot 56.080221
 2701         h1     56    ccc     H7   2701 0.07988000   1.008000   ; qtot 56.160101
 2702         h1     56    ccc     H8   2702 0.07988000   1.008000   ; qtot 56.239981
 2703         n4     56    ccc     N2   2703 -0.02747900  14.010000   ; qtot 56.212502
 2704         c3     56    ccc     C5   2704 -0.05097600  12.010000   ; qtot 56.161526
 2705         c3     56    ccc     C6   2705 -0.05097600  12.010000   ; qtot 56.110550
 2706         h1     56    ccc     H9   2706 0.11563300   1.008000   ; qtot 56.226183
 2707         c3     56    ccc     C7   2707 -0.18457900  12.010000   ; qtot 56.041604
 2708         h1     56    ccc    H10   2708 0.11563300   1.008000   ; qtot 56.157237
 2709         hc     56    ccc    H11   2709 0.08347900   1.008000   ; qtot 56.240716
 2710         hc     56    ccc    H12   2710 0.08347900   1.008000   ; qtot 56.324195
 2711          c     56    ccc     C8   2711 0.67254400  12.010000   ; qtot 56.996739
 2712          o     56    ccc     O2   2712 -0.52917200  16.000000   ; qtot 56.467567
 2713         h1     56    ccc    H13   2713 0.11563300   1.008000   ; qtot 56.583200
 2714         h1     56    ccc    H14   2714 0.11563300   1.008000   ; qtot 56.698833
 2715         c3     56    ccc     C9   2715 -0.18457900  12.010000   ; qtot 56.514254
 2716         hc     56    ccc    H15   2716 0.08347900   1.008000   ; qtot 56.597733
 2717         hc     56    ccc    H16   2717 0.08347900   1.008000   ; qtot 56.681212
 2718          c     56    ccc    C10   2718 0.67254400  12.010000   ; qtot 57.353756
 2719          o     56    ccc     O4   2719 -0.52917200  16.000000   ; qtot 56.824584
 2720         c3     56    ccc    C11   2720 0.08518000  12.010000   ; qtot 56.909764
 2721         c3     56    ccc    C12   2721 0.07918000  12.010000   ; qtot 56.988944
 2722         h1     56    ccc    H17   2722 0.06978000   1.008000   ; qtot 57.058724
 2723         c3     56    ccc    C13   2723 0.07918000  12.010000   ; qtot 57.137904
 2724         c3     56    ccc    C14   2724 0.03578000  12.010000   ; qtot 57.173684
 2725         c3     56    ccc    C15   2725 0.33498000  12.010000   ; qtot 57.508664
 2726         h1     56    ccc    H18   2726 0.06178000   1.008000   ; qtot 57.570444
 2727         h1     56    ccc    H19   2727 0.11278000   1.008000   ; qtot 57.683224
 2728         h2     56    ccc    H20   2728 0.12178000   1.008000   ; qtot 57.805004
 2729         oh     56    ccc     O1   2729 -0.56972000  16.000000   ; qtot 57.235284
 2730         oh     56    ccc     O6   2730 -0.57772000  16.000000   ; qtot 56.657564
 2731         c3     56    ccc    C16   2731 0.14548000  12.010000   ; qtot 56.803044
 2732         ho     56    ccc    H21   2732 0.40508000   1.008000   ; qtot 57.208124
 2733         hn     56    ccc    H22   2733 0.31758000   1.008000   ; qtot 57.525704
 2734         h1     56    ccc    H23   2734 0.06278000   1.008000   ; qtot 57.588484
 2735         h1     56    ccc    H24   2735 0.06278000   1.008000   ; qtot 57.651264
 2736         oh     56    ccc     O7   2736 -0.59472000  16.000000   ; qtot 57.056544
 2737         ho     56    ccc    H25   2737 0.41908000   1.008000   ; qtot 57.475624
 2738         os     56    ccc     O8   2738 -0.44552000  16.000000   ; qtot 57.030104
 2739         ho     56    ccc    H26   2739 0.41908000   1.008000   ; qtot 57.449184
 2740         h1     56    ccc    H27   2740 0.08578000   1.008000   ; qtot 57.534964
 2741         oh     56    ccc     O9   2741 -0.58672000  16.000000   ; qtot 56.948244
 2742         ho     56    ccc    H28   2742 0.41908000   1.008000   ; qtot 57.367324
 2743         n3     56    ccc     N3   2743 -0.54282000  14.010000   ; qtot 56.824504
 2744         c3     56    ccc    C17   2744 0.08518000  12.010000   ; qtot 56.909684
 2745         c3     56    ccc    C18   2745 0.07918000  12.010000   ; qtot 56.988864
 2746         h1     56    ccc    H29   2746 0.06978000   1.008000   ; qtot 57.058644
 2747         c3     56    ccc    C19   2747 0.07918000  12.010000   ; qtot 57.137824
 2748         c3     56    ccc    C20   2748 0.03578000  12.010000   ; qtot 57.173604
 2749         c3     56    ccc    C21   2749 0.33498000  12.010000   ; qtot 57.508584
 2750         h1     56    ccc    H30   2750 0.06178000   1.008000   ; qtot 57.570364
 2751         h1     56    ccc    H31   2751 0.11278000   1.008000   ; qtot 57.683144
 2752         h2     56    ccc    H32   2752 0.12178000   1.008000   ; qtot 57.804924
 2753         oh     56    ccc    O10   2753 -0.56972000  16.000000   ; qtot 57.235204
 2754         oh     56    ccc    O11   2754 -0.57772000  16.000000   ; qtot 56.657484
 2755         c3     56    ccc    C22   2755 0.14548000  12.010000   ; qtot 56.802964
 2756         ho     56    ccc    H33   2756 0.40508000   1.008000   ; qtot 57.208044
 2757         hn     56    ccc    H34   2757 0.31758000   1.008000   ; qtot 57.525624
 2758         h1     56    ccc    H35   2758 0.06278000   1.008000   ; qtot 57.588404
 2759         h1     56    ccc    H36   2759 0.06278000   1.008000   ; qtot 57.651184
 2760         oh     56    ccc    O12   2760 -0.59472000  16.000000   ; qtot 57.056464
 2761         ho     56    ccc    H37   2761 0.41908000   1.008000   ; qtot 57.475544
 2762         os     56    ccc    O13   2762 -0.44552000  16.000000   ; qtot 57.030024
 2763         ho     56    ccc    H38   2763 0.41908000   1.008000   ; qtot 57.449104
 2764         h1     56    ccc    H39   2764 0.08578000   1.008000   ; qtot 57.534884
 2765         oh     56    ccc     O5   2765 -0.58672000  16.000000   ; qtot 56.948164
 2766         ho     56    ccc    H40   2766 0.41908000   1.008000   ; qtot 57.367244
 2767         n3     56    ccc     N4   2767 -0.54282000  14.010000   ; qtot 56.824424
 2768         hn     56    ccc    H41   2768 0.17125500   1.008000   ; qtot 56.995679
; residue   57 ccc rtp ccc q 1.0
 2769          n     57    ccc     N1   2769 -0.33303000  14.010000   ; qtot 56.662649
 2770         hn     57    ccc     H4   2770 0.25916100   1.008000   ; qtot 56.921810
 2771         c3     57    ccc     C3   2771 -0.03328100  12.010000   ; qtot 56.888529
 2772         h1     57    ccc     H5   2772 0.10618100   1.008000   ; qtot 56.994710
 2773         c3     57    ccc     C4   2773 -0.02083000  12.010000   ; qtot 56.973880
 2774         h1     57    ccc     H6   2774 0.10618100   1.008000   ; qtot 57.080061
 2775         h1     57    ccc     H7   2775 0.07988000   1.008000   ; qtot 57.159941
 2776         h1     57    ccc     H8   2776 0.07988000   1.008000   ; qtot 57.239821
 2777         n4     57    ccc     N2   2777 -0.02747900  14.010000   ; qtot 57.212342
 2778         c3     57    ccc     C5   2778 -0.05097600  12.010000   ; qtot 57.161366
 2779         c3     57    ccc     C6   2779 -0.05097600  12.010000   ; qtot 57.110390
 2780         h1     57    ccc     H9   2780 0.11563300   1.008000   ; qtot 57.226023
 2781         c3     57    ccc     C7   2781 -0.18457900  12.010000   ; qtot 57.041444
 2782         h1     57    ccc    H10   2782 0.11563300   1.008000   ; qtot 57.157077
 2783         hc     57    ccc    H11   2783 0.08347900   1.008000   ; qtot 57.240556
 2784         hc     57    ccc    H12   2784 0.08347900   1.008000   ; qtot 57.324035
 2785          c     57    ccc     C8   2785 0.67254400  12.010000   ; qtot 57.996579
 2786          o     57    ccc     O2   2786 -0.52917200  16.000000   ; qtot 57.467407
 2787         h1     57    ccc    H13   2787 0.11563300   1.008000   ; qtot 57.583040
 2788         h1     57    ccc    H14   2788 0.11563300   1.008000   ; qtot 57.698673
 2789         c3     57    ccc     C9   2789 -0.18457900  12.010000   ; qtot 57.514094
 2790         hc     57    ccc    H15   2790 0.08347900   1.008000   ; qtot 57.597573
 2791         hc     57    ccc    H16   2791 0.08347900   1.008000   ; qtot 57.681052
 2792          c     57    ccc    C10   2792 0.67254400  12.010000   ; qtot 58.353596
 2793          o     57    ccc     O4   2793 -0.52917200  16.000000   ; qtot 57.824424
 2794         c3     57    ccc    C11   2794 0.08518000  12.010000   ; qtot 57.909604
 2795         c3     57    ccc    C12   2795 0.07918000  12.010000   ; qtot 57.988784
 2796         h1     57    ccc    H17   2796 0.06978000   1.008000   ; qtot 58.058564
 2797         c3     57    ccc    C13   2797 0.07918000  12.010000   ; qtot 58.137744
 2798         c3     57    ccc    C14   2798 0.03578000  12.010000   ; qtot 58.173524
 2799         c3     57    ccc    C15   2799 0.33498000  12.010000   ; qtot 58.508504
 2800         h1     57    ccc    H18   2800 0.06178000   1.008000   ; qtot 58.570284
 2801         h1     57    ccc    H19   2801 0.11278000   1.008000   ; qtot 58.683064
 2802         h2     57    ccc    H20   2802 0.12178000   1.008000   ; qtot 58.804844
 2803         oh     57    ccc     O1   2803 -0.56972000  16.000000   ; qtot 58.235124
 2804         oh     57    ccc     O6   2804 -0.57772000  16.000000   ; qtot 57.657404
 2805         c3     57    ccc    C16   2805 0.14548000  12.010000   ; qtot 57.802884
 2806         ho     57    ccc    H21   2806 0.40508000   1.008000   ; qtot 58.207964
 2807         hn     57    ccc    H22   2807 0.31758000   1.008000   ; qtot 58.525544
 2808         h1     57    ccc    H23   2808 0.06278000   1.008000   ; qtot 58.588324
 2809         h1     57    ccc    H24   2809 0.06278000   1.008000   ; qtot 58.651104
 2810         oh     57    ccc     O7   2810 -0.59472000  16.000000   ; qtot 58.056384
 2811         ho     57    ccc    H25   2811 0.41908000   1.008000   ; qtot 58.475464
 2812         os     57    ccc     O8   2812 -0.44552000  16.000000   ; qtot 58.029944
 2813         ho     57    ccc    H26   2813 0.41908000   1.008000   ; qtot 58.449024
 2814         h1     57    ccc    H27   2814 0.08578000   1.008000   ; qtot 58.534804
 2815         oh     57    ccc     O9   2815 -0.58672000  16.000000   ; qtot 57.948084
 2816         ho     57    ccc    H28   2816 0.41908000   1.008000   ; qtot 58.367164
 2817         n3     57    ccc     N3   2817 -0.54282000  14.010000   ; qtot 57.824344
 2818         c3     57    ccc    C17   2818 0.08518000  12.010000   ; qtot 57.909524
 2819         c3     57    ccc    C18   2819 0.07918000  12.010000   ; qtot 57.988704
 2820         h1     57    ccc    H29   2820 0.06978000   1.008000   ; qtot 58.058484
 2821         c3     57    ccc    C19   2821 0.07918000  12.010000   ; qtot 58.137664
 2822         c3     57    ccc    C20   2822 0.03578000  12.010000   ; qtot 58.173444
 2823         c3     57    ccc    C21   2823 0.33498000  12.010000   ; qtot 58.508424
 2824         h1     57    ccc    H30   2824 0.06178000   1.008000   ; qtot 58.570204
 2825         h1     57    ccc    H31   2825 0.11278000   1.008000   ; qtot 58.682984
 2826         h2     57    ccc    H32   2826 0.12178000   1.008000   ; qtot 58.804764
 2827         oh     57    ccc    O10   2827 -0.56972000  16.000000   ; qtot 58.235044
 2828         oh     57    ccc    O11   2828 -0.57772000  16.000000   ; qtot 57.657324
 2829         c3     57    ccc    C22   2829 0.14548000  12.010000   ; qtot 57.802804
 2830         ho     57    ccc    H33   2830 0.40508000   1.008000   ; qtot 58.207884
 2831         hn     57    ccc    H34   2831 0.31758000   1.008000   ; qtot 58.525464
 2832         h1     57    ccc    H35   2832 0.06278000   1.008000   ; qtot 58.588244
 2833         h1     57    ccc    H36   2833 0.06278000   1.008000   ; qtot 58.651024
 2834         oh     57    ccc    O12   2834 -0.59472000  16.000000   ; qtot 58.056304
 2835         ho     57    ccc    H37   2835 0.41908000   1.008000   ; qtot 58.475384
 2836         os     57    ccc    O13   2836 -0.44552000  16.000000   ; qtot 58.029864
 2837         ho     57    ccc    H38   2837 0.41908000   1.008000   ; qtot 58.448944
 2838         h1     57    ccc    H39   2838 0.08578000   1.008000   ; qtot 58.534724
 2839         oh     57    ccc     O5   2839 -0.58672000  16.000000   ; qtot 57.948004
 2840         ho     57    ccc    H40   2840 0.41908000   1.008000   ; qtot 58.367084
 2841         n3     57    ccc     N4   2841 -0.54282000  14.010000   ; qtot 57.824264
 2842         hn     57    ccc    H41   2842 0.17125500   1.008000   ; qtot 57.995519
; residue   58 ccc rtp ccc q 1.0
 2843          n     58    ccc     N1   2843 -0.33303000  14.010000   ; qtot 57.662489
 2844         hn     58    ccc     H4   2844 0.25916100   1.008000   ; qtot 57.921650
 2845         c3     58    ccc     C3   2845 -0.03328100  12.010000   ; qtot 57.888369
 2846         h1     58    ccc     H5   2846 0.10618100   1.008000   ; qtot 57.994550
 2847         c3     58    ccc     C4   2847 -0.02083000  12.010000   ; qtot 57.973720
 2848         h1     58    ccc     H6   2848 0.10618100   1.008000   ; qtot 58.079901
 2849         h1     58    ccc     H7   2849 0.07988000   1.008000   ; qtot 58.159781
 2850         h1     58    ccc     H8   2850 0.07988000   1.008000   ; qtot 58.239661
 2851         n4     58    ccc     N2   2851 -0.02747900  14.010000   ; qtot 58.212182
 2852         c3     58    ccc     C5   2852 -0.05097600  12.010000   ; qtot 58.161206
 2853         c3     58    ccc     C6   2853 -0.05097600  12.010000   ; qtot 58.110230
 2854         h1     58    ccc     H9   2854 0.11563300   1.008000   ; qtot 58.225863
 2855         c3     58    ccc     C7   2855 -0.18457900  12.010000   ; qtot 58.041284
 2856         h1     58    ccc    H10   2856 0.11563300   1.008000   ; qtot 58.156917
 2857         hc     58    ccc    H11   2857 0.08347900   1.008000   ; qtot 58.240396
 2858         hc     58    ccc    H12   2858 0.08347900   1.008000   ; qtot 58.323875
 2859          c     58    ccc     C8   2859 0.67254400  12.010000   ; qtot 58.996419
 2860          o     58    ccc     O2   2860 -0.52917200  16.000000   ; qtot 58.467247
 2861         h1     58    ccc    H13   2861 0.11563300   1.008000   ; qtot 58.582880
 2862         h1     58    ccc    H14   2862 0.11563300   1.008000   ; qtot 58.698513
 2863         c3     58    ccc     C9   2863 -0.18457900  12.010000   ; qtot 58.513934
 2864         hc     58    ccc    H15   2864 0.08347900   1.008000   ; qtot 58.597413
 2865         hc     58    ccc    H16   2865 0.08347900   1.008000   ; qtot 58.680892
 2866          c     58    ccc    C10   2866 0.67254400  12.010000   ; qtot 59.353436
 2867          o     58    ccc     O4   2867 -0.52917200  16.000000   ; qtot 58.824264
 2868         c3     58    ccc    C11   2868 0.08518000  12.010000   ; qtot 58.909444
 2869         c3     58    ccc    C12   2869 0.07918000  12.010000   ; qtot 58.988624
 2870         h1     58    ccc    H17   2870 0.06978000   1.008000   ; qtot 59.058404
 2871         c3     58    ccc    C13   2871 0.07918000  12.010000   ; qtot 59.137584
 2872         c3     58    ccc    C14   2872 0.03578000  12.010000   ; qtot 59.173364
 2873         c3     58    ccc    C15   2873 0.33498000  12.010000   ; qtot 59.508344
 2874         h1     58    ccc    H18   2874 0.06178000   1.008000   ; qtot 59.570124
 2875         h1     58    ccc    H19   2875 0.11278000   1.008000   ; qtot 59.682904
 2876         h2     58    ccc    H20   2876 0.12178000   1.008000   ; qtot 59.804684
 2877         oh     58    ccc     O1   2877 -0.56972000  16.000000   ; qtot 59.234964
 2878         oh     58    ccc     O6   2878 -0.57772000  16.000000   ; qtot 58.657244
 2879         c3     58    ccc    C16   2879 0.14548000  12.010000   ; qtot 58.802724
 2880         ho     58    ccc    H21   2880 0.40508000   1.008000   ; qtot 59.207804
 2881         hn     58    ccc    H22   2881 0.31758000   1.008000   ; qtot 59.525384
 2882         h1     58    ccc    H23   2882 0.06278000   1.008000   ; qtot 59.588164
 2883         h1     58    ccc    H24   2883 0.06278000   1.008000   ; qtot 59.650944
 2884         oh     58    ccc     O7   2884 -0.59472000  16.000000   ; qtot 59.056224
 2885         ho     58    ccc    H25   2885 0.41908000   1.008000   ; qtot 59.475304
 2886         os     58    ccc     O8   2886 -0.44552000  16.000000   ; qtot 59.029784
 2887         ho     58    ccc    H26   2887 0.41908000   1.008000   ; qtot 59.448864
 2888         h1     58    ccc    H27   2888 0.08578000   1.008000   ; qtot 59.534644
 2889         oh     58    ccc     O9   2889 -0.58672000  16.000000   ; qtot 58.947924
 2890         ho     58    ccc    H28   2890 0.41908000   1.008000   ; qtot 59.367004
 2891         n3     58    ccc     N3   2891 -0.54282000  14.010000   ; qtot 58.824184
 2892         c3     58    ccc    C17   2892 0.08518000  12.010000   ; qtot 58.909364
 2893         c3     58    ccc    C18   2893 0.07918000  12.010000   ; qtot 58.988544
 2894         h1     58    ccc    H29   2894 0.06978000   1.008000   ; qtot 59.058324
 2895         c3     58    ccc    C19   2895 0.07918000  12.010000   ; qtot 59.137504
 2896         c3     58    ccc    C20   2896 0.03578000  12.010000   ; qtot 59.173284
 2897         c3     58    ccc    C21   2897 0.33498000  12.010000   ; qtot 59.508264
 2898         h1     58    ccc    H30   2898 0.06178000   1.008000   ; qtot 59.570044
 2899         h1     58    ccc    H31   2899 0.11278000   1.008000   ; qtot 59.682824
 2900         h2     58    ccc    H32   2900 0.12178000   1.008000   ; qtot 59.804604
 2901         oh     58    ccc    O10   2901 -0.56972000  16.000000   ; qtot 59.234884
 2902         oh     58    ccc    O11   2902 -0.57772000  16.000000   ; qtot 58.657164
 2903         c3     58    ccc    C22   2903 0.14548000  12.010000   ; qtot 58.802644
 2904         ho     58    ccc    H33   2904 0.40508000   1.008000   ; qtot 59.207724
 2905         hn     58    ccc    H34   2905 0.31758000   1.008000   ; qtot 59.525304
 2906         h1     58    ccc    H35   2906 0.06278000   1.008000   ; qtot 59.588084
 2907         h1     58    ccc    H36   2907 0.06278000   1.008000   ; qtot 59.650864
 2908         oh     58    ccc    O12   2908 -0.59472000  16.000000   ; qtot 59.056144
 2909         ho     58    ccc    H37   2909 0.41908000   1.008000   ; qtot 59.475224
 2910         os     58    ccc    O13   2910 -0.44552000  16.000000   ; qtot 59.029704
 2911         ho     58    ccc    H38   2911 0.41908000   1.008000   ; qtot 59.448784
 2912         h1     58    ccc    H39   2912 0.08578000   1.008000   ; qtot 59.534564
 2913         oh     58    ccc     O5   2913 -0.58672000  16.000000   ; qtot 58.947844
 2914         ho     58    ccc    H40   2914 0.41908000   1.008000   ; qtot 59.366924
 2915         n3     58    ccc     N4   2915 -0.54282000  14.010000   ; qtot 58.824104
 2916         hn     58    ccc    H41   2916 0.17125500   1.008000   ; qtot 58.995359
; residue   59 ccc rtp ccc q 1.0
 2917          n     59    ccc     N1   2917 -0.33303000  14.010000   ; qtot 58.662329
 2918         hn     59    ccc     H4   2918 0.25916100   1.008000   ; qtot 58.921490
 2919         c3     59    ccc     C3   2919 -0.03328100  12.010000   ; qtot 58.888209
 2920         h1     59    ccc     H5   2920 0.10618100   1.008000   ; qtot 58.994390
 2921         c3     59    ccc     C4   2921 -0.02083000  12.010000   ; qtot 58.973560
 2922         h1     59    ccc     H6   2922 0.10618100   1.008000   ; qtot 59.079741
 2923         h1     59    ccc     H7   2923 0.07988000   1.008000   ; qtot 59.159621
 2924         h1     59    ccc     H8   2924 0.07988000   1.008000   ; qtot 59.239501
 2925         n4     59    ccc     N2   2925 -0.02747900  14.010000   ; qtot 59.212022
 2926         c3     59    ccc     C5   2926 -0.05097600  12.010000   ; qtot 59.161046
 2927         c3     59    ccc     C6   2927 -0.05097600  12.010000   ; qtot 59.110070
 2928         h1     59    ccc     H9   2928 0.11563300   1.008000   ; qtot 59.225703
 2929         c3     59    ccc     C7   2929 -0.18457900  12.010000   ; qtot 59.041124
 2930         h1     59    ccc    H10   2930 0.11563300   1.008000   ; qtot 59.156757
 2931         hc     59    ccc    H11   2931 0.08347900   1.008000   ; qtot 59.240236
 2932         hc     59    ccc    H12   2932 0.08347900   1.008000   ; qtot 59.323715
 2933          c     59    ccc     C8   2933 0.67254400  12.010000   ; qtot 59.996259
 2934          o     59    ccc     O2   2934 -0.52917200  16.000000   ; qtot 59.467087
 2935         h1     59    ccc    H13   2935 0.11563300   1.008000   ; qtot 59.582720
 2936         h1     59    ccc    H14   2936 0.11563300   1.008000   ; qtot 59.698353
 2937         c3     59    ccc     C9   2937 -0.18457900  12.010000   ; qtot 59.513774
 2938         hc     59    ccc    H15   2938 0.08347900   1.008000   ; qtot 59.597253
 2939         hc     59    ccc    H16   2939 0.08347900   1.008000   ; qtot 59.680732
 2940          c     59    ccc    C10   2940 0.67254400  12.010000   ; qtot 60.353276
 2941          o     59    ccc     O4   2941 -0.52917200  16.000000   ; qtot 59.824104
 2942         c3     59    ccc    C11   2942 0.08518000  12.010000   ; qtot 59.909284
 2943         c3     59    ccc    C12   2943 0.07918000  12.010000   ; qtot 59.988464
 2944         h1     59    ccc    H17   2944 0.06978000   1.008000   ; qtot 60.058244
 2945         c3     59    ccc    C13   2945 0.07918000  12.010000   ; qtot 60.137424
 2946         c3     59    ccc    C14   2946 0.03578000  12.010000   ; qtot 60.173204
 2947         c3     59    ccc    C15   2947 0.33498000  12.010000   ; qtot 60.508184
 2948         h1     59    ccc    H18   2948 0.06178000   1.008000   ; qtot 60.569964
 2949         h1     59    ccc    H19   2949 0.11278000   1.008000   ; qtot 60.682744
 2950         h2     59    ccc    H20   2950 0.12178000   1.008000   ; qtot 60.804524
 2951         oh     59    ccc     O1   2951 -0.56972000  16.000000   ; qtot 60.234804
 2952         oh     59    ccc     O6   2952 -0.57772000  16.000000   ; qtot 59.657084
 2953         c3     59    ccc    C16   2953 0.14548000  12.010000   ; qtot 59.802564
 2954         ho     59    ccc    H21   2954 0.40508000   1.008000   ; qtot 60.207644
 2955         hn     59    ccc    H22   2955 0.31758000   1.008000   ; qtot 60.525224
 2956         h1     59    ccc    H23   2956 0.06278000   1.008000   ; qtot 60.588004
 2957         h1     59    ccc    H24   2957 0.06278000   1.008000   ; qtot 60.650784
 2958         oh     59    ccc     O7   2958 -0.59472000  16.000000   ; qtot 60.056064
 2959         ho     59    ccc    H25   2959 0.41908000   1.008000   ; qtot 60.475144
 2960         os     59    ccc     O8   2960 -0.44552000  16.000000   ; qtot 60.029624
 2961         ho     59    ccc    H26   2961 0.41908000   1.008000   ; qtot 60.448704
 2962         h1     59    ccc    H27   2962 0.08578000   1.008000   ; qtot 60.534484
 2963         oh     59    ccc     O9   2963 -0.58672000  16.000000   ; qtot 59.947764
 2964         ho     59    ccc    H28   2964 0.41908000   1.008000   ; qtot 60.366844
 2965         n3     59    ccc     N3   2965 -0.54282000  14.010000   ; qtot 59.824024
 2966         c3     59    ccc    C17   2966 0.08518000  12.010000   ; qtot 59.909204
 2967         c3     59    ccc    C18   2967 0.07918000  12.010000   ; qtot 59.988384
 2968         h1     59    ccc    H29   2968 0.06978000   1.008000   ; qtot 60.058164
 2969         c3     59    ccc    C19   2969 0.07918000  12.010000   ; qtot 60.137344
 2970         c3     59    ccc    C20   2970 0.03578000  12.010000   ; qtot 60.173124
 2971         c3     59    ccc    C21   2971 0.33498000  12.010000   ; qtot 60.508104
 2972         h1     59    ccc    H30   2972 0.06178000   1.008000   ; qtot 60.569884
 2973         h1     59    ccc    H31   2973 0.11278000   1.008000   ; qtot 60.682664
 2974         h2     59    ccc    H32   2974 0.12178000   1.008000   ; qtot 60.804444
 2975         oh     59    ccc    O10   2975 -0.56972000  16.000000   ; qtot 60.234724
 2976         oh     59    ccc    O11   2976 -0.57772000  16.000000   ; qtot 59.657004
 2977         c3     59    ccc    C22   2977 0.14548000  12.010000   ; qtot 59.802484
 2978         ho     59    ccc    H33   2978 0.40508000   1.008000   ; qtot 60.207564
 2979         hn     59    ccc    H34   2979 0.31758000   1.008000   ; qtot 60.525144
 2980         h1     59    ccc    H35   2980 0.06278000   1.008000   ; qtot 60.587924
 2981         h1     59    ccc    H36   2981 0.06278000   1.008000   ; qtot 60.650704
 2982         oh     59    ccc    O12   2982 -0.59472000  16.000000   ; qtot 60.055984
 2983         ho     59    ccc    H37   2983 0.41908000   1.008000   ; qtot 60.475064
 2984         os     59    ccc    O13   2984 -0.44552000  16.000000   ; qtot 60.029544
 2985         ho     59    ccc    H38   2985 0.41908000   1.008000   ; qtot 60.448624
 2986         h1     59    ccc    H39   2986 0.08578000   1.008000   ; qtot 60.534404
 2987         oh     59    ccc     O5   2987 -0.58672000  16.000000   ; qtot 59.947684
 2988         ho     59    ccc    H40   2988 0.41908000   1.008000   ; qtot 60.366764
 2989         n3     59    ccc     N4   2989 -0.54282000  14.010000   ; qtot 59.823944
 2990         hn     59    ccc    H41   2990 0.17125500   1.008000   ; qtot 59.995199
; residue   60 ccc rtp ccc q 1.0
 2991          n     60    ccc     N1   2991 -0.33303000  14.010000   ; qtot 59.662169
 2992         hn     60    ccc     H4   2992 0.25916100   1.008000   ; qtot 59.921330
 2993         c3     60    ccc     C3   2993 -0.03328100  12.010000   ; qtot 59.888049
 2994         h1     60    ccc     H5   2994 0.10618100   1.008000   ; qtot 59.994230
 2995         c3     60    ccc     C4   2995 -0.02083000  12.010000   ; qtot 59.973400
 2996         h1     60    ccc     H6   2996 0.10618100   1.008000   ; qtot 60.079581
 2997         h1     60    ccc     H7   2997 0.07988000   1.008000   ; qtot 60.159461
 2998         h1     60    ccc     H8   2998 0.07988000   1.008000   ; qtot 60.239341
 2999         n4     60    ccc     N2   2999 -0.02747900  14.010000   ; qtot 60.211862
 3000         c3     60    ccc     C5   3000 -0.05097600  12.010000   ; qtot 60.160886
 3001         c3     60    ccc     C6   3001 -0.05097600  12.010000   ; qtot 60.109910
 3002         h1     60    ccc     H9   3002 0.11563300   1.008000   ; qtot 60.225543
 3003         c3     60    ccc     C7   3003 -0.18457900  12.010000   ; qtot 60.040964
 3004         h1     60    ccc    H10   3004 0.11563300   1.008000   ; qtot 60.156597
 3005         hc     60    ccc    H11   3005 0.08347900   1.008000   ; qtot 60.240076
 3006         hc     60    ccc    H12   3006 0.08347900   1.008000   ; qtot 60.323555
 3007          c     60    ccc     C8   3007 0.67254400  12.010000   ; qtot 60.996099
 3008          o     60    ccc     O2   3008 -0.52917200  16.000000   ; qtot 60.466927
 3009         h1     60    ccc    H13   3009 0.11563300   1.008000   ; qtot 60.582560
 3010         h1     60    ccc    H14   3010 0.11563300   1.008000   ; qtot 60.698193
 3011         c3     60    ccc     C9   3011 -0.18457900  12.010000   ; qtot 60.513614
 3012         hc     60    ccc    H15   3012 0.08347900   1.008000   ; qtot 60.597093
 3013         hc     60    ccc    H16   3013 0.08347900   1.008000   ; qtot 60.680572
 3014          c     60    ccc    C10   3014 0.67254400  12.010000   ; qtot 61.353116
 3015          o     60    ccc     O4   3015 -0.52917200  16.000000   ; qtot 60.823944
 3016         c3     60    ccc    C11   3016 0.08518000  12.010000   ; qtot 60.909124
 3017         c3     60    ccc    C12   3017 0.07918000  12.010000   ; qtot 60.988304
 3018         h1     60    ccc    H17   3018 0.06978000   1.008000   ; qtot 61.058084
 3019         c3     60    ccc    C13   3019 0.07918000  12.010000   ; qtot 61.137264
 3020         c3     60    ccc    C14   3020 0.03578000  12.010000   ; qtot 61.173044
 3021         c3     60    ccc    C15   3021 0.33498000  12.010000   ; qtot 61.508024
 3022         h1     60    ccc    H18   3022 0.06178000   1.008000   ; qtot 61.569804
 3023         h1     60    ccc    H19   3023 0.11278000   1.008000   ; qtot 61.682584
 3024         h2     60    ccc    H20   3024 0.12178000   1.008000   ; qtot 61.804364
 3025         oh     60    ccc     O1   3025 -0.56972000  16.000000   ; qtot 61.234644
 3026         oh     60    ccc     O6   3026 -0.57772000  16.000000   ; qtot 60.656924
 3027         c3     60    ccc    C16   3027 0.14548000  12.010000   ; qtot 60.802404
 3028         ho     60    ccc    H21   3028 0.40508000   1.008000   ; qtot 61.207484
 3029         hn     60    ccc    H22   3029 0.31758000   1.008000   ; qtot 61.525064
 3030         h1     60    ccc    H23   3030 0.06278000   1.008000   ; qtot 61.587844
 3031         h1     60    ccc    H24   3031 0.06278000   1.008000   ; qtot 61.650624
 3032         oh     60    ccc     O7   3032 -0.59472000  16.000000   ; qtot 61.055904
 3033         ho     60    ccc    H25   3033 0.41908000   1.008000   ; qtot 61.474984
 3034         os     60    ccc     O8   3034 -0.44552000  16.000000   ; qtot 61.029464
 3035         ho     60    ccc    H26   3035 0.41908000   1.008000   ; qtot 61.448544
 3036         h1     60    ccc    H27   3036 0.08578000   1.008000   ; qtot 61.534324
 3037         oh     60    ccc     O9   3037 -0.58672000  16.000000   ; qtot 60.947604
 3038         ho     60    ccc    H28   3038 0.41908000   1.008000   ; qtot 61.366684
 3039         n3     60    ccc     N3   3039 -0.54282000  14.010000   ; qtot 60.823864
 3040         c3     60    ccc    C17   3040 0.08518000  12.010000   ; qtot 60.909044
 3041         c3     60    ccc    C18   3041 0.07918000  12.010000   ; qtot 60.988224
 3042         h1     60    ccc    H29   3042 0.06978000   1.008000   ; qtot 61.058004
 3043         c3     60    ccc    C19   3043 0.07918000  12.010000   ; qtot 61.137184
 3044         c3     60    ccc    C20   3044 0.03578000  12.010000   ; qtot 61.172964
 3045         c3     60    ccc    C21   3045 0.33498000  12.010000   ; qtot 61.507944
 3046         h1     60    ccc    H30   3046 0.06178000   1.008000   ; qtot 61.569724
 3047         h1     60    ccc    H31   3047 0.11278000   1.008000   ; qtot 61.682504
 3048         h2     60    ccc    H32   3048 0.12178000   1.008000   ; qtot 61.804284
 3049         oh     60    ccc    O10   3049 -0.56972000  16.000000   ; qtot 61.234564
 3050         oh     60    ccc    O11   3050 -0.57772000  16.000000   ; qtot 60.656844
 3051         c3     60    ccc    C22   3051 0.14548000  12.010000   ; qtot 60.802324
 3052         ho     60    ccc    H33   3052 0.40508000   1.008000   ; qtot 61.207404
 3053         hn     60    ccc    H34   3053 0.31758000   1.008000   ; qtot 61.524984
 3054         h1     60    ccc    H35   3054 0.06278000   1.008000   ; qtot 61.587764
 3055         h1     60    ccc    H36   3055 0.06278000   1.008000   ; qtot 61.650544
 3056         oh     60    ccc    O12   3056 -0.59472000  16.000000   ; qtot 61.055824
 3057         ho     60    ccc    H37   3057 0.41908000   1.008000   ; qtot 61.474904
 3058         os     60    ccc    O13   3058 -0.44552000  16.000000   ; qtot 61.029384
 3059         ho     60    ccc    H38   3059 0.41908000   1.008000   ; qtot 61.448464
 3060         h1     60    ccc    H39   3060 0.08578000   1.008000   ; qtot 61.534244
 3061         oh     60    ccc     O5   3061 -0.58672000  16.000000   ; qtot 60.947524
 3062         ho     60    ccc    H40   3062 0.41908000   1.008000   ; qtot 61.366604
 3063         n3     60    ccc     N4   3063 -0.54282000  14.010000   ; qtot 60.823784
 3064         hn     60    ccc    H41   3064 0.17125500   1.008000   ; qtot 60.995039
; residue   61 ccc rtp ccc q 1.0
 3065          n     61    ccc     N1   3065 -0.33303000  14.010000   ; qtot 60.662009
 3066         hn     61    ccc     H4   3066 0.25916100   1.008000   ; qtot 60.921170
 3067         c3     61    ccc     C3   3067 -0.03328100  12.010000   ; qtot 60.887889
 3068         h1     61    ccc     H5   3068 0.10618100   1.008000   ; qtot 60.994070
 3069         c3     61    ccc     C4   3069 -0.02083000  12.010000   ; qtot 60.973240
 3070         h1     61    ccc     H6   3070 0.10618100   1.008000   ; qtot 61.079421
 3071         h1     61    ccc     H7   3071 0.07988000   1.008000   ; qtot 61.159301
 3072         h1     61    ccc     H8   3072 0.07988000   1.008000   ; qtot 61.239181
 3073         n4     61    ccc     N2   3073 -0.02747900  14.010000   ; qtot 61.211702
 3074         c3     61    ccc     C5   3074 -0.05097600  12.010000   ; qtot 61.160726
 3075         c3     61    ccc     C6   3075 -0.05097600  12.010000   ; qtot 61.109750
 3076         h1     61    ccc     H9   3076 0.11563300   1.008000   ; qtot 61.225383
 3077         c3     61    ccc     C7   3077 -0.18457900  12.010000   ; qtot 61.040804
 3078         h1     61    ccc    H10   3078 0.11563300   1.008000   ; qtot 61.156437
 3079         hc     61    ccc    H11   3079 0.08347900   1.008000   ; qtot 61.239916
 3080         hc     61    ccc    H12   3080 0.08347900   1.008000   ; qtot 61.323395
 3081          c     61    ccc     C8   3081 0.67254400  12.010000   ; qtot 61.995939
 3082          o     61    ccc     O2   3082 -0.52917200  16.000000   ; qtot 61.466767
 3083         h1     61    ccc    H13   3083 0.11563300   1.008000   ; qtot 61.582400
 3084         h1     61    ccc    H14   3084 0.11563300   1.008000   ; qtot 61.698033
 3085         c3     61    ccc     C9   3085 -0.18457900  12.010000   ; qtot 61.513454
 3086         hc     61    ccc    H15   3086 0.08347900   1.008000   ; qtot 61.596933
 3087         hc     61    ccc    H16   3087 0.08347900   1.008000   ; qtot 61.680412
 3088          c     61    ccc    C10   3088 0.67254400  12.010000   ; qtot 62.352956
 3089          o     61    ccc     O4   3089 -0.52917200  16.000000   ; qtot 61.823784
 3090         c3     61    ccc    C11   3090 0.08518000  12.010000   ; qtot 61.908964
 3091         c3     61    ccc    C12   3091 0.07918000  12.010000   ; qtot 61.988144
 3092         h1     61    ccc    H17   3092 0.06978000   1.008000   ; qtot 62.057924
 3093         c3     61    ccc    C13   3093 0.07918000  12.010000   ; qtot 62.137104
 3094         c3     61    ccc    C14   3094 0.03578000  12.010000   ; qtot 62.172884
 3095         c3     61    ccc    C15   3095 0.33498000  12.010000   ; qtot 62.507864
 3096         h1     61    ccc    H18   3096 0.06178000   1.008000   ; qtot 62.569644
 3097         h1     61    ccc    H19   3097 0.11278000   1.008000   ; qtot 62.682424
 3098         h2     61    ccc    H20   3098 0.12178000   1.008000   ; qtot 62.804204
 3099         oh     61    ccc     O1   3099 -0.56972000  16.000000   ; qtot 62.234484
 3100         oh     61    ccc     O6   3100 -0.57772000  16.000000   ; qtot 61.656764
 3101         c3     61    ccc    C16   3101 0.14548000  12.010000   ; qtot 61.802244
 3102         ho     61    ccc    H21   3102 0.40508000   1.008000   ; qtot 62.207324
 3103         hn     61    ccc    H22   3103 0.31758000   1.008000   ; qtot 62.524904
 3104         h1     61    ccc    H23   3104 0.06278000   1.008000   ; qtot 62.587684
 3105         h1     61    ccc    H24   3105 0.06278000   1.008000   ; qtot 62.650464
 3106         oh     61    ccc     O7   3106 -0.59472000  16.000000   ; qtot 62.055744
 3107         ho     61    ccc    H25   3107 0.41908000   1.008000   ; qtot 62.474824
 3108         os     61    ccc     O8   3108 -0.44552000  16.000000   ; qtot 62.029304
 3109         ho     61    ccc    H26   3109 0.41908000   1.008000   ; qtot 62.448384
 3110         h1     61    ccc    H27   3110 0.08578000   1.008000   ; qtot 62.534164
 3111         oh     61    ccc     O9   3111 -0.58672000  16.000000   ; qtot 61.947444
 3112         ho     61    ccc    H28   3112 0.41908000   1.008000   ; qtot 62.366524
 3113         n3     61    ccc     N3   3113 -0.54282000  14.010000   ; qtot 61.823704
 3114         c3     61    ccc    C17   3114 0.08518000  12.010000   ; qtot 61.908884
 3115         c3     61    ccc    C18   3115 0.07918000  12.010000   ; qtot 61.988064
 3116         h1     61    ccc    H29   3116 0.06978000   1.008000   ; qtot 62.057844
 3117         c3     61    ccc    C19   3117 0.07918000  12.010000   ; qtot 62.137024
 3118         c3     61    ccc    C20   3118 0.03578000  12.010000   ; qtot 62.172804
 3119         c3     61    ccc    C21   3119 0.33498000  12.010000   ; qtot 62.507784
 3120         h1     61    ccc    H30   3120 0.06178000   1.008000   ; qtot 62.569564
 3121         h1     61    ccc    H31   3121 0.11278000   1.008000   ; qtot 62.682344
 3122         h2     61    ccc    H32   3122 0.12178000   1.008000   ; qtot 62.804124
 3123         oh     61    ccc    O10   3123 -0.56972000  16.000000   ; qtot 62.234404
 3124         oh     61    ccc    O11   3124 -0.57772000  16.000000   ; qtot 61.656684
 3125         c3     61    ccc    C22   3125 0.14548000  12.010000   ; qtot 61.802164
 3126         ho     61    ccc    H33   3126 0.40508000   1.008000   ; qtot 62.207244
 3127         hn     61    ccc    H34   3127 0.31758000   1.008000   ; qtot 62.524824
 3128         h1     61    ccc    H35   3128 0.06278000   1.008000   ; qtot 62.587604
 3129         h1     61    ccc    H36   3129 0.06278000   1.008000   ; qtot 62.650384
 3130         oh     61    ccc    O12   3130 -0.59472000  16.000000   ; qtot 62.055664
 3131         ho     61    ccc    H37   3131 0.41908000   1.008000   ; qtot 62.474744
 3132         os     61    ccc    O13   3132 -0.44552000  16.000000   ; qtot 62.029224
 3133         ho     61    ccc    H38   3133 0.41908000   1.008000   ; qtot 62.448304
 3134         h1     61    ccc    H39   3134 0.08578000   1.008000   ; qtot 62.534084
 3135         oh     61    ccc     O5   3135 -0.58672000  16.000000   ; qtot 61.947364
 3136         ho     61    ccc    H40   3136 0.41908000   1.008000   ; qtot 62.366444
 3137         n3     61    ccc     N4   3137 -0.54282000  14.010000   ; qtot 61.823624
 3138         hn     61    ccc    H41   3138 0.17125500   1.008000   ; qtot 61.994879

[ bonds ]
;    ai     aj funct         c0         c1         c2         c3
      1      2     1   0.15110 237065.440000
      1      7     1   0.15110 237065.440000
      1      8     1   0.15110 237065.440000
      2      3     1   0.15375 251793.120000
      3      4     1   0.15110 237065.440000
      4      5     1   0.15110 237065.440000
      4      6     1   0.15110 237065.440000
      5     11     1   0.15375 251793.120000
      6      9     1   0.15375 251793.120000
      7     13     1   0.15375 251793.120000
      8     15     1   0.15375 251793.120000
      9     10     1   0.15241 261918.400000
     10     18     1   0.12183 533627.360000
     10     52     1   0.13789 357815.680000
     11     12     1   0.15241 261918.400000
     12     17     1   0.12183 533627.360000
     12     78     1   0.13789 357815.680000
     13     14     1   0.15241 261918.400000
     14     20     1   0.12183 533627.360000
     14    104     1   0.13789 357815.680000
     15     16     1   0.15241 261918.400000
     16     19     1   0.12183 533627.360000
     16    130     1   0.13789 357815.680000
     43     44     1   0.15110 237065.440000
     43     45     1   0.15110 237065.440000
     43     50     1   0.15110 237065.440000
     44     46     1   0.15375 251793.120000
     45     48     1   0.15375 251793.120000
     46     47     1   0.15241 261918.400000
     47     53     1   0.12183 533627.360000
     47    156     1   0.13789 357815.680000
     48     49     1   0.15241 261918.400000
     49     54     1   0.12183 533627.360000
     49    182     1   0.13789 357815.680000
     50     51     1   0.15375 251793.120000
     51     52     1   0.14619 275056.160000
     69     70     1   0.15110 237065.440000
     69     71     1   0.15110 237065.440000
     69     76     1   0.15110 237065.440000
     70     72     1   0.15375 251793.120000
     71     74     1   0.15375 251793.120000
     72     73     1   0.15241 261918.400000
     73     79     1   0.12183 533627.360000
     73    208     1   0.13789 357815.680000
     74     75     1   0.15241 261918.400000
     75     80     1   0.12183 533627.360000
     75    234     1   0.13789 357815.680000
     76     77     1   0.15375 251793.120000
     77     78     1   0.14619 275056.160000
     95     96     1   0.15110 237065.440000
     95     97     1   0.15110 237065.440000
     95    102     1   0.15110 237065.440000
     96     98     1   0.15375 251793.120000
     97    100     1   0.15375 251793.120000
     98     99     1   0.15241 261918.400000
     99    105     1   0.12183 533627.360000
     99    260     1   0.13789 357815.680000
    100    101     1   0.15241 261918.400000
    101    106     1   0.12183 533627.360000
    101    286     1   0.13789 357815.680000
    102    103     1   0.15375 251793.120000
    103    104     1   0.14619 275056.160000
    121    122     1   0.15110 237065.440000
    121    123     1   0.15110 237065.440000
    121    128     1   0.15110 237065.440000
    122    124     1   0.15375 251793.120000
    123    126     1   0.15375 251793.120000
    124    125     1   0.15241 261918.400000
    125    131     1   0.12183 533627.360000
    125    312     1   0.13789 357815.680000
    126    127     1   0.15241 261918.400000
    127    132     1   0.12183 533627.360000
    127    338     1   0.13789 357815.680000
    128    129     1   0.15375 251793.120000
    129    130     1   0.14619 275056.160000
    147    148     1   0.15110 237065.440000
    147    149     1   0.15110 237065.440000
    147    154     1   0.15110 237065.440000
    148    150     1   0.15375 251793.120000
    149    152     1   0.15375 251793.120000
    150    151     1   0.15241 261918.400000
    151    157     1   0.12183 533627.360000
    151    364     1   0.13789 357815.680000
    152    153     1   0.15241 261918.400000
    153    158     1   0.12183 533627.360000
    153    390     1   0.13789 357815.680000
    154    155     1   0.15375 251793.120000
    155    156     1   0.14619 275056.160000
    173    174     1   0.15110 237065.440000
    173    175     1   0.15110 237065.440000
    173    180     1   0.15110 237065.440000
    174    176     1   0.15375 251793.120000
    175    178     1   0.15375 251793.120000
    176    177     1   0.15241 261918.400000
    177    183     1   0.12183 533627.360000
    177    416     1   0.13789 357815.680000
    178    179     1   0.15241 261918.400000
    179    184     1   0.12183 533627.360000
    179    442     1   0.13789 357815.680000
    180    181     1   0.15375 251793.120000
    181    182     1   0.14619 275056.160000
    199    200     1   0.15110 237065.440000
    199    201     1   0.15110 237065.440000
    199    206     1   0.15110 237065.440000
    200    202     1   0.15375 251793.120000
    201    204     1   0.15375 251793.120000
    202    203     1   0.15241 261918.400000
    203    209     1   0.12183 533627.360000
    203    468     1   0.13789 357815.680000
    204    205     1   0.15241 261918.400000
    205    210     1   0.12183 533627.360000
    205    494     1   0.13789 357815.680000
    206    207     1   0.15375 251793.120000
    207    208     1   0.14619 275056.160000
    225    226     1   0.15110 237065.440000
    225    227     1   0.15110 237065.440000
    225    232     1   0.15110 237065.440000
    226    228     1   0.15375 251793.120000
    227    230     1   0.15375 251793.120000
    228    229     1   0.15241 261918.400000
    229    235     1   0.12183 533627.360000
    229    520     1   0.13789 357815.680000
    230    231     1   0.15241 261918.400000
    231    236     1   0.12183 533627.360000
    231    546     1   0.13789 357815.680000
    232    233     1   0.15375 251793.120000
    233    234     1   0.14619 275056.160000
    251    252     1   0.15110 237065.440000
    251    253     1   0.15110 237065.440000
    251    258     1   0.15110 237065.440000
    252    254     1   0.15375 251793.120000
    253    256     1   0.15375 251793.120000
    254    255     1   0.15241 261918.400000
    255    261     1   0.12183 533627.360000
    255    572     1   0.13789 357815.680000
    256    257     1   0.15241 261918.400000
    257    262     1   0.12183 533627.360000
    257    598     1   0.13789 357815.680000
    258    259     1   0.15375 251793.120000
    259    260     1   0.14619 275056.160000
    277    278     1   0.15110 237065.440000
    277    279     1   0.15110 237065.440000
    277    284     1   0.15110 237065.440000
    278    280     1   0.15375 251793.120000
    279    282     1   0.15375 251793.120000
    280    281     1   0.15241 261918.400000
    281    287     1   0.12183 533627.360000
    281    624     1   0.13789 357815.680000
    282    283     1   0.15241 261918.400000
    283    288     1   0.12183 533627.360000
    283    650     1   0.13789 357815.680000
    284    285     1   0.15375 251793.120000
    285    286     1   0.14619 275056.160000
    303    304     1   0.15110 237065.440000
    303    305     1   0.15110 237065.440000
    303    310     1   0.15110 237065.440000
    304    306     1   0.15375 251793.120000
    305    308     1   0.15375 251793.120000
    306    307     1   0.15241 261918.400000
    307    313     1   0.12183 533627.360000
    307    676     1   0.13789 357815.680000
    308    309     1   0.15241 261918.400000
    309    314     1   0.12183 533627.360000
    309    702     1   0.13789 357815.680000
    310    311     1   0.15375 251793.120000
    311    312     1   0.14619 275056.160000
    329    330     1   0.15110 237065.440000
    329    331     1   0.15110 237065.440000
    329    336     1   0.15110 237065.440000
    330    332     1   0.15375 251793.120000
    331    334     1   0.15375 251793.120000
    332    333     1   0.15241 261918.400000
    333    339     1   0.12183 533627.360000
    333    728     1   0.13789 357815.680000
    334    335     1   0.15241 261918.400000
    335    340     1   0.12183 533627.360000
    335    754     1   0.13789 357815.680000
    336    337     1   0.15375 251793.120000
    337    338     1   0.14619 275056.160000
    355    356     1   0.15110 237065.440000
    355    357     1   0.15110 237065.440000
    355    362     1   0.15110 237065.440000
    356    358     1   0.15375 251793.120000
    357    360     1   0.15375 251793.120000
    358    359     1   0.15241 261918.400000
    359    771     1   0.13789 357815.680000
    359    365     1   0.12183 533627.360000
    360    361     1   0.15241 261918.400000
    361    366     1   0.12183 533627.360000
    361    845     1   0.13789 357815.680000
    362    363     1   0.15375 251793.120000
    363    364     1   0.14619 275056.160000
    381    382     1   0.15110 237065.440000
    381    383     1   0.15110 237065.440000
    381    388     1   0.15110 237065.440000
    382    384     1   0.15375 251793.120000
    383    386     1   0.15375 251793.120000
    384    385     1   0.15241 261918.400000
    385    919     1   0.13789 357815.680000
    385    391     1   0.12183 533627.360000
    386    387     1   0.15241 261918.400000
    387    392     1   0.12183 533627.360000
    387    993     1   0.13789 357815.680000
    388    389     1   0.15375 251793.120000
    389    390     1   0.14619 275056.160000
    407    408     1   0.15110 237065.440000
    407    409     1   0.15110 237065.440000
    407    414     1   0.15110 237065.440000
    408    410     1   0.15375 251793.120000
    409    412     1   0.15375 251793.120000
    410    411     1   0.15241 261918.400000
    411   1067     1   0.13789 357815.680000
    411    417     1   0.12183 533627.360000
    412    413     1   0.15241 261918.400000
    413    418     1   0.12183 533627.360000
    413   1141     1   0.13789 357815.680000
    414    415     1   0.15375 251793.120000
    415    416     1   0.14619 275056.160000
    433    434     1   0.15110 237065.440000
    433    435     1   0.15110 237065.440000
    433    440     1   0.15110 237065.440000
    434    436     1   0.15375 251793.120000
    435    438     1   0.15375 251793.120000
    436    437     1   0.15241 261918.400000
    437   1215     1   0.13789 357815.680000
    437    443     1   0.12183 533627.360000
    438    439     1   0.15241 261918.400000
    439    444     1   0.12183 533627.360000
    439   1289     1   0.13789 357815.680000
    440    441     1   0.15375 251793.120000
    441    442     1   0.14619 275056.160000
    459    460     1   0.15110 237065.440000
    459    461     1   0.15110 237065.440000
    459    466     1   0.15110 237065.440000
    460    462     1   0.15375 251793.120000
    461    464     1   0.15375 251793.120000
    462    463     1   0.15241 261918.400000
    463   1363     1   0.13789 357815.680000
    463    469     1   0.12183 533627.360000
    464    465     1   0.15241 261918.400000
    465    470     1   0.12183 533627.360000
    465   1437     1   0.13789 357815.680000
    466    467     1   0.15375 251793.120000
    467    468     1   0.14619 275056.160000
    485    486     1   0.15110 237065.440000
    485    487     1   0.15110 237065.440000
    485    492     1   0.15110 237065.440000
    486    488     1   0.15375 251793.120000
    487    490     1   0.15375 251793.120000
    488    489     1   0.15241 261918.400000
    489   1511     1   0.13789 357815.680000
    489    495     1   0.12183 533627.360000
    490    491     1   0.15241 261918.400000
    491    496     1   0.12183 533627.360000
    491   1585     1   0.13789 357815.680000
    492    493     1   0.15375 251793.120000
    493    494     1   0.14619 275056.160000
    511    512     1   0.15110 237065.440000
    511    513     1   0.15110 237065.440000
    511    518     1   0.15110 237065.440000
    512    514     1   0.15375 251793.120000
    513    516     1   0.15375 251793.120000
    514    515     1   0.15241 261918.400000
    515   1659     1   0.13789 357815.680000
    515    521     1   0.12183 533627.360000
    516    517     1   0.15241 261918.400000
    517    522     1   0.12183 533627.360000
    517   1733     1   0.13789 357815.680000
    518    519     1   0.15375 251793.120000
    519    520     1   0.14619 275056.160000
    537    538     1   0.15110 237065.440000
    537    539     1   0.15110 237065.440000
    537    544     1   0.15110 237065.440000
    538    540     1   0.15375 251793.120000
    539    542     1   0.15375 251793.120000
    540    541     1   0.15241 261918.400000
    541   1807     1   0.13789 357815.680000
    541    547     1   0.12183 533627.360000
    542    543     1   0.15241 261918.400000
    543    548     1   0.12183 533627.360000
    543   1881     1   0.13789 357815.680000
    544    545     1   0.15375 251793.120000
    545    546     1   0.14619 275056.160000
    563    564     1   0.15110 237065.440000
    563    565     1   0.15110 237065.440000
    563    570     1   0.15110 237065.440000
    564    566     1   0.15375 251793.120000
    565    568     1   0.15375 251793.120000
    566    567     1   0.15241 261918.400000
    567   1955     1   0.13789 357815.680000
    567    573     1   0.12183 533627.360000
    568    569     1   0.15241 261918.400000
    569    574     1   0.12183 533627.360000
    569   2029     1   0.13789 357815.680000
    570    571     1   0.15375 251793.120000
    571    572     1   0.14619 275056.160000
    589    590     1   0.15110 237065.440000
    589    591     1   0.15110 237065.440000
    589    596     1   0.15110 237065.440000
    590    592     1   0.15375 251793.120000
    591    594     1   0.15375 251793.120000
    592    593     1   0.15241 261918.400000
    593   2103     1   0.13789 357815.680000
    593    599     1   0.12183 533627.360000
    594    595     1   0.15241 261918.400000
    595    600     1   0.12183 533627.360000
    595   2177     1   0.13789 357815.680000
    596    597     1   0.15375 251793.120000
    597    598     1   0.14619 275056.160000
    615    616     1   0.15110 237065.440000
    615    617     1   0.15110 237065.440000
    615    622     1   0.15110 237065.440000
    616    618     1   0.15375 251793.120000
    617    620     1   0.15375 251793.120000
    618    619     1   0.15241 261918.400000
    619   2251     1   0.13789 357815.680000
    619    625     1   0.12183 533627.360000
    620    621     1   0.15241 261918.400000
    621    626     1   0.12183 533627.360000
    621   2325     1   0.13789 357815.680000
    622    623     1   0.15375 251793.120000
    623    624     1   0.14619 275056.160000
    641    642     1   0.15110 237065.440000
    641    643     1   0.15110 237065.440000
    641    648     1   0.15110 237065.440000
    642    644     1   0.15375 251793.120000
    643    646     1   0.15375 251793.120000
    644    645     1   0.15241 261918.400000
    645   2399     1   0.13789 357815.680000
    645    651     1   0.12183 533627.360000
    646    647     1   0.15241 261918.400000
    647    652     1   0.12183 533627.360000
    647   2473     1   0.13789 357815.680000
    648    649     1   0.15375 251793.120000
    649    650     1   0.14619 275056.160000
    667    668     1   0.15110 237065.440000
    667    669     1   0.15110 237065.440000
    667    674     1   0.15110 237065.440000
    668    670     1   0.15375 251793.120000
    669    672     1   0.15375 251793.120000
    670    671     1   0.15241 261918.400000
    671   2547     1   0.13789 357815.680000
    671    677     1   0.12183 533627.360000
    672    673     1   0.15241 261918.400000
    673    678     1   0.12183 533627.360000
    673   2621     1   0.13789 357815.680000
    674    675     1   0.15375 251793.120000
    675    676     1   0.14619 275056.160000
    693    694     1   0.15110 237065.440000
    693    695     1   0.15110 237065.440000
    693    700     1   0.15110 237065.440000
    694    696     1   0.15375 251793.120000
    695    698     1   0.15375 251793.120000
    696    697     1   0.15241 261918.400000
    697   2695     1   0.13789 357815.680000
    697    703     1   0.12183 533627.360000
    698    699     1   0.15241 261918.400000
    699    704     1   0.12183 533627.360000
    699   2769     1   0.13789 357815.680000
    700    701     1   0.15375 251793.120000
    701    702     1   0.14619 275056.160000
    719    720     1   0.15110 237065.440000
    719    721     1   0.15110 237065.440000
    719    726     1   0.15110 237065.440000
    720    722     1   0.15375 251793.120000
    721    724     1   0.15375 251793.120000
    722    723     1   0.15241 261918.400000
    723   2843     1   0.13789 357815.680000
    723    729     1   0.12183 533627.360000
    724    725     1   0.15241 261918.400000
    725    730     1   0.12183 533627.360000
    725   2917     1   0.13789 357815.680000
    726    727     1   0.15375 251793.120000
    727    728     1   0.14619 275056.160000
    745    746     1   0.15110 237065.440000
    745    747     1   0.15110 237065.440000
    745    752     1   0.15110 237065.440000
    746    748     1   0.15375 251793.120000
    747    750     1   0.15375 251793.120000
    748    749     1   0.15241 261918.400000
    749   2991     1   0.13789 357815.680000
    749    755     1   0.12183 533627.360000
    750    751     1   0.15241 261918.400000
    751   3065     1   0.13789 357815.680000
    751    756     1   0.12183 533627.360000
    752    753     1   0.15375 251793.120000
    753    754     1   0.14619 275056.160000
    771    773     1   0.14619 275056.160000
    773    775     1   0.15375 251793.120000
    775    779     1   0.15110 237065.440000
    779    780     1   0.15110 237065.440000
    779    781     1   0.15110 237065.440000
    780    791     1   0.15375 251793.120000
    781    783     1   0.15375 251793.120000
    783    787     1   0.15241 261918.400000
    787    788     1   0.12183 533627.360000
    787    819     1   0.13400 406935.840000
    791    794     1   0.15241 261918.400000
    794    795     1   0.12183 533627.360000
    794    843     1   0.13400 406935.840000
    796    797     1   0.15375 251793.120000
    796    807     1   0.15375 251793.120000
    796    814     1   0.14316 258236.480000
    797    799     1   0.15375 251793.120000
    797    817     1   0.14233 265014.560000
    799    800     1   0.15375 251793.120000
    799    806     1   0.14233 265014.560000
    800    801     1   0.15375 251793.120000
    800    819     1   0.14647 272713.120000
    801    805     1   0.14233 265014.560000
    801    814     1   0.14316 258236.480000
    807    812     1   0.14233 265014.560000
    820    821     1   0.15375 251793.120000
    820    831     1   0.15375 251793.120000
    820    838     1   0.14316 258236.480000
    821    823     1   0.15375 251793.120000
    821    841     1   0.14233 265014.560000
    823    824     1   0.15375 251793.120000
    823    830     1   0.14233 265014.560000
    824    825     1   0.15375 251793.120000
    824    843     1   0.14647 272713.120000
    825    829     1   0.14233 265014.560000
    825    838     1   0.14316 258236.480000
    831    836     1   0.14233 265014.560000
    845    847     1   0.14619 275056.160000
    847    849     1   0.15375 251793.120000
    849    853     1   0.15110 237065.440000
    853    854     1   0.15110 237065.440000
    853    855     1   0.15110 237065.440000
    854    865     1   0.15375 251793.120000
    855    857     1   0.15375 251793.120000
    857    861     1   0.15241 261918.400000
    861    862     1   0.12183 533627.360000
    861    893     1   0.13400 406935.840000
    865    868     1   0.15241 261918.400000
    868    869     1   0.12183 533627.360000
    868    917     1   0.13400 406935.840000
    870    871     1   0.15375 251793.120000
    870    881     1   0.15375 251793.120000
    870    888     1   0.14316 258236.480000
    871    873     1   0.15375 251793.120000
    871    891     1   0.14233 265014.560000
    873    874     1   0.15375 251793.120000
    873    880     1   0.14233 265014.560000
    874    875     1   0.15375 251793.120000
    874    893     1   0.14647 272713.120000
    875    879     1   0.14233 265014.560000
    875    888     1   0.14316 258236.480000
    881    886     1   0.14233 265014.560000
    894    895     1   0.15375 251793.120000
    894    905     1   0.15375 251793.120000
    894    912     1   0.14316 258236.480000
    895    897     1   0.15375 251793.120000
    895    915     1   0.14233 265014.560000
    897    898     1   0.15375 251793.120000
    897    904     1   0.14233 265014.560000
    898    899     1   0.15375 251793.120000
    898    917     1   0.14647 272713.120000
    899    903     1   0.14233 265014.560000
    899    912     1   0.14316 258236.480000
    905    910     1   0.14233 265014.560000
    919    921     1   0.14619 275056.160000
    921    923     1   0.15375 251793.120000
    923    927     1   0.15110 237065.440000
    927    928     1   0.15110 237065.440000
    927    929     1   0.15110 237065.440000
    928    939     1   0.15375 251793.120000
    929    931     1   0.15375 251793.120000
    931    935     1   0.15241 261918.400000
    935    936     1   0.12183 533627.360000
    935    967     1   0.13400 406935.840000
    939    942     1   0.15241 261918.400000
    942    943     1   0.12183 533627.360000
    942    991     1   0.13400 406935.840000
    944    945     1   0.15375 251793.120000
    944    955     1   0.15375 251793.120000
    944    962     1   0.14316 258236.480000
    945    947     1   0.15375 251793.120000
    945    965     1   0.14233 265014.560000
    947    948     1   0.15375 251793.120000
    947    954     1   0.14233 265014.560000
    948    949     1   0.15375 251793.120000
    948    967     1   0.14647 272713.120000
    949    953     1   0.14233 265014.560000
    949    962     1   0.14316 258236.480000
    955    960     1   0.14233 265014.560000
    968    969     1   0.15375 251793.120000
    968    979     1   0.15375 251793.120000
    968    986     1   0.14316 258236.480000
    969    971     1   0.15375 251793.120000
    969    989     1   0.14233 265014.560000
    971    972     1   0.15375 251793.120000
    971    978     1   0.14233 265014.560000
    972    973     1   0.15375 251793.120000
    972    991     1   0.14647 272713.120000
    973    977     1   0.14233 265014.560000
    973    986     1   0.14316 258236.480000
    979    984     1   0.14233 265014.560000
    993    995     1   0.14619 275056.160000
    995    997     1   0.15375 251793.120000
    997   1001     1   0.15110 237065.440000
   1001   1002     1   0.15110 237065.440000
   1001   1003     1   0.15110 237065.440000
   1002   1013     1   0.15375 251793.120000
   1003   1005     1   0.15375 251793.120000
   1005   1009     1   0.15241 261918.400000
   1009   1010     1   0.12183 533627.360000
   1009   1041     1   0.13400 406935.840000
   1013   1016     1   0.15241 261918.400000
   1016   1017     1   0.12183 533627.360000
   1016   1065     1   0.13400 406935.840000
   1018   1019     1   0.15375 251793.120000
   1018   1029     1   0.15375 251793.120000
   1018   1036     1   0.14316 258236.480000
   1019   1021     1   0.15375 251793.120000
   1019   1039     1   0.14233 265014.560000
   1021   1022     1   0.15375 251793.120000
   1021   1028     1   0.14233 265014.560000
   1022   1023     1   0.15375 251793.120000
   1022   1041     1   0.14647 272713.120000
   1023   1027     1   0.14233 265014.560000
   1023   1036     1   0.14316 258236.480000
   1029   1034     1   0.14233 265014.560000
   1042   1043     1   0.15375 251793.120000
   1042   1053     1   0.15375 251793.120000
   1042   1060     1   0.14316 258236.480000
   1043   1045     1   0.15375 251793.120000
   1043   1063     1   0.14233 265014.560000
   1045   1046     1   0.15375 251793.120000
   1045   1052     1   0.14233 265014.560000
   1046   1047     1   0.15375 251793.120000
   1046   1065     1   0.14647 272713.120000
   1047   1051     1   0.14233 265014.560000
   1047   1060     1   0.14316 258236.480000
   1053   1058     1   0.14233 265014.560000
   1067   1069     1   0.14619 275056.160000
   1069   1071     1   0.15375 251793.120000
   1071   1075     1   0.15110 237065.440000
   1075   1076     1   0.15110 237065.440000
   1075   1077     1   0.15110 237065.440000
   1076   1087     1   0.15375 251793.120000
   1077   1079     1   0.15375 251793.120000
   1079   1083     1   0.15241 261918.400000
   1083   1084     1   0.12183 533627.360000
   1083   1115     1   0.13400 406935.840000
   1087   1090     1   0.15241 261918.400000
   1090   1091     1   0.12183 533627.360000
   1090   1139     1   0.13400 406935.840000
   1092   1093     1   0.15375 251793.120000
   1092   1103     1   0.15375 251793.120000
   1092   1110     1   0.14316 258236.480000
   1093   1095     1   0.15375 251793.120000
   1093   1113     1   0.14233 265014.560000
   1095   1096     1   0.15375 251793.120000
   1095   1102     1   0.14233 265014.560000
   1096   1097     1   0.15375 251793.120000
   1096   1115     1   0.14647 272713.120000
   1097   1101     1   0.14233 265014.560000
   1097   1110     1   0.14316 258236.480000
   1103   1108     1   0.14233 265014.560000
   1116   1117     1   0.15375 251793.120000
   1116   1127     1   0.15375 251793.120000
   1116   1134     1   0.14316 258236.480000
   1117   1119     1   0.15375 251793.120000
   1117   1137     1   0.14233 265014.560000
   1119   1120     1   0.15375 251793.120000
   1119   1126     1   0.14233 265014.560000
   1120   1121     1   0.15375 251793.120000
   1120   1139     1   0.14647 272713.120000
   1121   1125     1   0.14233 265014.560000
   1121   1134     1   0.14316 258236.480000
   1127   1132     1   0.14233 265014.560000
   1141   1143     1   0.14619 275056.160000
   1143   1145     1   0.15375 251793.120000
   1145   1149     1   0.15110 237065.440000
   1149   1150     1   0.15110 237065.440000
   1149   1151     1   0.15110 237065.440000
   1150   1161     1   0.15375 251793.120000
   1151   1153     1   0.15375 251793.120000
   1153   1157     1   0.15241 261918.400000
   1157   1158     1   0.12183 533627.360000
   1157   1189     1   0.13400 406935.840000
   1161   1164     1   0.15241 261918.400000
   1164   1165     1   0.12183 533627.360000
   1164   1213     1   0.13400 406935.840000
   1166   1167     1   0.15375 251793.120000
   1166   1177     1   0.15375 251793.120000
   1166   1184     1   0.14316 258236.480000
   1167   1169     1   0.15375 251793.120000
   1167   1187     1   0.14233 265014.560000
   1169   1170     1   0.15375 251793.120000
   1169   1176     1   0.14233 265014.560000
   1170   1171     1   0.15375 251793.120000
   1170   1189     1   0.14647 272713.120000
   1171   1175     1   0.14233 265014.560000
   1171   1184     1   0.14316 258236.480000
   1177   1182     1   0.14233 265014.560000
   1190   1191     1   0.15375 251793.120000
   1190   1201     1   0.15375 251793.120000
   1190   1208     1   0.14316 258236.480000
   1191   1193     1   0.15375 251793.120000
   1191   1211     1   0.14233 265014.560000
   1193   1194     1   0.15375 251793.120000
   1193   1200     1   0.14233 265014.560000
   1194   1195     1   0.15375 251793.120000
   1194   1213     1   0.14647 272713.120000
   1195   1199     1   0.14233 265014.560000
   1195   1208     1   0.14316 258236.480000
   1201   1206     1   0.14233 265014.560000
   1215   1217     1   0.14619 275056.160000
   1217   1219     1   0.15375 251793.120000
   1219   1223     1   0.15110 237065.440000
   1223   1224     1   0.15110 237065.440000
   1223   1225     1   0.15110 237065.440000
   1224   1235     1   0.15375 251793.120000
   1225   1227     1   0.15375 251793.120000
   1227   1231     1   0.15241 261918.400000
   1231   1232     1   0.12183 533627.360000
   1231   1263     1   0.13400 406935.840000
   1235   1238     1   0.15241 261918.400000
   1238   1239     1   0.12183 533627.360000
   1238   1287     1   0.13400 406935.840000
   1240   1241     1   0.15375 251793.120000
   1240   1251     1   0.15375 251793.120000
   1240   1258     1   0.14316 258236.480000
   1241   1243     1   0.15375 251793.120000
   1241   1261     1   0.14233 265014.560000
   1243   1244     1   0.15375 251793.120000
   1243   1250     1   0.14233 265014.560000
   1244   1245     1   0.15375 251793.120000
   1244   1263     1   0.14647 272713.120000
   1245   1249     1   0.14233 265014.560000
   1245   1258     1   0.14316 258236.480000
   1251   1256     1   0.14233 265014.560000
   1264   1265     1   0.15375 251793.120000
   1264   1275     1   0.15375 251793.120000
   1264   1282     1   0.14316 258236.480000
   1265   1267     1   0.15375 251793.120000
   1265   1285     1   0.14233 265014.560000
   1267   1268     1   0.15375 251793.120000
   1267   1274     1   0.14233 265014.560000
   1268   1269     1   0.15375 251793.120000
   1268   1287     1   0.14647 272713.120000
   1269   1273     1   0.14233 265014.560000
   1269   1282     1   0.14316 258236.480000
   1275   1280     1   0.14233 265014.560000
   1289   1291     1   0.14619 275056.160000
   1291   1293     1   0.15375 251793.120000
   1293   1297     1   0.15110 237065.440000
   1297   1298     1   0.15110 237065.440000
   1297   1299     1   0.15110 237065.440000
   1298   1309     1   0.15375 251793.120000
   1299   1301     1   0.15375 251793.120000
   1301   1305     1   0.15241 261918.400000
   1305   1306     1   0.12183 533627.360000
   1305   1337     1   0.13400 406935.840000
   1309   1312     1   0.15241 261918.400000
   1312   1313     1   0.12183 533627.360000
   1312   1361     1   0.13400 406935.840000
   1314   1315     1   0.15375 251793.120000
   1314   1325     1   0.15375 251793.120000
   1314   1332     1   0.14316 258236.480000
   1315   1317     1   0.15375 251793.120000
   1315   1335     1   0.14233 265014.560000
   1317   1318     1   0.15375 251793.120000
   1317   1324     1   0.14233 265014.560000
   1318   1319     1   0.15375 251793.120000
   1318   1337     1   0.14647 272713.120000
   1319   1323     1   0.14233 265014.560000
   1319   1332     1   0.14316 258236.480000
   1325   1330     1   0.14233 265014.560000
   1338   1339     1   0.15375 251793.120000
   1338   1349     1   0.15375 251793.120000
   1338   1356     1   0.14316 258236.480000
   1339   1341     1   0.15375 251793.120000
   1339   1359     1   0.14233 265014.560000
   1341   1342     1   0.15375 251793.120000
   1341   1348     1   0.14233 265014.560000
   1342   1343     1   0.15375 251793.120000
   1342   1361     1   0.14647 272713.120000
   1343   1347     1   0.14233 265014.560000
   1343   1356     1   0.14316 258236.480000
   1349   1354     1   0.14233 265014.560000
   1363   1365     1   0.14619 275056.160000
   1365   1367     1   0.15375 251793.120000
   1367   1371     1   0.15110 237065.440000
   1371   1372     1   0.15110 237065.440000
   1371   1373     1   0.15110 237065.440000
   1372   1383     1   0.15375 251793.120000
   1373   1375     1   0.15375 251793.120000
   1375   1379     1   0.15241 261918.400000
   1379   1380     1   0.12183 533627.360000
   1379   1411     1   0.13400 406935.840000
   1383   1386     1   0.15241 261918.400000
   1386   1387     1   0.12183 533627.360000
   1386   1435     1   0.13400 406935.840000
   1388   1389     1   0.15375 251793.120000
   1388   1399     1   0.15375 251793.120000
   1388   1406     1   0.14316 258236.480000
   1389   1391     1   0.15375 251793.120000
   1389   1409     1   0.14233 265014.560000
   1391   1392     1   0.15375 251793.120000
   1391   1398     1   0.14233 265014.560000
   1392   1393     1   0.15375 251793.120000
   1392   1411     1   0.14647 272713.120000
   1393   1397     1   0.14233 265014.560000
   1393   1406     1   0.14316 258236.480000
   1399   1404     1   0.14233 265014.560000
   1412   1413     1   0.15375 251793.120000
   1412   1423     1   0.15375 251793.120000
   1412   1430     1   0.14316 258236.480000
   1413   1415     1   0.15375 251793.120000
   1413   1433     1   0.14233 265014.560000
   1415   1416     1   0.15375 251793.120000
   1415   1422     1   0.14233 265014.560000
   1416   1417     1   0.15375 251793.120000
   1416   1435     1   0.14647 272713.120000
   1417   1421     1   0.14233 265014.560000
   1417   1430     1   0.14316 258236.480000
   1423   1428     1   0.14233 265014.560000
   1437   1439     1   0.14619 275056.160000
   1439   1441     1   0.15375 251793.120000
   1441   1445     1   0.15110 237065.440000
   1445   1446     1   0.15110 237065.440000
   1445   1447     1   0.15110 237065.440000
   1446   1457     1   0.15375 251793.120000
   1447   1449     1   0.15375 251793.120000
   1449   1453     1   0.15241 261918.400000
   1453   1454     1   0.12183 533627.360000
   1453   1485     1   0.13400 406935.840000
   1457   1460     1   0.15241 261918.400000
   1460   1461     1   0.12183 533627.360000
   1460   1509     1   0.13400 406935.840000
   1462   1463     1   0.15375 251793.120000
   1462   1473     1   0.15375 251793.120000
   1462   1480     1   0.14316 258236.480000
   1463   1465     1   0.15375 251793.120000
   1463   1483     1   0.14233 265014.560000
   1465   1466     1   0.15375 251793.120000
   1465   1472     1   0.14233 265014.560000
   1466   1467     1   0.15375 251793.120000
   1466   1485     1   0.14647 272713.120000
   1467   1471     1   0.14233 265014.560000
   1467   1480     1   0.14316 258236.480000
   1473   1478     1   0.14233 265014.560000
   1486   1487     1   0.15375 251793.120000
   1486   1497     1   0.15375 251793.120000
   1486   1504     1   0.14316 258236.480000
   1487   1489     1   0.15375 251793.120000
   1487   1507     1   0.14233 265014.560000
   1489   1490     1   0.15375 251793.120000
   1489   1496     1   0.14233 265014.560000
   1490   1491     1   0.15375 251793.120000
   1490   1509     1   0.14647 272713.120000
   1491   1495     1   0.14233 265014.560000
   1491   1504     1   0.14316 258236.480000
   1497   1502     1   0.14233 265014.560000
   1511   1513     1   0.14619 275056.160000
   1513   1515     1   0.15375 251793.120000
   1515   1519     1   0.15110 237065.440000
   1519   1520     1   0.15110 237065.440000
   1519   1521     1   0.15110 237065.440000
   1520   1531     1   0.15375 251793.120000
   1521   1523     1   0.15375 251793.120000
   1523   1527     1   0.15241 261918.400000
   1527   1528     1   0.12183 533627.360000
   1527   1559     1   0.13400 406935.840000
   1531   1534     1   0.15241 261918.400000
   1534   1535     1   0.12183 533627.360000
   1534   1583     1   0.13400 406935.840000
   1536   1537     1   0.15375 251793.120000
   1536   1547     1   0.15375 251793.120000
   1536   1554     1   0.14316 258236.480000
   1537   1539     1   0.15375 251793.120000
   1537   1557     1   0.14233 265014.560000
   1539   1540     1   0.15375 251793.120000
   1539   1546     1   0.14233 265014.560000
   1540   1541     1   0.15375 251793.120000
   1540   1559     1   0.14647 272713.120000
   1541   1545     1   0.14233 265014.560000
   1541   1554     1   0.14316 258236.480000
   1547   1552     1   0.14233 265014.560000
   1560   1561     1   0.15375 251793.120000
   1560   1571     1   0.15375 251793.120000
   1560   1578     1   0.14316 258236.480000
   1561   1563     1   0.15375 251793.120000
   1561   1581     1   0.14233 265014.560000
   1563   1564     1   0.15375 251793.120000
   1563   1570     1   0.14233 265014.560000
   1564   1565     1   0.15375 251793.120000
   1564   1583     1   0.14647 272713.120000
   1565   1569     1   0.14233 265014.560000
   1565   1578     1   0.14316 258236.480000
   1571   1576     1   0.14233 265014.560000
   1585   1587     1   0.14619 275056.160000
   1587   1589     1   0.15375 251793.120000
   1589   1593     1   0.15110 237065.440000
   1593   1594     1   0.15110 237065.440000
   1593   1595     1   0.15110 237065.440000
   1594   1605     1   0.15375 251793.120000
   1595   1597     1   0.15375 251793.120000
   1597   1601     1   0.15241 261918.400000
   1601   1602     1   0.12183 533627.360000
   1601   1633     1   0.13400 406935.840000
   1605   1608     1   0.15241 261918.400000
   1608   1609     1   0.12183 533627.360000
   1608   1657     1   0.13400 406935.840000
   1610   1611     1   0.15375 251793.120000
   1610   1621     1   0.15375 251793.120000
   1610   1628     1   0.14316 258236.480000
   1611   1613     1   0.15375 251793.120000
   1611   1631     1   0.14233 265014.560000
   1613   1614     1   0.15375 251793.120000
   1613   1620     1   0.14233 265014.560000
   1614   1615     1   0.15375 251793.120000
   1614   1633     1   0.14647 272713.120000
   1615   1619     1   0.14233 265014.560000
   1615   1628     1   0.14316 258236.480000
   1621   1626     1   0.14233 265014.560000
   1634   1635     1   0.15375 251793.120000
   1634   1645     1   0.15375 251793.120000
   1634   1652     1   0.14316 258236.480000
   1635   1637     1   0.15375 251793.120000
   1635   1655     1   0.14233 265014.560000
   1637   1638     1   0.15375 251793.120000
   1637   1644     1   0.14233 265014.560000
   1638   1639     1   0.15375 251793.120000
   1638   1657     1   0.14647 272713.120000
   1639   1643     1   0.14233 265014.560000
   1639   1652     1   0.14316 258236.480000
   1645   1650     1   0.14233 265014.560000
   1659   1661     1   0.14619 275056.160000
   1661   1663     1   0.15375 251793.120000
   1663   1667     1   0.15110 237065.440000
   1667   1668     1   0.15110 237065.440000
   1667   1669     1   0.15110 237065.440000
   1668   1679     1   0.15375 251793.120000
   1669   1671     1   0.15375 251793.120000
   1671   1675     1   0.15241 261918.400000
   1675   1676     1   0.12183 533627.360000
   1675   1707     1   0.13400 406935.840000
   1679   1682     1   0.15241 261918.400000
   1682   1683     1   0.12183 533627.360000
   1682   1731     1   0.13400 406935.840000
   1684   1685     1   0.15375 251793.120000
   1684   1695     1   0.15375 251793.120000
   1684   1702     1   0.14316 258236.480000
   1685   1687     1   0.15375 251793.120000
   1685   1705     1   0.14233 265014.560000
   1687   1688     1   0.15375 251793.120000
   1687   1694     1   0.14233 265014.560000
   1688   1689     1   0.15375 251793.120000
   1688   1707     1   0.14647 272713.120000
   1689   1693     1   0.14233 265014.560000
   1689   1702     1   0.14316 258236.480000
   1695   1700     1   0.14233 265014.560000
   1708   1709     1   0.15375 251793.120000
   1708   1719     1   0.15375 251793.120000
   1708   1726     1   0.14316 258236.480000
   1709   1711     1   0.15375 251793.120000
   1709   1729     1   0.14233 265014.560000
   1711   1712     1   0.15375 251793.120000
   1711   1718     1   0.14233 265014.560000
   1712   1713     1   0.15375 251793.120000
   1712   1731     1   0.14647 272713.120000
   1713   1717     1   0.14233 265014.560000
   1713   1726     1   0.14316 258236.480000
   1719   1724     1   0.14233 265014.560000
   1733   1735     1   0.14619 275056.160000
   1735   1737     1   0.15375 251793.120000
   1737   1741     1   0.15110 237065.440000
   1741   1742     1   0.15110 237065.440000
   1741   1743     1   0.15110 237065.440000
   1742   1753     1   0.15375 251793.120000
   1743   1745     1   0.15375 251793.120000
   1745   1749     1   0.15241 261918.400000
   1749   1750     1   0.12183 533627.360000
   1749   1781     1   0.13400 406935.840000
   1753   1756     1   0.15241 261918.400000
   1756   1757     1   0.12183 533627.360000
   1756   1805     1   0.13400 406935.840000
   1758   1759     1   0.15375 251793.120000
   1758   1769     1   0.15375 251793.120000
   1758   1776     1   0.14316 258236.480000
   1759   1761     1   0.15375 251793.120000
   1759   1779     1   0.14233 265014.560000
   1761   1762     1   0.15375 251793.120000
   1761   1768     1   0.14233 265014.560000
   1762   1763     1   0.15375 251793.120000
   1762   1781     1   0.14647 272713.120000
   1763   1767     1   0.14233 265014.560000
   1763   1776     1   0.14316 258236.480000
   1769   1774     1   0.14233 265014.560000
   1782   1783     1   0.15375 251793.120000
   1782   1793     1   0.15375 251793.120000
   1782   1800     1   0.14316 258236.480000
   1783   1785     1   0.15375 251793.120000
   1783   1803     1   0.14233 265014.560000
   1785   1786     1   0.15375 251793.120000
   1785   1792     1   0.14233 265014.560000
   1786   1787     1   0.15375 251793.120000
   1786   1805     1   0.14647 272713.120000
   1787   1791     1   0.14233 265014.560000
   1787   1800     1   0.14316 258236.480000
   1793   1798     1   0.14233 265014.560000
   1807   1809     1   0.14619 275056.160000
   1809   1811     1   0.15375 251793.120000
   1811   1815     1   0.15110 237065.440000
   1815   1816     1   0.15110 237065.440000
   1815   1817     1   0.15110 237065.440000
   1816   1827     1   0.15375 251793.120000
   1817   1819     1   0.15375 251793.120000
   1819   1823     1   0.15241 261918.400000
   1823   1824     1   0.12183 533627.360000
   1823   1855     1   0.13400 406935.840000
   1827   1830     1   0.15241 261918.400000
   1830   1831     1   0.12183 533627.360000
   1830   1879     1   0.13400 406935.840000
   1832   1833     1   0.15375 251793.120000
   1832   1843     1   0.15375 251793.120000
   1832   1850     1   0.14316 258236.480000
   1833   1835     1   0.15375 251793.120000
   1833   1853     1   0.14233 265014.560000
   1835   1836     1   0.15375 251793.120000
   1835   1842     1   0.14233 265014.560000
   1836   1837     1   0.15375 251793.120000
   1836   1855     1   0.14647 272713.120000
   1837   1841     1   0.14233 265014.560000
   1837   1850     1   0.14316 258236.480000
   1843   1848     1   0.14233 265014.560000
   1856   1857     1   0.15375 251793.120000
   1856   1867     1   0.15375 251793.120000
   1856   1874     1   0.14316 258236.480000
   1857   1859     1   0.15375 251793.120000
   1857   1877     1   0.14233 265014.560000
   1859   1860     1   0.15375 251793.120000
   1859   1866     1   0.14233 265014.560000
   1860   1861     1   0.15375 251793.120000
   1860   1879     1   0.14647 272713.120000
   1861   1865     1   0.14233 265014.560000
   1861   1874     1   0.14316 258236.480000
   1867   1872     1   0.14233 265014.560000
   1881   1883     1   0.14619 275056.160000
   1883   1885     1   0.15375 251793.120000
   1885   1889     1   0.15110 237065.440000
   1889   1890     1   0.15110 237065.440000
   1889   1891     1   0.15110 237065.440000
   1890   1901     1   0.15375 251793.120000
   1891   1893     1   0.15375 251793.120000
   1893   1897     1   0.15241 261918.400000
   1897   1898     1   0.12183 533627.360000
   1897   1929     1   0.13400 406935.840000
   1901   1904     1   0.15241 261918.400000
   1904   1905     1   0.12183 533627.360000
   1904   1953     1   0.13400 406935.840000
   1906   1907     1   0.15375 251793.120000
   1906   1917     1   0.15375 251793.120000
   1906   1924     1   0.14316 258236.480000
   1907   1909     1   0.15375 251793.120000
   1907   1927     1   0.14233 265014.560000
   1909   1910     1   0.15375 251793.120000
   1909   1916     1   0.14233 265014.560000
   1910   1911     1   0.15375 251793.120000
   1910   1929     1   0.14647 272713.120000
   1911   1915     1   0.14233 265014.560000
   1911   1924     1   0.14316 258236.480000
   1917   1922     1   0.14233 265014.560000
   1930   1931     1   0.15375 251793.120000
   1930   1941     1   0.15375 251793.120000
   1930   1948     1   0.14316 258236.480000
   1931   1933     1   0.15375 251793.120000
   1931   1951     1   0.14233 265014.560000
   1933   1934     1   0.15375 251793.120000
   1933   1940     1   0.14233 265014.560000
   1934   1935     1   0.15375 251793.120000
   1934   1953     1   0.14647 272713.120000
   1935   1939     1   0.14233 265014.560000
   1935   1948     1   0.14316 258236.480000
   1941   1946     1   0.14233 265014.560000
   1955   1957     1   0.14619 275056.160000
   1957   1959     1   0.15375 251793.120000
   1959   1963     1   0.15110 237065.440000
   1963   1964     1   0.15110 237065.440000
   1963   1965     1   0.15110 237065.440000
   1964   1975     1   0.15375 251793.120000
   1965   1967     1   0.15375 251793.120000
   1967   1971     1   0.15241 261918.400000
   1971   1972     1   0.12183 533627.360000
   1971   2003     1   0.13400 406935.840000
   1975   1978     1   0.15241 261918.400000
   1978   1979     1   0.12183 533627.360000
   1978   2027     1   0.13400 406935.840000
   1980   1981     1   0.15375 251793.120000
   1980   1991     1   0.15375 251793.120000
   1980   1998     1   0.14316 258236.480000
   1981   1983     1   0.15375 251793.120000
   1981   2001     1   0.14233 265014.560000
   1983   1984     1   0.15375 251793.120000
   1983   1990     1   0.14233 265014.560000
   1984   1985     1   0.15375 251793.120000
   1984   2003     1   0.14647 272713.120000
   1985   1989     1   0.14233 265014.560000
   1985   1998     1   0.14316 258236.480000
   1991   1996     1   0.14233 265014.560000
   2004   2005     1   0.15375 251793.120000
   2004   2015     1   0.15375 251793.120000
   2004   2022     1   0.14316 258236.480000
   2005   2007     1   0.15375 251793.120000
   2005   2025     1   0.14233 265014.560000
   2007   2008     1   0.15375 251793.120000
   2007   2014     1   0.14233 265014.560000
   2008   2009     1   0.15375 251793.120000
   2008   2027     1   0.14647 272713.120000
   2009   2013     1   0.14233 265014.560000
   2009   2022     1   0.14316 258236.480000
   2015   2020     1   0.14233 265014.560000
   2029   2031     1   0.14619 275056.160000
   2031   2033     1   0.15375 251793.120000
   2033   2037     1   0.15110 237065.440000
   2037   2038     1   0.15110 237065.440000
   2037   2039     1   0.15110 237065.440000
   2038   2049     1   0.15375 251793.120000
   2039   2041     1   0.15375 251793.120000
   2041   2045     1   0.15241 261918.400000
   2045   2046     1   0.12183 533627.360000
   2045   2077     1   0.13400 406935.840000
   2049   2052     1   0.15241 261918.400000
   2052   2053     1   0.12183 533627.360000
   2052   2101     1   0.13400 406935.840000
   2054   2055     1   0.15375 251793.120000
   2054   2065     1   0.15375 251793.120000
   2054   2072     1   0.14316 258236.480000
   2055   2057     1   0.15375 251793.120000
   2055   2075     1   0.14233 265014.560000
   2057   2058     1   0.15375 251793.120000
   2057   2064     1   0.14233 265014.560000
   2058   2059     1   0.15375 251793.120000
   2058   2077     1   0.14647 272713.120000
   2059   2063     1   0.14233 265014.560000
   2059   2072     1   0.14316 258236.480000
   2065   2070     1   0.14233 265014.560000
   2078   2079     1   0.15375 251793.120000
   2078   2089     1   0.15375 251793.120000
   2078   2096     1   0.14316 258236.480000
   2079   2081     1   0.15375 251793.120000
   2079   2099     1   0.14233 265014.560000
   2081   2082     1   0.15375 251793.120000
   2081   2088     1   0.14233 265014.560000
   2082   2083     1   0.15375 251793.120000
   2082   2101     1   0.14647 272713.120000
   2083   2087     1   0.14233 265014.560000
   2083   2096     1   0.14316 258236.480000
   2089   2094     1   0.14233 265014.560000
   2103   2105     1   0.14619 275056.160000
   2105   2107     1   0.15375 251793.120000
   2107   2111     1   0.15110 237065.440000
   2111   2112     1   0.15110 237065.440000
   2111   2113     1   0.15110 237065.440000
   2112   2123     1   0.15375 251793.120000
   2113   2115     1   0.15375 251793.120000
   2115   2119     1   0.15241 261918.400000
   2119   2120     1   0.12183 533627.360000
   2119   2151     1   0.13400 406935.840000
   2123   2126     1   0.15241 261918.400000
   2126   2127     1   0.12183 533627.360000
   2126   2175     1   0.13400 406935.840000
   2128   2129     1   0.15375 251793.120000
   2128   2139     1   0.15375 251793.120000
   2128   2146     1   0.14316 258236.480000
   2129   2131     1   0.15375 251793.120000
   2129   2149     1   0.14233 265014.560000
   2131   2132     1   0.15375 251793.120000
   2131   2138     1   0.14233 265014.560000
   2132   2133     1   0.15375 251793.120000
   2132   2151     1   0.14647 272713.120000
   2133   2137     1   0.14233 265014.560000
   2133   2146     1   0.14316 258236.480000
   2139   2144     1   0.14233 265014.560000
   2152   2153     1   0.15375 251793.120000
   2152   2163     1   0.15375 251793.120000
   2152   2170     1   0.14316 258236.480000
   2153   2155     1   0.15375 251793.120000
   2153   2173     1   0.14233 265014.560000
   2155   2156     1   0.15375 251793.120000
   2155   2162     1   0.14233 265014.560000
   2156   2157     1   0.15375 251793.120000
   2156   2175     1   0.14647 272713.120000
   2157   2161     1   0.14233 265014.560000
   2157   2170     1   0.14316 258236.480000
   2163   2168     1   0.14233 265014.560000
   2177   2179     1   0.14619 275056.160000
   2179   2181     1   0.15375 251793.120000
   2181   2185     1   0.15110 237065.440000
   2185   2186     1   0.15110 237065.440000
   2185   2187     1   0.15110 237065.440000
   2186   2197     1   0.15375 251793.120000
   2187   2189     1   0.15375 251793.120000
   2189   2193     1   0.15241 261918.400000
   2193   2194     1   0.12183 533627.360000
   2193   2225     1   0.13400 406935.840000
   2197   2200     1   0.15241 261918.400000
   2200   2201     1   0.12183 533627.360000
   2200   2249     1   0.13400 406935.840000
   2202   2203     1   0.15375 251793.120000
   2202   2213     1   0.15375 251793.120000
   2202   2220     1   0.14316 258236.480000
   2203   2205     1   0.15375 251793.120000
   2203   2223     1   0.14233 265014.560000
   2205   2206     1   0.15375 251793.120000
   2205   2212     1   0.14233 265014.560000
   2206   2207     1   0.15375 251793.120000
   2206   2225     1   0.14647 272713.120000
   2207   2211     1   0.14233 265014.560000
   2207   2220     1   0.14316 258236.480000
   2213   2218     1   0.14233 265014.560000
   2226   2227     1   0.15375 251793.120000
   2226   2237     1   0.15375 251793.120000
   2226   2244     1   0.14316 258236.480000
   2227   2229     1   0.15375 251793.120000
   2227   2247     1   0.14233 265014.560000
   2229   2230     1   0.15375 251793.120000
   2229   2236     1   0.14233 265014.560000
   2230   2231     1   0.15375 251793.120000
   2230   2249     1   0.14647 272713.120000
   2231   2235     1   0.14233 265014.560000
   2231   2244     1   0.14316 258236.480000
   2237   2242     1   0.14233 265014.560000
   2251   2253     1   0.14619 275056.160000
   2253   2255     1   0.15375 251793.120000
   2255   2259     1   0.15110 237065.440000
   2259   2260     1   0.15110 237065.440000
   2259   2261     1   0.15110 237065.440000
   2260   2271     1   0.15375 251793.120000
   2261   2263     1   0.15375 251793.120000
   2263   2267     1   0.15241 261918.400000
   2267   2268     1   0.12183 533627.360000
   2267   2299     1   0.13400 406935.840000
   2271   2274     1   0.15241 261918.400000
   2274   2275     1   0.12183 533627.360000
   2274   2323     1   0.13400 406935.840000
   2276   2277     1   0.15375 251793.120000
   2276   2287     1   0.15375 251793.120000
   2276   2294     1   0.14316 258236.480000
   2277   2279     1   0.15375 251793.120000
   2277   2297     1   0.14233 265014.560000
   2279   2280     1   0.15375 251793.120000
   2279   2286     1   0.14233 265014.560000
   2280   2281     1   0.15375 251793.120000
   2280   2299     1   0.14647 272713.120000
   2281   2285     1   0.14233 265014.560000
   2281   2294     1   0.14316 258236.480000
   2287   2292     1   0.14233 265014.560000
   2300   2301     1   0.15375 251793.120000
   2300   2311     1   0.15375 251793.120000
   2300   2318     1   0.14316 258236.480000
   2301   2303     1   0.15375 251793.120000
   2301   2321     1   0.14233 265014.560000
   2303   2304     1   0.15375 251793.120000
   2303   2310     1   0.14233 265014.560000
   2304   2305     1   0.15375 251793.120000
   2304   2323     1   0.14647 272713.120000
   2305   2309     1   0.14233 265014.560000
   2305   2318     1   0.14316 258236.480000
   2311   2316     1   0.14233 265014.560000
   2325   2327     1   0.14619 275056.160000
   2327   2329     1   0.15375 251793.120000
   2329   2333     1   0.15110 237065.440000
   2333   2334     1   0.15110 237065.440000
   2333   2335     1   0.15110 237065.440000
   2334   2345     1   0.15375 251793.120000
   2335   2337     1   0.15375 251793.120000
   2337   2341     1   0.15241 261918.400000
   2341   2342     1   0.12183 533627.360000
   2341   2373     1   0.13400 406935.840000
   2345   2348     1   0.15241 261918.400000
   2348   2349     1   0.12183 533627.360000
   2348   2397     1   0.13400 406935.840000
   2350   2351     1   0.15375 251793.120000
   2350   2361     1   0.15375 251793.120000
   2350   2368     1   0.14316 258236.480000
   2351   2353     1   0.15375 251793.120000
   2351   2371     1   0.14233 265014.560000
   2353   2354     1   0.15375 251793.120000
   2353   2360     1   0.14233 265014.560000
   2354   2355     1   0.15375 251793.120000
   2354   2373     1   0.14647 272713.120000
   2355   2359     1   0.14233 265014.560000
   2355   2368     1   0.14316 258236.480000
   2361   2366     1   0.14233 265014.560000
   2374   2375     1   0.15375 251793.120000
   2374   2385     1   0.15375 251793.120000
   2374   2392     1   0.14316 258236.480000
   2375   2377     1   0.15375 251793.120000
   2375   2395     1   0.14233 265014.560000
   2377   2378     1   0.15375 251793.120000
   2377   2384     1   0.14233 265014.560000
   2378   2379     1   0.15375 251793.120000
   2378   2397     1   0.14647 272713.120000
   2379   2383     1   0.14233 265014.560000
   2379   2392     1   0.14316 258236.480000
   2385   2390     1   0.14233 265014.560000
   2399   2401     1   0.14619 275056.160000
   2401   2403     1   0.15375 251793.120000
   2403   2407     1   0.15110 237065.440000
   2407   2408     1   0.15110 237065.440000
   2407   2409     1   0.15110 237065.440000
   2408   2419     1   0.15375 251793.120000
   2409   2411     1   0.15375 251793.120000
   2411   2415     1   0.15241 261918.400000
   2415   2416     1   0.12183 533627.360000
   2415   2447     1   0.13400 406935.840000
   2419   2422     1   0.15241 261918.400000
   2422   2423     1   0.12183 533627.360000
   2422   2471     1   0.13400 406935.840000
   2424   2425     1   0.15375 251793.120000
   2424   2435     1   0.15375 251793.120000
   2424   2442     1   0.14316 258236.480000
   2425   2427     1   0.15375 251793.120000
   2425   2445     1   0.14233 265014.560000
   2427   2428     1   0.15375 251793.120000
   2427   2434     1   0.14233 265014.560000
   2428   2429     1   0.15375 251793.120000
   2428   2447     1   0.14647 272713.120000
   2429   2433     1   0.14233 265014.560000
   2429   2442     1   0.14316 258236.480000
   2435   2440     1   0.14233 265014.560000
   2448   2449     1   0.15375 251793.120000
   2448   2459     1   0.15375 251793.120000
   2448   2466     1   0.14316 258236.480000
   2449   2451     1   0.15375 251793.120000
   2449   2469     1   0.14233 265014.560000
   2451   2452     1   0.15375 251793.120000
   2451   2458     1   0.14233 265014.560000
   2452   2453     1   0.15375 251793.120000
   2452   2471     1   0.14647 272713.120000
   2453   2457     1   0.14233 265014.560000
   2453   2466     1   0.14316 258236.480000
   2459   2464     1   0.14233 265014.560000
   2473   2475     1   0.14619 275056.160000
   2475   2477     1   0.15375 251793.120000
   2477   2481     1   0.15110 237065.440000
   2481   2482     1   0.15110 237065.440000
   2481   2483     1   0.15110 237065.440000
   2482   2493     1   0.15375 251793.120000
   2483   2485     1   0.15375 251793.120000
   2485   2489     1   0.15241 261918.400000
   2489   2490     1   0.12183 533627.360000
   2489   2521     1   0.13400 406935.840000
   2493   2496     1   0.15241 261918.400000
   2496   2497     1   0.12183 533627.360000
   2496   2545     1   0.13400 406935.840000
   2498   2499     1   0.15375 251793.120000
   2498   2509     1   0.15375 251793.120000
   2498   2516     1   0.14316 258236.480000
   2499   2501     1   0.15375 251793.120000
   2499   2519     1   0.14233 265014.560000
   2501   2502     1   0.15375 251793.120000
   2501   2508     1   0.14233 265014.560000
   2502   2503     1   0.15375 251793.120000
   2502   2521     1   0.14647 272713.120000
   2503   2507     1   0.14233 265014.560000
   2503   2516     1   0.14316 258236.480000
   2509   2514     1   0.14233 265014.560000
   2522   2523     1   0.15375 251793.120000
   2522   2533     1   0.15375 251793.120000
   2522   2540     1   0.14316 258236.480000
   2523   2525     1   0.15375 251793.120000
   2523   2543     1   0.14233 265014.560000
   2525   2526     1   0.15375 251793.120000
   2525   2532     1   0.14233 265014.560000
   2526   2527     1   0.15375 251793.120000
   2526   2545     1   0.14647 272713.120000
   2527   2531     1   0.14233 265014.560000
   2527   2540     1   0.14316 258236.480000
   2533   2538     1   0.14233 265014.560000
   2547   2549     1   0.14619 275056.160000
   2549   2551     1   0.15375 251793.120000
   2551   2555     1   0.15110 237065.440000
   2555   2556     1   0.15110 237065.440000
   2555   2557     1   0.15110 237065.440000
   2556   2567     1   0.15375 251793.120000
   2557   2559     1   0.15375 251793.120000
   2559   2563     1   0.15241 261918.400000
   2563   2564     1   0.12183 533627.360000
   2563   2595     1   0.13400 406935.840000
   2567   2570     1   0.15241 261918.400000
   2570   2571     1   0.12183 533627.360000
   2570   2619     1   0.13400 406935.840000
   2572   2573     1   0.15375 251793.120000
   2572   2583     1   0.15375 251793.120000
   2572   2590     1   0.14316 258236.480000
   2573   2575     1   0.15375 251793.120000
   2573   2593     1   0.14233 265014.560000
   2575   2576     1   0.15375 251793.120000
   2575   2582     1   0.14233 265014.560000
   2576   2577     1   0.15375 251793.120000
   2576   2595     1   0.14647 272713.120000
   2577   2581     1   0.14233 265014.560000
   2577   2590     1   0.14316 258236.480000
   2583   2588     1   0.14233 265014.560000
   2596   2597     1   0.15375 251793.120000
   2596   2607     1   0.15375 251793.120000
   2596   2614     1   0.14316 258236.480000
   2597   2599     1   0.15375 251793.120000
   2597   2617     1   0.14233 265014.560000
   2599   2600     1   0.15375 251793.120000
   2599   2606     1   0.14233 265014.560000
   2600   2601     1   0.15375 251793.120000
   2600   2619     1   0.14647 272713.120000
   2601   2605     1   0.14233 265014.560000
   2601   2614     1   0.14316 258236.480000
   2607   2612     1   0.14233 265014.560000
   2621   2623     1   0.14619 275056.160000
   2623   2625     1   0.15375 251793.120000
   2625   2629     1   0.15110 237065.440000
   2629   2630     1   0.15110 237065.440000
   2629   2631     1   0.15110 237065.440000
   2630   2641     1   0.15375 251793.120000
   2631   2633     1   0.15375 251793.120000
   2633   2637     1   0.15241 261918.400000
   2637   2638     1   0.12183 533627.360000
   2637   2669     1   0.13400 406935.840000
   2641   2644     1   0.15241 261918.400000
   2644   2645     1   0.12183 533627.360000
   2644   2693     1   0.13400 406935.840000
   2646   2647     1   0.15375 251793.120000
   2646   2657     1   0.15375 251793.120000
   2646   2664     1   0.14316 258236.480000
   2647   2649     1   0.15375 251793.120000
   2647   2667     1   0.14233 265014.560000
   2649   2650     1   0.15375 251793.120000
   2649   2656     1   0.14233 265014.560000
   2650   2651     1   0.15375 251793.120000
   2650   2669     1   0.14647 272713.120000
   2651   2655     1   0.14233 265014.560000
   2651   2664     1   0.14316 258236.480000
   2657   2662     1   0.14233 265014.560000
   2670   2671     1   0.15375 251793.120000
   2670   2681     1   0.15375 251793.120000
   2670   2688     1   0.14316 258236.480000
   2671   2673     1   0.15375 251793.120000
   2671   2691     1   0.14233 265014.560000
   2673   2674     1   0.15375 251793.120000
   2673   2680     1   0.14233 265014.560000
   2674   2675     1   0.15375 251793.120000
   2674   2693     1   0.14647 272713.120000
   2675   2679     1   0.14233 265014.560000
   2675   2688     1   0.14316 258236.480000
   2681   2686     1   0.14233 265014.560000
   2695   2697     1   0.14619 275056.160000
   2697   2699     1   0.15375 251793.120000
   2699   2703     1   0.15110 237065.440000
   2703   2704     1   0.15110 237065.440000
   2703   2705     1   0.15110 237065.440000
   2704   2715     1   0.15375 251793.120000
   2705   2707     1   0.15375 251793.120000
   2707   2711     1   0.15241 261918.400000
   2711   2712     1   0.12183 533627.360000
   2711   2743     1   0.13400 406935.840000
   2715   2718     1   0.15241 261918.400000
   2718   2719     1   0.12183 533627.360000
   2718   2767     1   0.13400 406935.840000
   2720   2721     1   0.15375 251793.120000
   2720   2731     1   0.15375 251793.120000
   2720   2738     1   0.14316 258236.480000
   2721   2723     1   0.15375 251793.120000
   2721   2741     1   0.14233 265014.560000
   2723   2724     1   0.15375 251793.120000
   2723   2730     1   0.14233 265014.560000
   2724   2725     1   0.15375 251793.120000
   2724   2743     1   0.14647 272713.120000
   2725   2729     1   0.14233 265014.560000
   2725   2738     1   0.14316 258236.480000
   2731   2736     1   0.14233 265014.560000
   2744   2745     1   0.15375 251793.120000
   2744   2755     1   0.15375 251793.120000
   2744   2762     1   0.14316 258236.480000
   2745   2747     1   0.15375 251793.120000
   2745   2765     1   0.14233 265014.560000
   2747   2748     1   0.15375 251793.120000
   2747   2754     1   0.14233 265014.560000
   2748   2749     1   0.15375 251793.120000
   2748   2767     1   0.14647 272713.120000
   2749   2753     1   0.14233 265014.560000
   2749   2762     1   0.14316 258236.480000
   2755   2760     1   0.14233 265014.560000
   2769   2771     1   0.14619 275056.160000
   2771   2773     1   0.15375 251793.120000
   2773   2777     1   0.15110 237065.440000
   2777   2778     1   0.15110 237065.440000
   2777   2779     1   0.15110 237065.440000
   2778   2789     1   0.15375 251793.120000
   2779   2781     1   0.15375 251793.120000
   2781   2785     1   0.15241 261918.400000
   2785   2786     1   0.12183 533627.360000
   2785   2817     1   0.13400 406935.840000
   2789   2792     1   0.15241 261918.400000
   2792   2793     1   0.12183 533627.360000
   2792   2841     1   0.13400 406935.840000
   2794   2795     1   0.15375 251793.120000
   2794   2805     1   0.15375 251793.120000
   2794   2812     1   0.14316 258236.480000
   2795   2797     1   0.15375 251793.120000
   2795   2815     1   0.14233 265014.560000
   2797   2798     1   0.15375 251793.120000
   2797   2804     1   0.14233 265014.560000
   2798   2799     1   0.15375 251793.120000
   2798   2817     1   0.14647 272713.120000
   2799   2803     1   0.14233 265014.560000
   2799   2812     1   0.14316 258236.480000
   2805   2810     1   0.14233 265014.560000
   2818   2819     1   0.15375 251793.120000
   2818   2829     1   0.15375 251793.120000
   2818   2836     1   0.14316 258236.480000
   2819   2821     1   0.15375 251793.120000
   2819   2839     1   0.14233 265014.560000
   2821   2822     1   0.15375 251793.120000
   2821   2828     1   0.14233 265014.560000
   2822   2823     1   0.15375 251793.120000
   2822   2841     1   0.14647 272713.120000
   2823   2827     1   0.14233 265014.560000
   2823   2836     1   0.14316 258236.480000
   2829   2834     1   0.14233 265014.560000
   2843   2845     1   0.14619 275056.160000
   2845   2847     1   0.15375 251793.120000
   2847   2851     1   0.15110 237065.440000
   2851   2852     1   0.15110 237065.440000
   2851   2853     1   0.15110 237065.440000
   2852   2863     1   0.15375 251793.120000
   2853   2855     1   0.15375 251793.120000
   2855   2859     1   0.15241 261918.400000
   2859   2860     1   0.12183 533627.360000
   2859   2891     1   0.13400 406935.840000
   2863   2866     1   0.15241 261918.400000
   2866   2867     1   0.12183 533627.360000
   2866   2915     1   0.13400 406935.840000
   2868   2869     1   0.15375 251793.120000
   2868   2879     1   0.15375 251793.120000
   2868   2886     1   0.14316 258236.480000
   2869   2871     1   0.15375 251793.120000
   2869   2889     1   0.14233 265014.560000
   2871   2872     1   0.15375 251793.120000
   2871   2878     1   0.14233 265014.560000
   2872   2873     1   0.15375 251793.120000
   2872   2891     1   0.14647 272713.120000
   2873   2877     1   0.14233 265014.560000
   2873   2886     1   0.14316 258236.480000
   2879   2884     1   0.14233 265014.560000
   2892   2893     1   0.15375 251793.120000
   2892   2903     1   0.15375 251793.120000
   2892   2910     1   0.14316 258236.480000
   2893   2895     1   0.15375 251793.120000
   2893   2913     1   0.14233 265014.560000
   2895   2896     1   0.15375 251793.120000
   2895   2902     1   0.14233 265014.560000
   2896   2897     1   0.15375 251793.120000
   2896   2915     1   0.14647 272713.120000
   2897   2901     1   0.14233 265014.560000
   2897   2910     1   0.14316 258236.480000
   2903   2908     1   0.14233 265014.560000
   2917   2919     1   0.14619 275056.160000
   2919   2921     1   0.15375 251793.120000
   2921   2925     1   0.15110 237065.440000
   2925   2926     1   0.15110 237065.440000
   2925   2927     1   0.15110 237065.440000
   2926   2937     1   0.15375 251793.120000
   2927   2929     1   0.15375 251793.120000
   2929   2933     1   0.15241 261918.400000
   2933   2934     1   0.12183 533627.360000
   2933   2965     1   0.13400 406935.840000
   2937   2940     1   0.15241 261918.400000
   2940   2941     1   0.12183 533627.360000
   2940   2989     1   0.13400 406935.840000
   2942   2943     1   0.15375 251793.120000
   2942   2953     1   0.15375 251793.120000
   2942   2960     1   0.14316 258236.480000
   2943   2945     1   0.15375 251793.120000
   2943   2963     1   0.14233 265014.560000
   2945   2946     1   0.15375 251793.120000
   2945   2952     1   0.14233 265014.560000
   2946   2947     1   0.15375 251793.120000
   2946   2965     1   0.14647 272713.120000
   2947   2951     1   0.14233 265014.560000
   2947   2960     1   0.14316 258236.480000
   2953   2958     1   0.14233 265014.560000
   2966   2967     1   0.15375 251793.120000
   2966   2977     1   0.15375 251793.120000
   2966   2984     1   0.14316 258236.480000
   2967   2969     1   0.15375 251793.120000
   2967   2987     1   0.14233 265014.560000
   2969   2970     1   0.15375 251793.120000
   2969   2976     1   0.14233 265014.560000
   2970   2971     1   0.15375 251793.120000
   2970   2989     1   0.14647 272713.120000
   2971   2975     1   0.14233 265014.560000
   2971   2984     1   0.14316 258236.480000
   2977   2982     1   0.14233 265014.560000
   2991   2993     1   0.14619 275056.160000
   2993   2995     1   0.15375 251793.120000
   2995   2999     1   0.15110 237065.440000
   2999   3000     1   0.15110 237065.440000
   2999   3001     1   0.15110 237065.440000
   3000   3011     1   0.15375 251793.120000
   3001   3003     1   0.15375 251793.120000
   3003   3007     1   0.15241 261918.400000
   3007   3008     1   0.12183 533627.360000
   3007   3039     1   0.13400 406935.840000
   3011   3014     1   0.15241 261918.400000
   3014   3015     1   0.12183 533627.360000
   3014   3063     1   0.13400 406935.840000
   3016   3017     1   0.15375 251793.120000
   3016   3027     1   0.15375 251793.120000
   3016   3034     1   0.14316 258236.480000
   3017   3019     1   0.15375 251793.120000
   3017   3037     1   0.14233 265014.560000
   3019   3020     1   0.15375 251793.120000
   3019   3026     1   0.14233 265014.560000
   3020   3021     1   0.15375 251793.120000
   3020   3039     1   0.14647 272713.120000
   3021   3025     1   0.14233 265014.560000
   3021   3034     1   0.14316 258236.480000
   3027   3032     1   0.14233 265014.560000
   3040   3041     1   0.15375 251793.120000
   3040   3051     1   0.15375 251793.120000
   3040   3058     1   0.14316 258236.480000
   3041   3043     1   0.15375 251793.120000
   3041   3061     1   0.14233 265014.560000
   3043   3044     1   0.15375 251793.120000
   3043   3050     1   0.14233 265014.560000
   3044   3045     1   0.15375 251793.120000
   3044   3063     1   0.14647 272713.120000
   3045   3049     1   0.14233 265014.560000
   3045   3058     1   0.14316 258236.480000
   3051   3056     1   0.14233 265014.560000
   3065   3067     1   0.14619 275056.160000
   3067   3069     1   0.15375 251793.120000
   3069   3073     1   0.15110 237065.440000
   3073   3074     1   0.15110 237065.440000
   3073   3075     1   0.15110 237065.440000
   3074   3085     1   0.15375 251793.120000
   3075   3077     1   0.15375 251793.120000
   3077   3081     1   0.15241 261918.400000
   3081   3082     1   0.12183 533627.360000
   3081   3113     1   0.13400 406935.840000
   3085   3088     1   0.15241 261918.400000
   3088   3089     1   0.12183 533627.360000
   3088   3137     1   0.13400 406935.840000
   3090   3091     1   0.15375 251793.120000
   3090   3101     1   0.15375 251793.120000
   3090   3108     1   0.14316 258236.480000
   3091   3093     1   0.15375 251793.120000
   3091   3111     1   0.14233 265014.560000
   3093   3094     1   0.15375 251793.120000
   3093   3100     1   0.14233 265014.560000
   3094   3095     1   0.15375 251793.120000
   3094   3113     1   0.14647 272713.120000
   3095   3099     1   0.14233 265014.560000
   3095   3108     1   0.14316 258236.480000
   3101   3106     1   0.14233 265014.560000
   3114   3115     1   0.15375 251793.120000
   3114   3125     1   0.15375 251793.120000
   3114   3132     1   0.14316 258236.480000
   3115   3117     1   0.15375 251793.120000
   3115   3135     1   0.14233 265014.560000
   3117   3118     1   0.15375 251793.120000
   3117   3124     1   0.14233 265014.560000
   3118   3119     1   0.15375 251793.120000
   3118   3137     1   0.14647 272713.120000
   3119   3123     1   0.14233 265014.560000
   3119   3132     1   0.14316 258236.480000
   3125   3130     1   0.14233 265014.560000
      1     41     1   0.10304 312293.760000
      2     21     1   0.10910 283424.160000
      2     22     1   0.10910 283424.160000
      3     23     1   0.10910 283424.160000
      3     24     1   0.10910 283424.160000
      4     42     1   0.10304 312293.760000
      5     25     1   0.10910 283424.160000
      5     26     1   0.10910 283424.160000
      6     27     1   0.10910 283424.160000
      6     28     1   0.10910 283424.160000
      7     29     1   0.10910 283424.160000
      7     30     1   0.10910 283424.160000
      8     31     1   0.10910 283424.160000
      8     32     1   0.10910 283424.160000
      9     33     1   0.10969 276646.080000
      9     34     1   0.10969 276646.080000
     11     35     1   0.10969 276646.080000
     11     36     1   0.10969 276646.080000
     13     37     1   0.10969 276646.080000
     13     38     1   0.10969 276646.080000
     15     39     1   0.10969 276646.080000
     15     40     1   0.10969 276646.080000
     43     68     1   0.10304 312293.760000
     44     55     1   0.10910 283424.160000
     44     56     1   0.10910 283424.160000
     45     57     1   0.10910 283424.160000
     45     58     1   0.10910 283424.160000
     46     59     1   0.10969 276646.080000
     46     60     1   0.10969 276646.080000
     48     61     1   0.10969 276646.080000
     48     62     1   0.10969 276646.080000
     50     63     1   0.10910 283424.160000
     50     64     1   0.10910 283424.160000
     51     65     1   0.10969 276646.080000
     51     66     1   0.10969 276646.080000
     52     67     1   0.10129 337397.760000
     69     94     1   0.10304 312293.760000
     70     81     1   0.10910 283424.160000
     70     82     1   0.10910 283424.160000
     71     83     1   0.10910 283424.160000
     71     84     1   0.10910 283424.160000
     72     85     1   0.10969 276646.080000
     72     86     1   0.10969 276646.080000
     74     87     1   0.10969 276646.080000
     74     88     1   0.10969 276646.080000
     76     89     1   0.10910 283424.160000
     76     90     1   0.10910 283424.160000
     77     91     1   0.10969 276646.080000
     77     92     1   0.10969 276646.080000
     78     93     1   0.10129 337397.760000
     95    120     1   0.10304 312293.760000
     96    107     1   0.10910 283424.160000
     96    108     1   0.10910 283424.160000
     97    109     1   0.10910 283424.160000
     97    110     1   0.10910 283424.160000
     98    111     1   0.10969 276646.080000
     98    112     1   0.10969 276646.080000
    100    113     1   0.10969 276646.080000
    100    114     1   0.10969 276646.080000
    102    115     1   0.10910 283424.160000
    102    116     1   0.10910 283424.160000
    103    117     1   0.10969 276646.080000
    103    118     1   0.10969 276646.080000
    104    119     1   0.10129 337397.760000
    121    146     1   0.10304 312293.760000
    122    133     1   0.10910 283424.160000
    122    134     1   0.10910 283424.160000
    123    135     1   0.10910 283424.160000
    123    136     1   0.10910 283424.160000
    124    137     1   0.10969 276646.080000
    124    138     1   0.10969 276646.080000
    126    139     1   0.10969 276646.080000
    126    140     1   0.10969 276646.080000
    128    141     1   0.10910 283424.160000
    128    142     1   0.10910 283424.160000
    129    143     1   0.10969 276646.080000
    129    144     1   0.10969 276646.080000
    130    145     1   0.10129 337397.760000
    147    172     1   0.10304 312293.760000
    148    159     1   0.10910 283424.160000
    148    160     1   0.10910 283424.160000
    149    161     1   0.10910 283424.160000
    149    162     1   0.10910 283424.160000
    150    163     1   0.10969 276646.080000
    150    164     1   0.10969 276646.080000
    152    165     1   0.10969 276646.080000
    152    166     1   0.10969 276646.080000
    154    167     1   0.10910 283424.160000
    154    168     1   0.10910 283424.160000
    155    169     1   0.10969 276646.080000
    155    170     1   0.10969 276646.080000
    156    171     1   0.10129 337397.760000
    173    198     1   0.10304 312293.760000
    174    185     1   0.10910 283424.160000
    174    186     1   0.10910 283424.160000
    175    187     1   0.10910 283424.160000
    175    188     1   0.10910 283424.160000
    176    189     1   0.10969 276646.080000
    176    190     1   0.10969 276646.080000
    178    191     1   0.10969 276646.080000
    178    192     1   0.10969 276646.080000
    180    193     1   0.10910 283424.160000
    180    194     1   0.10910 283424.160000
    181    195     1   0.10969 276646.080000
    181    196     1   0.10969 276646.080000
    182    197     1   0.10129 337397.760000
    199    224     1   0.10304 312293.760000
    200    211     1   0.10910 283424.160000
    200    212     1   0.10910 283424.160000
    201    213     1   0.10910 283424.160000
    201    214     1   0.10910 283424.160000
    202    215     1   0.10969 276646.080000
    202    216     1   0.10969 276646.080000
    204    217     1   0.10969 276646.080000
    204    218     1   0.10969 276646.080000
    206    219     1   0.10910 283424.160000
    206    220     1   0.10910 283424.160000
    207    221     1   0.10969 276646.080000
    207    222     1   0.10969 276646.080000
    208    223     1   0.10129 337397.760000
    225    250     1   0.10304 312293.760000
    226    237     1   0.10910 283424.160000
    226    238     1   0.10910 283424.160000
    227    239     1   0.10910 283424.160000
    227    240     1   0.10910 283424.160000
    228    241     1   0.10969 276646.080000
    228    242     1   0.10969 276646.080000
    230    243     1   0.10969 276646.080000
    230    244     1   0.10969 276646.080000
    232    245     1   0.10910 283424.160000
    232    246     1   0.10910 283424.160000
    233    247     1   0.10969 276646.080000
    233    248     1   0.10969 276646.080000
    234    249     1   0.10129 337397.760000
    251    276     1   0.10304 312293.760000
    252    263     1   0.10910 283424.160000
    252    264     1   0.10910 283424.160000
    253    265     1   0.10910 283424.160000
    253    266     1   0.10910 283424.160000
    254    267     1   0.10969 276646.080000
    254    268     1   0.10969 276646.080000
    256    269     1   0.10969 276646.080000
    256    270     1   0.10969 276646.080000
    258    271     1   0.10910 283424.160000
    258    272     1   0.10910 283424.160000
    259    273     1   0.10969 276646.080000
    259    274     1   0.10969 276646.080000
    260    275     1   0.10129 337397.760000
    277    302     1   0.10304 312293.760000
    278    289     1   0.10910 283424.160000
    278    290     1   0.10910 283424.160000
    279    291     1   0.10910 283424.160000
    279    292     1   0.10910 283424.160000
    280    293     1   0.10969 276646.080000
    280    294     1   0.10969 276646.080000
    282    295     1   0.10969 276646.080000
    282    296     1   0.10969 276646.080000
    284    297     1   0.10910 283424.160000
    284    298     1   0.10910 283424.160000
    285    299     1   0.10969 276646.080000
    285    300     1   0.10969 276646.080000
    286    301     1   0.10129 337397.760000
    303    328     1   0.10304 312293.760000
    304    315     1   0.10910 283424.160000
    304    316     1   0.10910 283424.160000
    305    317     1   0.10910 283424.160000
    305    318     1   0.10910 283424.160000
    306    319     1   0.10969 276646.080000
    306    320     1   0.10969 276646.080000
    308    321     1   0.10969 276646.080000
    308    322     1   0.10969 276646.080000
    310    323     1   0.10910 283424.160000
    310    324     1   0.10910 283424.160000
    311    325     1   0.10969 276646.080000
    311    326     1   0.10969 276646.080000
    312    327     1   0.10129 337397.760000
    329    354     1   0.10304 312293.760000
    330    341     1   0.10910 283424.160000
    330    342     1   0.10910 283424.160000
    331    343     1   0.10910 283424.160000
    331    344     1   0.10910 283424.160000
    332    345     1   0.10969 276646.080000
    332    346     1   0.10969 276646.080000
    334    347     1   0.10969 276646.080000
    334    348     1   0.10969 276646.080000
    336    349     1   0.10910 283424.160000
    336    350     1   0.10910 283424.160000
    337    351     1   0.10969 276646.080000
    337    352     1   0.10969 276646.080000
    338    353     1   0.10129 337397.760000
    355    380     1   0.10304 312293.760000
    356    367     1   0.10910 283424.160000
    356    368     1   0.10910 283424.160000
    357    369     1   0.10910 283424.160000
    357    370     1   0.10910 283424.160000
    358    371     1   0.10969 276646.080000
    358    372     1   0.10969 276646.080000
    360    373     1   0.10969 276646.080000
    360    374     1   0.10969 276646.080000
    362    375     1   0.10910 283424.160000
    362    376     1   0.10910 283424.160000
    363    377     1   0.10969 276646.080000
    363    378     1   0.10969 276646.080000
    364    379     1   0.10129 337397.760000
    381    406     1   0.10304 312293.760000
    382    393     1   0.10910 283424.160000
    382    394     1   0.10910 283424.160000
    383    395     1   0.10910 283424.160000
    383    396     1   0.10910 283424.160000
    384    397     1   0.10969 276646.080000
    384    398     1   0.10969 276646.080000
    386    399     1   0.10969 276646.080000
    386    400     1   0.10969 276646.080000
    388    401     1   0.10910 283424.160000
    388    402     1   0.10910 283424.160000
    389    403     1   0.10969 276646.080000
    389    404     1   0.10969 276646.080000
    390    405     1   0.10129 337397.760000
    407    432     1   0.10304 312293.760000
    408    419     1   0.10910 283424.160000
    408    420     1   0.10910 283424.160000
    409    421     1   0.10910 283424.160000
    409    422     1   0.10910 283424.160000
    410    423     1   0.10969 276646.080000
    410    424     1   0.10969 276646.080000
    412    425     1   0.10969 276646.080000
    412    426     1   0.10969 276646.080000
    414    427     1   0.10910 283424.160000
    414    428     1   0.10910 283424.160000
    415    429     1   0.10969 276646.080000
    415    430     1   0.10969 276646.080000
    416    431     1   0.10129 337397.760000
    433    458     1   0.10304 312293.760000
    434    445     1   0.10910 283424.160000
    434    446     1   0.10910 283424.160000
    435    447     1   0.10910 283424.160000
    435    448     1   0.10910 283424.160000
    436    449     1   0.10969 276646.080000
    436    450     1   0.10969 276646.080000
    438    451     1   0.10969 276646.080000
    438    452     1   0.10969 276646.080000
    440    453     1   0.10910 283424.160000
    440    454     1   0.10910 283424.160000
    441    455     1   0.10969 276646.080000
    441    456     1   0.10969 276646.080000
    442    457     1   0.10129 337397.760000
    459    484     1   0.10304 312293.760000
    460    471     1   0.10910 283424.160000
    460    472     1   0.10910 283424.160000
    461    473     1   0.10910 283424.160000
    461    474     1   0.10910 283424.160000
    462    475     1   0.10969 276646.080000
    462    476     1   0.10969 276646.080000
    464    477     1   0.10969 276646.080000
    464    478     1   0.10969 276646.080000
    466    479     1   0.10910 283424.160000
    466    480     1   0.10910 283424.160000
    467    481     1   0.10969 276646.080000
    467    482     1   0.10969 276646.080000
    468    483     1   0.10129 337397.760000
    485    510     1   0.10304 312293.760000
    486    497     1   0.10910 283424.160000
    486    498     1   0.10910 283424.160000
    487    499     1   0.10910 283424.160000
    487    500     1   0.10910 283424.160000
    488    501     1   0.10969 276646.080000
    488    502     1   0.10969 276646.080000
    490    503     1   0.10969 276646.080000
    490    504     1   0.10969 276646.080000
    492    505     1   0.10910 283424.160000
    492    506     1   0.10910 283424.160000
    493    507     1   0.10969 276646.080000
    493    508     1   0.10969 276646.080000
    494    509     1   0.10129 337397.760000
    511    536     1   0.10304 312293.760000
    512    523     1   0.10910 283424.160000
    512    524     1   0.10910 283424.160000
    513    525     1   0.10910 283424.160000
    513    526     1   0.10910 283424.160000
    514    527     1   0.10969 276646.080000
    514    528     1   0.10969 276646.080000
    516    529     1   0.10969 276646.080000
    516    530     1   0.10969 276646.080000
    518    531     1   0.10910 283424.160000
    518    532     1   0.10910 283424.160000
    519    533     1   0.10969 276646.080000
    519    534     1   0.10969 276646.080000
    520    535     1   0.10129 337397.760000
    537    562     1   0.10304 312293.760000
    538    549     1   0.10910 283424.160000
    538    550     1   0.10910 283424.160000
    539    551     1   0.10910 283424.160000
    539    552     1   0.10910 283424.160000
    540    553     1   0.10969 276646.080000
    540    554     1   0.10969 276646.080000
    542    555     1   0.10969 276646.080000
    542    556     1   0.10969 276646.080000
    544    557     1   0.10910 283424.160000
    544    558     1   0.10910 283424.160000
    545    559     1   0.10969 276646.080000
    545    560     1   0.10969 276646.080000
    546    561     1   0.10129 337397.760000
    563    588     1   0.10304 312293.760000
    564    575     1   0.10910 283424.160000
    564    576     1   0.10910 283424.160000
    565    577     1   0.10910 283424.160000
    565    578     1   0.10910 283424.160000
    566    579     1   0.10969 276646.080000
    566    580     1   0.10969 276646.080000
    568    581     1   0.10969 276646.080000
    568    582     1   0.10969 276646.080000
    570    583     1   0.10910 283424.160000
    570    584     1   0.10910 283424.160000
    571    585     1   0.10969 276646.080000
    571    586     1   0.10969 276646.080000
    572    587     1   0.10129 337397.760000
    589    614     1   0.10304 312293.760000
    590    601     1   0.10910 283424.160000
    590    602     1   0.10910 283424.160000
    591    603     1   0.10910 283424.160000
    591    604     1   0.10910 283424.160000
    592    605     1   0.10969 276646.080000
    592    606     1   0.10969 276646.080000
    594    607     1   0.10969 276646.080000
    594    608     1   0.10969 276646.080000
    596    609     1   0.10910 283424.160000
    596    610     1   0.10910 283424.160000
    597    611     1   0.10969 276646.080000
    597    612     1   0.10969 276646.080000
    598    613     1   0.10129 337397.760000
    615    640     1   0.10304 312293.760000
    616    627     1   0.10910 283424.160000
    616    628     1   0.10910 283424.160000
    617    629     1   0.10910 283424.160000
    617    630     1   0.10910 283424.160000
    618    631     1   0.10969 276646.080000
    618    632     1   0.10969 276646.080000
    620    633     1   0.10969 276646.080000
    620    634     1   0.10969 276646.080000
    622    635     1   0.10910 283424.160000
    622    636     1   0.10910 283424.160000
    623    637     1   0.10969 276646.080000
    623    638     1   0.10969 276646.080000
    624    639     1   0.10129 337397.760000
    641    666     1   0.10304 312293.760000
    642    653     1   0.10910 283424.160000
    642    654     1   0.10910 283424.160000
    643    655     1   0.10910 283424.160000
    643    656     1   0.10910 283424.160000
    644    657     1   0.10969 276646.080000
    644    658     1   0.10969 276646.080000
    646    659     1   0.10969 276646.080000
    646    660     1   0.10969 276646.080000
    648    661     1   0.10910 283424.160000
    648    662     1   0.10910 283424.160000
    649    663     1   0.10969 276646.080000
    649    664     1   0.10969 276646.080000
    650    665     1   0.10129 337397.760000
    667    692     1   0.10304 312293.760000
    668    679     1   0.10910 283424.160000
    668    680     1   0.10910 283424.160000
    669    681     1   0.10910 283424.160000
    669    682     1   0.10910 283424.160000
    670    683     1   0.10969 276646.080000
    670    684     1   0.10969 276646.080000
    672    685     1   0.10969 276646.080000
    672    686     1   0.10969 276646.080000
    674    687     1   0.10910 283424.160000
    674    688     1   0.10910 283424.160000
    675    689     1   0.10969 276646.080000
    675    690     1   0.10969 276646.080000
    676    691     1   0.10129 337397.760000
    693    718     1   0.10304 312293.760000
    694    705     1   0.10910 283424.160000
    694    706     1   0.10910 283424.160000
    695    707     1   0.10910 283424.160000
    695    708     1   0.10910 283424.160000
    696    709     1   0.10969 276646.080000
    696    710     1   0.10969 276646.080000
    698    711     1   0.10969 276646.080000
    698    712     1   0.10969 276646.080000
    700    713     1   0.10910 283424.160000
    700    714     1   0.10910 283424.160000
    701    715     1   0.10969 276646.080000
    701    716     1   0.10969 276646.080000
    702    717     1   0.10129 337397.760000
    719    744     1   0.10304 312293.760000
    720    731     1   0.10910 283424.160000
    720    732     1   0.10910 283424.160000
    721    733     1   0.10910 283424.160000
    721    734     1   0.10910 283424.160000
    722    735     1   0.10969 276646.080000
    722    736     1   0.10969 276646.080000
    724    737     1   0.10969 276646.080000
    724    738     1   0.10969 276646.080000
    726    739     1   0.10910 283424.160000
    726    740     1   0.10910 283424.160000
    727    741     1   0.10969 276646.080000
    727    742     1   0.10969 276646.080000
    728    743     1   0.10129 337397.760000
    745    770     1   0.10304 312293.760000
    746    757     1   0.10910 283424.160000
    746    758     1   0.10910 283424.160000
    747    759     1   0.10910 283424.160000
    747    760     1   0.10910 283424.160000
    748    761     1   0.10969 276646.080000
    748    762     1   0.10969 276646.080000
    750    763     1   0.10969 276646.080000
    750    764     1   0.10969 276646.080000
    752    765     1   0.10910 283424.160000
    752    766     1   0.10910 283424.160000
    753    767     1   0.10969 276646.080000
    753    768     1   0.10969 276646.080000
    754    769     1   0.10129 337397.760000
    771    772     1   0.10129 337397.760000
    773    774     1   0.10969 276646.080000
    773    776     1   0.10969 276646.080000
    775    777     1   0.10969 276646.080000
    775    778     1   0.10969 276646.080000
    779    844     1   0.10304 312293.760000
    780    789     1   0.10969 276646.080000
    780    790     1   0.10969 276646.080000
    781    782     1   0.10969 276646.080000
    781    784     1   0.10969 276646.080000
    783    785     1   0.10969 276646.080000
    783    786     1   0.10969 276646.080000
    791    792     1   0.10969 276646.080000
    791    793     1   0.10969 276646.080000
    796    798     1   0.10969 276646.080000
    797    816     1   0.10969 276646.080000
    799    803     1   0.10969 276646.080000
    800    802     1   0.10969 276646.080000
    801    804     1   0.10961 277566.560000
    805    815     1   0.09730 310787.520000
    806    808     1   0.09730 310787.520000
    807    810     1   0.10969 276646.080000
    807    811     1   0.10969 276646.080000
    809    819     1   0.10190 328360.320000
    812    813     1   0.09730 310787.520000
    817    818     1   0.09730 310787.520000
    820    822     1   0.10969 276646.080000
    821    840     1   0.10969 276646.080000
    823    827     1   0.10969 276646.080000
    824    826     1   0.10969 276646.080000
    825    828     1   0.10961 277566.560000
    829    839     1   0.09730 310787.520000
    830    832     1   0.09730 310787.520000
    831    834     1   0.10969 276646.080000
    831    835     1   0.10969 276646.080000
    833    843     1   0.10190 328360.320000
    836    837     1   0.09730 310787.520000
    841    842     1   0.09730 310787.520000
    845    846     1   0.10129 337397.760000
    847    848     1   0.10969 276646.080000
    847    850     1   0.10969 276646.080000
    849    851     1   0.10969 276646.080000
    849    852     1   0.10969 276646.080000
    853    918     1   0.10304 312293.760000
    854    863     1   0.10969 276646.080000
    854    864     1   0.10969 276646.080000
    855    856     1   0.10969 276646.080000
    855    858     1   0.10969 276646.080000
    857    859     1   0.10969 276646.080000
    857    860     1   0.10969 276646.080000
    865    866     1   0.10969 276646.080000
    865    867     1   0.10969 276646.080000
    870    872     1   0.10969 276646.080000
    871    890     1   0.10969 276646.080000
    873    877     1   0.10969 276646.080000
    874    876     1   0.10969 276646.080000
    875    878     1   0.10961 277566.560000
    879    889     1   0.09730 310787.520000
    880    882     1   0.09730 310787.520000
    881    884     1   0.10969 276646.080000
    881    885     1   0.10969 276646.080000
    883    893     1   0.10190 328360.320000
    886    887     1   0.09730 310787.520000
    891    892     1   0.09730 310787.520000
    894    896     1   0.10969 276646.080000
    895    914     1   0.10969 276646.080000
    897    901     1   0.10969 276646.080000
    898    900     1   0.10969 276646.080000
    899    902     1   0.10961 277566.560000
    903    913     1   0.09730 310787.520000
    904    906     1   0.09730 310787.520000
    905    908     1   0.10969 276646.080000
    905    909     1   0.10969 276646.080000
    907    917     1   0.10190 328360.320000
    910    911     1   0.09730 310787.520000
    915    916     1   0.09730 310787.520000
    919    920     1   0.10129 337397.760000
    921    922     1   0.10969 276646.080000
    921    924     1   0.10969 276646.080000
    923    925     1   0.10969 276646.080000
    923    926     1   0.10969 276646.080000
    927    992     1   0.10304 312293.760000
    928    937     1   0.10969 276646.080000
    928    938     1   0.10969 276646.080000
    929    930     1   0.10969 276646.080000
    929    932     1   0.10969 276646.080000
    931    933     1   0.10969 276646.080000
    931    934     1   0.10969 276646.080000
    939    940     1   0.10969 276646.080000
    939    941     1   0.10969 276646.080000
    944    946     1   0.10969 276646.080000
    945    964     1   0.10969 276646.080000
    947    951     1   0.10969 276646.080000
    948    950     1   0.10969 276646.080000
    949    952     1   0.10961 277566.560000
    953    963     1   0.09730 310787.520000
    954    956     1   0.09730 310787.520000
    955    958     1   0.10969 276646.080000
    955    959     1   0.10969 276646.080000
    957    967     1   0.10190 328360.320000
    960    961     1   0.09730 310787.520000
    965    966     1   0.09730 310787.520000
    968    970     1   0.10969 276646.080000
    969    988     1   0.10969 276646.080000
    971    975     1   0.10969 276646.080000
    972    974     1   0.10969 276646.080000
    973    976     1   0.10961 277566.560000
    977    987     1   0.09730 310787.520000
    978    980     1   0.09730 310787.520000
    979    982     1   0.10969 276646.080000
    979    983     1   0.10969 276646.080000
    981    991     1   0.10190 328360.320000
    984    985     1   0.09730 310787.520000
    989    990     1   0.09730 310787.520000
    993    994     1   0.10129 337397.760000
    995    996     1   0.10969 276646.080000
    995    998     1   0.10969 276646.080000
    997    999     1   0.10969 276646.080000
    997   1000     1   0.10969 276646.080000
   1001   1066     1   0.10304 312293.760000
   1002   1011     1   0.10969 276646.080000
   1002   1012     1   0.10969 276646.080000
   1003   1004     1   0.10969 276646.080000
   1003   1006     1   0.10969 276646.080000
   1005   1007     1   0.10969 276646.080000
   1005   1008     1   0.10969 276646.080000
   1013   1014     1   0.10969 276646.080000
   1013   1015     1   0.10969 276646.080000
   1018   1020     1   0.10969 276646.080000
   1019   1038     1   0.10969 276646.080000
   1021   1025     1   0.10969 276646.080000
   1022   1024     1   0.10969 276646.080000
   1023   1026     1   0.10961 277566.560000
   1027   1037     1   0.09730 310787.520000
   1028   1030     1   0.09730 310787.520000
   1029   1032     1   0.10969 276646.080000
   1029   1033     1   0.10969 276646.080000
   1031   1041     1   0.10190 328360.320000
   1034   1035     1   0.09730 310787.520000
   1039   1040     1   0.09730 310787.520000
   1042   1044     1   0.10969 276646.080000
   1043   1062     1   0.10969 276646.080000
   1045   1049     1   0.10969 276646.080000
   1046   1048     1   0.10969 276646.080000
   1047   1050     1   0.10961 277566.560000
   1051   1061     1   0.09730 310787.520000
   1052   1054     1   0.09730 310787.520000
   1053   1056     1   0.10969 276646.080000
   1053   1057     1   0.10969 276646.080000
   1055   1065     1   0.10190 328360.320000
   1058   1059     1   0.09730 310787.520000
   1063   1064     1   0.09730 310787.520000
   1067   1068     1   0.10129 337397.760000
   1069   1070     1   0.10969 276646.080000
   1069   1072     1   0.10969 276646.080000
   1071   1073     1   0.10969 276646.080000
   1071   1074     1   0.10969 276646.080000
   1075   1140     1   0.10304 312293.760000
   1076   1085     1   0.10969 276646.080000
   1076   1086     1   0.10969 276646.080000
   1077   1078     1   0.10969 276646.080000
   1077   1080     1   0.10969 276646.080000
   1079   1081     1   0.10969 276646.080000
   1079   1082     1   0.10969 276646.080000
   1087   1088     1   0.10969 276646.080000
   1087   1089     1   0.10969 276646.080000
   1092   1094     1   0.10969 276646.080000
   1093   1112     1   0.10969 276646.080000
   1095   1099     1   0.10969 276646.080000
   1096   1098     1   0.10969 276646.080000
   1097   1100     1   0.10961 277566.560000
   1101   1111     1   0.09730 310787.520000
   1102   1104     1   0.09730 310787.520000
   1103   1106     1   0.10969 276646.080000
   1103   1107     1   0.10969 276646.080000
   1105   1115     1   0.10190 328360.320000
   1108   1109     1   0.09730 310787.520000
   1113   1114     1   0.09730 310787.520000
   1116   1118     1   0.10969 276646.080000
   1117   1136     1   0.10969 276646.080000
   1119   1123     1   0.10969 276646.080000
   1120   1122     1   0.10969 276646.080000
   1121   1124     1   0.10961 277566.560000
   1125   1135     1   0.09730 310787.520000
   1126   1128     1   0.09730 310787.520000
   1127   1130     1   0.10969 276646.080000
   1127   1131     1   0.10969 276646.080000
   1129   1139     1   0.10190 328360.320000
   1132   1133     1   0.09730 310787.520000
   1137   1138     1   0.09730 310787.520000
   1141   1142     1   0.10129 337397.760000
   1143   1144     1   0.10969 276646.080000
   1143   1146     1   0.10969 276646.080000
   1145   1147     1   0.10969 276646.080000
   1145   1148     1   0.10969 276646.080000
   1149   1214     1   0.10304 312293.760000
   1150   1159     1   0.10969 276646.080000
   1150   1160     1   0.10969 276646.080000
   1151   1152     1   0.10969 276646.080000
   1151   1154     1   0.10969 276646.080000
   1153   1155     1   0.10969 276646.080000
   1153   1156     1   0.10969 276646.080000
   1161   1162     1   0.10969 276646.080000
   1161   1163     1   0.10969 276646.080000
   1166   1168     1   0.10969 276646.080000
   1167   1186     1   0.10969 276646.080000
   1169   1173     1   0.10969 276646.080000
   1170   1172     1   0.10969 276646.080000
   1171   1174     1   0.10961 277566.560000
   1175   1185     1   0.09730 310787.520000
   1176   1178     1   0.09730 310787.520000
   1177   1180     1   0.10969 276646.080000
   1177   1181     1   0.10969 276646.080000
   1179   1189     1   0.10190 328360.320000
   1182   1183     1   0.09730 310787.520000
   1187   1188     1   0.09730 310787.520000
   1190   1192     1   0.10969 276646.080000
   1191   1210     1   0.10969 276646.080000
   1193   1197     1   0.10969 276646.080000
   1194   1196     1   0.10969 276646.080000
   1195   1198     1   0.10961 277566.560000
   1199   1209     1   0.09730 310787.520000
   1200   1202     1   0.09730 310787.520000
   1201   1204     1   0.10969 276646.080000
   1201   1205     1   0.10969 276646.080000
   1203   1213     1   0.10190 328360.320000
   1206   1207     1   0.09730 310787.520000
   1211   1212     1   0.09730 310787.520000
   1215   1216     1   0.10129 337397.760000
   1217   1218     1   0.10969 276646.080000
   1217   1220     1   0.10969 276646.080000
   1219   1221     1   0.10969 276646.080000
   1219   1222     1   0.10969 276646.080000
   1223   1288     1   0.10304 312293.760000
   1224   1233     1   0.10969 276646.080000
   1224   1234     1   0.10969 276646.080000
   1225   1226     1   0.10969 276646.080000
   1225   1228     1   0.10969 276646.080000
   1227   1229     1   0.10969 276646.080000
   1227   1230     1   0.10969 276646.080000
   1235   1236     1   0.10969 276646.080000
   1235   1237     1   0.10969 276646.080000
   1240   1242     1   0.10969 276646.080000
   1241   1260     1   0.10969 276646.080000
   1243   1247     1   0.10969 276646.080000
   1244   1246     1   0.10969 276646.080000
   1245   1248     1   0.10961 277566.560000
   1249   1259     1   0.09730 310787.520000
   1250   1252     1   0.09730 310787.520000
   1251   1254     1   0.10969 276646.080000
   1251   1255     1   0.10969 276646.080000
   1253   1263     1   0.10190 328360.320000
   1256   1257     1   0.09730 310787.520000
   1261   1262     1   0.09730 310787.520000
   1264   1266     1   0.10969 276646.080000
   1265   1284     1   0.10969 276646.080000
   1267   1271     1   0.10969 276646.080000
   1268   1270     1   0.10969 276646.080000
   1269   1272     1   0.10961 277566.560000
   1273   1283     1   0.09730 310787.520000
   1274   1276     1   0.09730 310787.520000
   1275   1278     1   0.10969 276646.080000
   1275   1279     1   0.10969 276646.080000
   1277   1287     1   0.10190 328360.320000
   1280   1281     1   0.09730 310787.520000
   1285   1286     1   0.09730 310787.520000
   1289   1290     1   0.10129 337397.760000
   1291   1292     1   0.10969 276646.080000
   1291   1294     1   0.10969 276646.080000
   1293   1295     1   0.10969 276646.080000
   1293   1296     1   0.10969 276646.080000
   1297   1362     1   0.10304 312293.760000
   1298   1307     1   0.10969 276646.080000
   1298   1308     1   0.10969 276646.080000
   1299   1300     1   0.10969 276646.080000
   1299   1302     1   0.10969 276646.080000
   1301   1303     1   0.10969 276646.080000
   1301   1304     1   0.10969 276646.080000
   1309   1310     1   0.10969 276646.080000
   1309   1311     1   0.10969 276646.080000
   1314   1316     1   0.10969 276646.080000
   1315   1334     1   0.10969 276646.080000
   1317   1321     1   0.10969 276646.080000
   1318   1320     1   0.10969 276646.080000
   1319   1322     1   0.10961 277566.560000
   1323   1333     1   0.09730 310787.520000
   1324   1326     1   0.09730 310787.520000
   1325   1328     1   0.10969 276646.080000
   1325   1329     1   0.10969 276646.080000
   1327   1337     1   0.10190 328360.320000
   1330   1331     1   0.09730 310787.520000
   1335   1336     1   0.09730 310787.520000
   1338   1340     1   0.10969 276646.080000
   1339   1358     1   0.10969 276646.080000
   1341   1345     1   0.10969 276646.080000
   1342   1344     1   0.10969 276646.080000
   1343   1346     1   0.10961 277566.560000
   1347   1357     1   0.09730 310787.520000
   1348   1350     1   0.09730 310787.520000
   1349   1352     1   0.10969 276646.080000
   1349   1353     1   0.10969 276646.080000
   1351   1361     1   0.10190 328360.320000
   1354   1355     1   0.09730 310787.520000
   1359   1360     1   0.09730 310787.520000
   1363   1364     1   0.10129 337397.760000
   1365   1366     1   0.10969 276646.080000
   1365   1368     1   0.10969 276646.080000
   1367   1369     1   0.10969 276646.080000
   1367   1370     1   0.10969 276646.080000
   1371   1436     1   0.10304 312293.760000
   1372   1381     1   0.10969 276646.080000
   1372   1382     1   0.10969 276646.080000
   1373   1374     1   0.10969 276646.080000
   1373   1376     1   0.10969 276646.080000
   1375   1377     1   0.10969 276646.080000
   1375   1378     1   0.10969 276646.080000
   1383   1384     1   0.10969 276646.080000
   1383   1385     1   0.10969 276646.080000
   1388   1390     1   0.10969 276646.080000
   1389   1408     1   0.10969 276646.080000
   1391   1395     1   0.10969 276646.080000
   1392   1394     1   0.10969 276646.080000
   1393   1396     1   0.10961 277566.560000
   1397   1407     1   0.09730 310787.520000
   1398   1400     1   0.09730 310787.520000
   1399   1402     1   0.10969 276646.080000
   1399   1403     1   0.10969 276646.080000
   1401   1411     1   0.10190 328360.320000
   1404   1405     1   0.09730 310787.520000
   1409   1410     1   0.09730 310787.520000
   1412   1414     1   0.10969 276646.080000
   1413   1432     1   0.10969 276646.080000
   1415   1419     1   0.10969 276646.080000
   1416   1418     1   0.10969 276646.080000
   1417   1420     1   0.10961 277566.560000
   1421   1431     1   0.09730 310787.520000
   1422   1424     1   0.09730 310787.520000
   1423   1426     1   0.10969 276646.080000
   1423   1427     1   0.10969 276646.080000
   1425   1435     1   0.10190 328360.320000
   1428   1429     1   0.09730 310787.520000
   1433   1434     1   0.09730 310787.520000
   1437   1438     1   0.10129 337397.760000
   1439   1440     1   0.10969 276646.080000
   1439   1442     1   0.10969 276646.080000
   1441   1443     1   0.10969 276646.080000
   1441   1444     1   0.10969 276646.080000
   1445   1510     1   0.10304 312293.760000
   1446   1455     1   0.10969 276646.080000
   1446   1456     1   0.10969 276646.080000
   1447   1448     1   0.10969 276646.080000
   1447   1450     1   0.10969 276646.080000
   1449   1451     1   0.10969 276646.080000
   1449   1452     1   0.10969 276646.080000
   1457   1458     1   0.10969 276646.080000
   1457   1459     1   0.10969 276646.080000
   1462   1464     1   0.10969 276646.080000
   1463   1482     1   0.10969 276646.080000
   1465   1469     1   0.10969 276646.080000
   1466   1468     1   0.10969 276646.080000
   1467   1470     1   0.10961 277566.560000
   1471   1481     1   0.09730 310787.520000
   1472   1474     1   0.09730 310787.520000
   1473   1476     1   0.10969 276646.080000
   1473   1477     1   0.10969 276646.080000
   1475   1485     1   0.10190 328360.320000
   1478   1479     1   0.09730 310787.520000
   1483   1484     1   0.09730 310787.520000
   1486   1488     1   0.10969 276646.080000
   1487   1506     1   0.10969 276646.080000
   1489   1493     1   0.10969 276646.080000
   1490   1492     1   0.10969 276646.080000
   1491   1494     1   0.10961 277566.560000
   1495   1505     1   0.09730 310787.520000
   1496   1498     1   0.09730 310787.520000
   1497   1500     1   0.10969 276646.080000
   1497   1501     1   0.10969 276646.080000
   1499   1509     1   0.10190 328360.320000
   1502   1503     1   0.09730 310787.520000
   1507   1508     1   0.09730 310787.520000
   1511   1512     1   0.10129 337397.760000
   1513   1514     1   0.10969 276646.080000
   1513   1516     1   0.10969 276646.080000
   1515   1517     1   0.10969 276646.080000
   1515   1518     1   0.10969 276646.080000
   1519   1584     1   0.10304 312293.760000
   1520   1529     1   0.10969 276646.080000
   1520   1530     1   0.10969 276646.080000
   1521   1522     1   0.10969 276646.080000
   1521   1524     1   0.10969 276646.080000
   1523   1525     1   0.10969 276646.080000
   1523   1526     1   0.10969 276646.080000
   1531   1532     1   0.10969 276646.080000
   1531   1533     1   0.10969 276646.080000
   1536   1538     1   0.10969 276646.080000
   1537   1556     1   0.10969 276646.080000
   1539   1543     1   0.10969 276646.080000
   1540   1542     1   0.10969 276646.080000
   1541   1544     1   0.10961 277566.560000
   1545   1555     1   0.09730 310787.520000
   1546   1548     1   0.09730 310787.520000
   1547   1550     1   0.10969 276646.080000
   1547   1551     1   0.10969 276646.080000
   1549   1559     1   0.10190 328360.320000
   1552   1553     1   0.09730 310787.520000
   1557   1558     1   0.09730 310787.520000
   1560   1562     1   0.10969 276646.080000
   1561   1580     1   0.10969 276646.080000
   1563   1567     1   0.10969 276646.080000
   1564   1566     1   0.10969 276646.080000
   1565   1568     1   0.10961 277566.560000
   1569   1579     1   0.09730 310787.520000
   1570   1572     1   0.09730 310787.520000
   1571   1574     1   0.10969 276646.080000
   1571   1575     1   0.10969 276646.080000
   1573   1583     1   0.10190 328360.320000
   1576   1577     1   0.09730 310787.520000
   1581   1582     1   0.09730 310787.520000
   1585   1586     1   0.10129 337397.760000
   1587   1588     1   0.10969 276646.080000
   1587   1590     1   0.10969 276646.080000
   1589   1591     1   0.10969 276646.080000
   1589   1592     1   0.10969 276646.080000
   1593   1658     1   0.10304 312293.760000
   1594   1603     1   0.10969 276646.080000
   1594   1604     1   0.10969 276646.080000
   1595   1596     1   0.10969 276646.080000
   1595   1598     1   0.10969 276646.080000
   1597   1599     1   0.10969 276646.080000
   1597   1600     1   0.10969 276646.080000
   1605   1606     1   0.10969 276646.080000
   1605   1607     1   0.10969 276646.080000
   1610   1612     1   0.10969 276646.080000
   1611   1630     1   0.10969 276646.080000
   1613   1617     1   0.10969 276646.080000
   1614   1616     1   0.10969 276646.080000
   1615   1618     1   0.10961 277566.560000
   1619   1629     1   0.09730 310787.520000
   1620   1622     1   0.09730 310787.520000
   1621   1624     1   0.10969 276646.080000
   1621   1625     1   0.10969 276646.080000
   1623   1633     1   0.10190 328360.320000
   1626   1627     1   0.09730 310787.520000
   1631   1632     1   0.09730 310787.520000
   1634   1636     1   0.10969 276646.080000
   1635   1654     1   0.10969 276646.080000
   1637   1641     1   0.10969 276646.080000
   1638   1640     1   0.10969 276646.080000
   1639   1642     1   0.10961 277566.560000
   1643   1653     1   0.09730 310787.520000
   1644   1646     1   0.09730 310787.520000
   1645   1648     1   0.10969 276646.080000
   1645   1649     1   0.10969 276646.080000
   1647   1657     1   0.10190 328360.320000
   1650   1651     1   0.09730 310787.520000
   1655   1656     1   0.09730 310787.520000
   1659   1660     1   0.10129 337397.760000
   1661   1662     1   0.10969 276646.080000
   1661   1664     1   0.10969 276646.080000
   1663   1665     1   0.10969 276646.080000
   1663   1666     1   0.10969 276646.080000
   1667   1732     1   0.10304 312293.760000
   1668   1677     1   0.10969 276646.080000
   1668   1678     1   0.10969 276646.080000
   1669   1670     1   0.10969 276646.080000
   1669   1672     1   0.10969 276646.080000
   1671   1673     1   0.10969 276646.080000
   1671   1674     1   0.10969 276646.080000
   1679   1680     1   0.10969 276646.080000
   1679   1681     1   0.10969 276646.080000
   1684   1686     1   0.10969 276646.080000
   1685   1704     1   0.10969 276646.080000
   1687   1691     1   0.10969 276646.080000
   1688   1690     1   0.10969 276646.080000
   1689   1692     1   0.10961 277566.560000
   1693   1703     1   0.09730 310787.520000
   1694   1696     1   0.09730 310787.520000
   1695   1698     1   0.10969 276646.080000
   1695   1699     1   0.10969 276646.080000
   1697   1707     1   0.10190 328360.320000
   1700   1701     1   0.09730 310787.520000
   1705   1706     1   0.09730 310787.520000
   1708   1710     1   0.10969 276646.080000
   1709   1728     1   0.10969 276646.080000
   1711   1715     1   0.10969 276646.080000
   1712   1714     1   0.10969 276646.080000
   1713   1716     1   0.10961 277566.560000
   1717   1727     1   0.09730 310787.520000
   1718   1720     1   0.09730 310787.520000
   1719   1722     1   0.10969 276646.080000
   1719   1723     1   0.10969 276646.080000
   1721   1731     1   0.10190 328360.320000
   1724   1725     1   0.09730 310787.520000
   1729   1730     1   0.09730 310787.520000
   1733   1734     1   0.10129 337397.760000
   1735   1736     1   0.10969 276646.080000
   1735   1738     1   0.10969 276646.080000
   1737   1739     1   0.10969 276646.080000
   1737   1740     1   0.10969 276646.080000
   1741   1806     1   0.10304 312293.760000
   1742   1751     1   0.10969 276646.080000
   1742   1752     1   0.10969 276646.080000
   1743   1744     1   0.10969 276646.080000
   1743   1746     1   0.10969 276646.080000
   1745   1747     1   0.10969 276646.080000
   1745   1748     1   0.10969 276646.080000
   1753   1754     1   0.10969 276646.080000
   1753   1755     1   0.10969 276646.080000
   1758   1760     1   0.10969 276646.080000
   1759   1778     1   0.10969 276646.080000
   1761   1765     1   0.10969 276646.080000
   1762   1764     1   0.10969 276646.080000
   1763   1766     1   0.10961 277566.560000
   1767   1777     1   0.09730 310787.520000
   1768   1770     1   0.09730 310787.520000
   1769   1772     1   0.10969 276646.080000
   1769   1773     1   0.10969 276646.080000
   1771   1781     1   0.10190 328360.320000
   1774   1775     1   0.09730 310787.520000
   1779   1780     1   0.09730 310787.520000
   1782   1784     1   0.10969 276646.080000
   1783   1802     1   0.10969 276646.080000
   1785   1789     1   0.10969 276646.080000
   1786   1788     1   0.10969 276646.080000
   1787   1790     1   0.10961 277566.560000
   1791   1801     1   0.09730 310787.520000
   1792   1794     1   0.09730 310787.520000
   1793   1796     1   0.10969 276646.080000
   1793   1797     1   0.10969 276646.080000
   1795   1805     1   0.10190 328360.320000
   1798   1799     1   0.09730 310787.520000
   1803   1804     1   0.09730 310787.520000
   1807   1808     1   0.10129 337397.760000
   1809   1810     1   0.10969 276646.080000
   1809   1812     1   0.10969 276646.080000
   1811   1813     1   0.10969 276646.080000
   1811   1814     1   0.10969 276646.080000
   1815   1880     1   0.10304 312293.760000
   1816   1825     1   0.10969 276646.080000
   1816   1826     1   0.10969 276646.080000
   1817   1818     1   0.10969 276646.080000
   1817   1820     1   0.10969 276646.080000
   1819   1821     1   0.10969 276646.080000
   1819   1822     1   0.10969 276646.080000
   1827   1828     1   0.10969 276646.080000
   1827   1829     1   0.10969 276646.080000
   1832   1834     1   0.10969 276646.080000
   1833   1852     1   0.10969 276646.080000
   1835   1839     1   0.10969 276646.080000
   1836   1838     1   0.10969 276646.080000
   1837   1840     1   0.10961 277566.560000
   1841   1851     1   0.09730 310787.520000
   1842   1844     1   0.09730 310787.520000
   1843   1846     1   0.10969 276646.080000
   1843   1847     1   0.10969 276646.080000
   1845   1855     1   0.10190 328360.320000
   1848   1849     1   0.09730 310787.520000
   1853   1854     1   0.09730 310787.520000
   1856   1858     1   0.10969 276646.080000
   1857   1876     1   0.10969 276646.080000
   1859   1863     1   0.10969 276646.080000
   1860   1862     1   0.10969 276646.080000
   1861   1864     1   0.10961 277566.560000
   1865   1875     1   0.09730 310787.520000
   1866   1868     1   0.09730 310787.520000
   1867   1870     1   0.10969 276646.080000
   1867   1871     1   0.10969 276646.080000
   1869   1879     1   0.10190 328360.320000
   1872   1873     1   0.09730 310787.520000
   1877   1878     1   0.09730 310787.520000
   1881   1882     1   0.10129 337397.760000
   1883   1884     1   0.10969 276646.080000
   1883   1886     1   0.10969 276646.080000
   1885   1887     1   0.10969 276646.080000
   1885   1888     1   0.10969 276646.080000
   1889   1954     1   0.10304 312293.760000
   1890   1899     1   0.10969 276646.080000
   1890   1900     1   0.10969 276646.080000
   1891   1892     1   0.10969 276646.080000
   1891   1894     1   0.10969 276646.080000
   1893   1895     1   0.10969 276646.080000
   1893   1896     1   0.10969 276646.080000
   1901   1902     1   0.10969 276646.080000
   1901   1903     1   0.10969 276646.080000
   1906   1908     1   0.10969 276646.080000
   1907   1926     1   0.10969 276646.080000
   1909   1913     1   0.10969 276646.080000
   1910   1912     1   0.10969 276646.080000
   1911   1914     1   0.10961 277566.560000
   1915   1925     1   0.09730 310787.520000
   1916   1918     1   0.09730 310787.520000
   1917   1920     1   0.10969 276646.080000
   1917   1921     1   0.10969 276646.080000
   1919   1929     1   0.10190 328360.320000
   1922   1923     1   0.09730 310787.520000
   1927   1928     1   0.09730 310787.520000
   1930   1932     1   0.10969 276646.080000
   1931   1950     1   0.10969 276646.080000
   1933   1937     1   0.10969 276646.080000
   1934   1936     1   0.10969 276646.080000
   1935   1938     1   0.10961 277566.560000
   1939   1949     1   0.09730 310787.520000
   1940   1942     1   0.09730 310787.520000
   1941   1944     1   0.10969 276646.080000
   1941   1945     1   0.10969 276646.080000
   1943   1953     1   0.10190 328360.320000
   1946   1947     1   0.09730 310787.520000
   1951   1952     1   0.09730 310787.520000
   1955   1956     1   0.10129 337397.760000
   1957   1958     1   0.10969 276646.080000
   1957   1960     1   0.10969 276646.080000
   1959   1961     1   0.10969 276646.080000
   1959   1962     1   0.10969 276646.080000
   1963   2028     1   0.10304 312293.760000
   1964   1973     1   0.10969 276646.080000
   1964   1974     1   0.10969 276646.080000
   1965   1966     1   0.10969 276646.080000
   1965   1968     1   0.10969 276646.080000
   1967   1969     1   0.10969 276646.080000
   1967   1970     1   0.10969 276646.080000
   1975   1976     1   0.10969 276646.080000
   1975   1977     1   0.10969 276646.080000
   1980   1982     1   0.10969 276646.080000
   1981   2000     1   0.10969 276646.080000
   1983   1987     1   0.10969 276646.080000
   1984   1986     1   0.10969 276646.080000
   1985   1988     1   0.10961 277566.560000
   1989   1999     1   0.09730 310787.520000
   1990   1992     1   0.09730 310787.520000
   1991   1994     1   0.10969 276646.080000
   1991   1995     1   0.10969 276646.080000
   1993   2003     1   0.10190 328360.320000
   1996   1997     1   0.09730 310787.520000
   2001   2002     1   0.09730 310787.520000
   2004   2006     1   0.10969 276646.080000
   2005   2024     1   0.10969 276646.080000
   2007   2011     1   0.10969 276646.080000
   2008   2010     1   0.10969 276646.080000
   2009   2012     1   0.10961 277566.560000
   2013   2023     1   0.09730 310787.520000
   2014   2016     1   0.09730 310787.520000
   2015   2018     1   0.10969 276646.080000
   2015   2019     1   0.10969 276646.080000
   2017   2027     1   0.10190 328360.320000
   2020   2021     1   0.09730 310787.520000
   2025   2026     1   0.09730 310787.520000
   2029   2030     1   0.10129 337397.760000
   2031   2032     1   0.10969 276646.080000
   2031   2034     1   0.10969 276646.080000
   2033   2035     1   0.10969 276646.080000
   2033   2036     1   0.10969 276646.080000
   2037   2102     1   0.10304 312293.760000
   2038   2047     1   0.10969 276646.080000
   2038   2048     1   0.10969 276646.080000
   2039   2040     1   0.10969 276646.080000
   2039   2042     1   0.10969 276646.080000
   2041   2043     1   0.10969 276646.080000
   2041   2044     1   0.10969 276646.080000
   2049   2050     1   0.10969 276646.080000
   2049   2051     1   0.10969 276646.080000
   2054   2056     1   0.10969 276646.080000
   2055   2074     1   0.10969 276646.080000
   2057   2061     1   0.10969 276646.080000
   2058   2060     1   0.10969 276646.080000
   2059   2062     1   0.10961 277566.560000
   2063   2073     1   0.09730 310787.520000
   2064   2066     1   0.09730 310787.520000
   2065   2068     1   0.10969 276646.080000
   2065   2069     1   0.10969 276646.080000
   2067   2077     1   0.10190 328360.320000
   2070   2071     1   0.09730 310787.520000
   2075   2076     1   0.09730 310787.520000
   2078   2080     1   0.10969 276646.080000
   2079   2098     1   0.10969 276646.080000
   2081   2085     1   0.10969 276646.080000
   2082   2084     1   0.10969 276646.080000
   2083   2086     1   0.10961 277566.560000
   2087   2097     1   0.09730 310787.520000
   2088   2090     1   0.09730 310787.520000
   2089   2092     1   0.10969 276646.080000
   2089   2093     1   0.10969 276646.080000
   2091   2101     1   0.10190 328360.320000
   2094   2095     1   0.09730 310787.520000
   2099   2100     1   0.09730 310787.520000
   2103   2104     1   0.10129 337397.760000
   2105   2106     1   0.10969 276646.080000
   2105   2108     1   0.10969 276646.080000
   2107   2109     1   0.10969 276646.080000
   2107   2110     1   0.10969 276646.080000
   2111   2176     1   0.10304 312293.760000
   2112   2121     1   0.10969 276646.080000
   2112   2122     1   0.10969 276646.080000
   2113   2114     1   0.10969 276646.080000
   2113   2116     1   0.10969 276646.080000
   2115   2117     1   0.10969 276646.080000
   2115   2118     1   0.10969 276646.080000
   2123   2124     1   0.10969 276646.080000
   2123   2125     1   0.10969 276646.080000
   2128   2130     1   0.10969 276646.080000
   2129   2148     1   0.10969 276646.080000
   2131   2135     1   0.10969 276646.080000
   2132   2134     1   0.10969 276646.080000
   2133   2136     1   0.10961 277566.560000
   2137   2147     1   0.09730 310787.520000
   2138   2140     1   0.09730 310787.520000
   2139   2142     1   0.10969 276646.080000
   2139   2143     1   0.10969 276646.080000
   2141   2151     1   0.10190 328360.320000
   2144   2145     1   0.09730 310787.520000
   2149   2150     1   0.09730 310787.520000
   2152   2154     1   0.10969 276646.080000
   2153   2172     1   0.10969 276646.080000
   2155   2159     1   0.10969 276646.080000
   2156   2158     1   0.10969 276646.080000
   2157   2160     1   0.10961 277566.560000
   2161   2171     1   0.09730 310787.520000
   2162   2164     1   0.09730 310787.520000
   2163   2166     1   0.10969 276646.080000
   2163   2167     1   0.10969 276646.080000
   2165   2175     1   0.10190 328360.320000
   2168   2169     1   0.09730 310787.520000
   2173   2174     1   0.09730 310787.520000
   2177   2178     1   0.10129 337397.760000
   2179   2180     1   0.10969 276646.080000
   2179   2182     1   0.10969 276646.080000
   2181   2183     1   0.10969 276646.080000
   2181   2184     1   0.10969 276646.080000
   2185   2250     1   0.10304 312293.760000
   2186   2195     1   0.10969 276646.080000
   2186   2196     1   0.10969 276646.080000
   2187   2188     1   0.10969 276646.080000
   2187   2190     1   0.10969 276646.080000
   2189   2191     1   0.10969 276646.080000
   2189   2192     1   0.10969 276646.080000
   2197   2198     1   0.10969 276646.080000
   2197   2199     1   0.10969 276646.080000
   2202   2204     1   0.10969 276646.080000
   2203   2222     1   0.10969 276646.080000
   2205   2209     1   0.10969 276646.080000
   2206   2208     1   0.10969 276646.080000
   2207   2210     1   0.10961 277566.560000
   2211   2221     1   0.09730 310787.520000
   2212   2214     1   0.09730 310787.520000
   2213   2216     1   0.10969 276646.080000
   2213   2217     1   0.10969 276646.080000
   2215   2225     1   0.10190 328360.320000
   2218   2219     1   0.09730 310787.520000
   2223   2224     1   0.09730 310787.520000
   2226   2228     1   0.10969 276646.080000
   2227   2246     1   0.10969 276646.080000
   2229   2233     1   0.10969 276646.080000
   2230   2232     1   0.10969 276646.080000
   2231   2234     1   0.10961 277566.560000
   2235   2245     1   0.09730 310787.520000
   2236   2238     1   0.09730 310787.520000
   2237   2240     1   0.10969 276646.080000
   2237   2241     1   0.10969 276646.080000
   2239   2249     1   0.10190 328360.320000
   2242   2243     1   0.09730 310787.520000
   2247   2248     1   0.09730 310787.520000
   2251   2252     1   0.10129 337397.760000
   2253   2254     1   0.10969 276646.080000
   2253   2256     1   0.10969 276646.080000
   2255   2257     1   0.10969 276646.080000
   2255   2258     1   0.10969 276646.080000
   2259   2324     1   0.10304 312293.760000
   2260   2269     1   0.10969 276646.080000
   2260   2270     1   0.10969 276646.080000
   2261   2262     1   0.10969 276646.080000
   2261   2264     1   0.10969 276646.080000
   2263   2265     1   0.10969 276646.080000
   2263   2266     1   0.10969 276646.080000
   2271   2272     1   0.10969 276646.080000
   2271   2273     1   0.10969 276646.080000
   2276   2278     1   0.10969 276646.080000
   2277   2296     1   0.10969 276646.080000
   2279   2283     1   0.10969 276646.080000
   2280   2282     1   0.10969 276646.080000
   2281   2284     1   0.10961 277566.560000
   2285   2295     1   0.09730 310787.520000
   2286   2288     1   0.09730 310787.520000
   2287   2290     1   0.10969 276646.080000
   2287   2291     1   0.10969 276646.080000
   2289   2299     1   0.10190 328360.320000
   2292   2293     1   0.09730 310787.520000
   2297   2298     1   0.09730 310787.520000
   2300   2302     1   0.10969 276646.080000
   2301   2320     1   0.10969 276646.080000
   2303   2307     1   0.10969 276646.080000
   2304   2306     1   0.10969 276646.080000
   2305   2308     1   0.10961 277566.560000
   2309   2319     1   0.09730 310787.520000
   2310   2312     1   0.09730 310787.520000
   2311   2314     1   0.10969 276646.080000
   2311   2315     1   0.10969 276646.080000
   2313   2323     1   0.10190 328360.320000
   2316   2317     1   0.09730 310787.520000
   2321   2322     1   0.09730 310787.520000
   2325   2326     1   0.10129 337397.760000
   2327   2328     1   0.10969 276646.080000
   2327   2330     1   0.10969 276646.080000
   2329   2331     1   0.10969 276646.080000
   2329   2332     1   0.10969 276646.080000
   2333   2398     1   0.10304 312293.760000
   2334   2343     1   0.10969 276646.080000
   2334   2344     1   0.10969 276646.080000
   2335   2336     1   0.10969 276646.080000
   2335   2338     1   0.10969 276646.080000
   2337   2339     1   0.10969 276646.080000
   2337   2340     1   0.10969 276646.080000
   2345   2346     1   0.10969 276646.080000
   2345   2347     1   0.10969 276646.080000
   2350   2352     1   0.10969 276646.080000
   2351   2370     1   0.10969 276646.080000
   2353   2357     1   0.10969 276646.080000
   2354   2356     1   0.10969 276646.080000
   2355   2358     1   0.10961 277566.560000
   2359   2369     1   0.09730 310787.520000
   2360   2362     1   0.09730 310787.520000
   2361   2364     1   0.10969 276646.080000
   2361   2365     1   0.10969 276646.080000
   2363   2373     1   0.10190 328360.320000
   2366   2367     1   0.09730 310787.520000
   2371   2372     1   0.09730 310787.520000
   2374   2376     1   0.10969 276646.080000
   2375   2394     1   0.10969 276646.080000
   2377   2381     1   0.10969 276646.080000
   2378   2380     1   0.10969 276646.080000
   2379   2382     1   0.10961 277566.560000
   2383   2393     1   0.09730 310787.520000
   2384   2386     1   0.09730 310787.520000
   2385   2388     1   0.10969 276646.080000
   2385   2389     1   0.10969 276646.080000
   2387   2397     1   0.10190 328360.320000
   2390   2391     1   0.09730 310787.520000
   2395   2396     1   0.09730 310787.520000
   2399   2400     1   0.10129 337397.760000
   2401   2402     1   0.10969 276646.080000
   2401   2404     1   0.10969 276646.080000
   2403   2405     1   0.10969 276646.080000
   2403   2406     1   0.10969 276646.080000
   2407   2472     1   0.10304 312293.760000
   2408   2417     1   0.10969 276646.080000
   2408   2418     1   0.10969 276646.080000
   2409   2410     1   0.10969 276646.080000
   2409   2412     1   0.10969 276646.080000
   2411   2413     1   0.10969 276646.080000
   2411   2414     1   0.10969 276646.080000
   2419   2420     1   0.10969 276646.080000
   2419   2421     1   0.10969 276646.080000
   2424   2426     1   0.10969 276646.080000
   2425   2444     1   0.10969 276646.080000
   2427   2431     1   0.10969 276646.080000
   2428   2430     1   0.10969 276646.080000
   2429   2432     1   0.10961 277566.560000
   2433   2443     1   0.09730 310787.520000
   2434   2436     1   0.09730 310787.520000
   2435   2438     1   0.10969 276646.080000
   2435   2439     1   0.10969 276646.080000
   2437   2447     1   0.10190 328360.320000
   2440   2441     1   0.09730 310787.520000
   2445   2446     1   0.09730 310787.520000
   2448   2450     1   0.10969 276646.080000
   2449   2468     1   0.10969 276646.080000
   2451   2455     1   0.10969 276646.080000
   2452   2454     1   0.10969 276646.080000
   2453   2456     1   0.10961 277566.560000
   2457   2467     1   0.09730 310787.520000
   2458   2460     1   0.09730 310787.520000
   2459   2462     1   0.10969 276646.080000
   2459   2463     1   0.10969 276646.080000
   2461   2471     1   0.10190 328360.320000
   2464   2465     1   0.09730 310787.520000
   2469   2470     1   0.09730 310787.520000
   2473   2474     1   0.10129 337397.760000
   2475   2476     1   0.10969 276646.080000
   2475   2478     1   0.10969 276646.080000
   2477   2479     1   0.10969 276646.080000
   2477   2480     1   0.10969 276646.080000
   2481   2546     1   0.10304 312293.760000
   2482   2491     1   0.10969 276646.080000
   2482   2492     1   0.10969 276646.080000
   2483   2484     1   0.10969 276646.080000
   2483   2486     1   0.10969 276646.080000
   2485   2487     1   0.10969 276646.080000
   2485   2488     1   0.10969 276646.080000
   2493   2494     1   0.10969 276646.080000
   2493   2495     1   0.10969 276646.080000
   2498   2500     1   0.10969 276646.080000
   2499   2518     1   0.10969 276646.080000
   2501   2505     1   0.10969 276646.080000
   2502   2504     1   0.10969 276646.080000
   2503   2506     1   0.10961 277566.560000
   2507   2517     1   0.09730 310787.520000
   2508   2510     1   0.09730 310787.520000
   2509   2512     1   0.10969 276646.080000
   2509   2513     1   0.10969 276646.080000
   2511   2521     1   0.10190 328360.320000
   2514   2515     1   0.09730 310787.520000
   2519   2520     1   0.09730 310787.520000
   2522   2524     1   0.10969 276646.080000
   2523   2542     1   0.10969 276646.080000
   2525   2529     1   0.10969 276646.080000
   2526   2528     1   0.10969 276646.080000
   2527   2530     1   0.10961 277566.560000
   2531   2541     1   0.09730 310787.520000
   2532   2534     1   0.09730 310787.520000
   2533   2536     1   0.10969 276646.080000
   2533   2537     1   0.10969 276646.080000
   2535   2545     1   0.10190 328360.320000
   2538   2539     1   0.09730 310787.520000
   2543   2544     1   0.09730 310787.520000
   2547   2548     1   0.10129 337397.760000
   2549   2550     1   0.10969 276646.080000
   2549   2552     1   0.10969 276646.080000
   2551   2553     1   0.10969 276646.080000
   2551   2554     1   0.10969 276646.080000
   2555   2620     1   0.10304 312293.760000
   2556   2565     1   0.10969 276646.080000
   2556   2566     1   0.10969 276646.080000
   2557   2558     1   0.10969 276646.080000
   2557   2560     1   0.10969 276646.080000
   2559   2561     1   0.10969 276646.080000
   2559   2562     1   0.10969 276646.080000
   2567   2568     1   0.10969 276646.080000
   2567   2569     1   0.10969 276646.080000
   2572   2574     1   0.10969 276646.080000
   2573   2592     1   0.10969 276646.080000
   2575   2579     1   0.10969 276646.080000
   2576   2578     1   0.10969 276646.080000
   2577   2580     1   0.10961 277566.560000
   2581   2591     1   0.09730 310787.520000
   2582   2584     1   0.09730 310787.520000
   2583   2586     1   0.10969 276646.080000
   2583   2587     1   0.10969 276646.080000
   2585   2595     1   0.10190 328360.320000
   2588   2589     1   0.09730 310787.520000
   2593   2594     1   0.09730 310787.520000
   2596   2598     1   0.10969 276646.080000
   2597   2616     1   0.10969 276646.080000
   2599   2603     1   0.10969 276646.080000
   2600   2602     1   0.10969 276646.080000
   2601   2604     1   0.10961 277566.560000
   2605   2615     1   0.09730 310787.520000
   2606   2608     1   0.09730 310787.520000
   2607   2610     1   0.10969 276646.080000
   2607   2611     1   0.10969 276646.080000
   2609   2619     1   0.10190 328360.320000
   2612   2613     1   0.09730 310787.520000
   2617   2618     1   0.09730 310787.520000
   2621   2622     1   0.10129 337397.760000
   2623   2624     1   0.10969 276646.080000
   2623   2626     1   0.10969 276646.080000
   2625   2627     1   0.10969 276646.080000
   2625   2628     1   0.10969 276646.080000
   2629   2694     1   0.10304 312293.760000
   2630   2639     1   0.10969 276646.080000
   2630   2640     1   0.10969 276646.080000
   2631   2632     1   0.10969 276646.080000
   2631   2634     1   0.10969 276646.080000
   2633   2635     1   0.10969 276646.080000
   2633   2636     1   0.10969 276646.080000
   2641   2642     1   0.10969 276646.080000
   2641   2643     1   0.10969 276646.080000
   2646   2648     1   0.10969 276646.080000
   2647   2666     1   0.10969 276646.080000
   2649   2653     1   0.10969 276646.080000
   2650   2652     1   0.10969 276646.080000
   2651   2654     1   0.10961 277566.560000
   2655   2665     1   0.09730 310787.520000
   2656   2658     1   0.09730 310787.520000
   2657   2660     1   0.10969 276646.080000
   2657   2661     1   0.10969 276646.080000
   2659   2669     1   0.10190 328360.320000
   2662   2663     1   0.09730 310787.520000
   2667   2668     1   0.09730 310787.520000
   2670   2672     1   0.10969 276646.080000
   2671   2690     1   0.10969 276646.080000
   2673   2677     1   0.10969 276646.080000
   2674   2676     1   0.10969 276646.080000
   2675   2678     1   0.10961 277566.560000
   2679   2689     1   0.09730 310787.520000
   2680   2682     1   0.09730 310787.520000
   2681   2684     1   0.10969 276646.080000
   2681   2685     1   0.10969 276646.080000
   2683   2693     1   0.10190 328360.320000
   2686   2687     1   0.09730 310787.520000
   2691   2692     1   0.09730 310787.520000
   2695   2696     1   0.10129 337397.760000
   2697   2698     1   0.10969 276646.080000
   2697   2700     1   0.10969 276646.080000
   2699   2701     1   0.10969 276646.080000
   2699   2702     1   0.10969 276646.080000
   2703   2768     1   0.10304 312293.760000
   2704   2713     1   0.10969 276646.080000
   2704   2714     1   0.10969 276646.080000
   2705   2706     1   0.10969 276646.080000
   2705   2708     1   0.10969 276646.080000
   2707   2709     1   0.10969 276646.080000
   2707   2710     1   0.10969 276646.080000
   2715   2716     1   0.10969 276646.080000
   2715   2717     1   0.10969 276646.080000
   2720   2722     1   0.10969 276646.080000
   2721   2740     1   0.10969 276646.080000
   2723   2727     1   0.10969 276646.080000
   2724   2726     1   0.10969 276646.080000
   2725   2728     1   0.10961 277566.560000
   2729   2739     1   0.09730 310787.520000
   2730   2732     1   0.09730 310787.520000
   2731   2734     1   0.10969 276646.080000
   2731   2735     1   0.10969 276646.080000
   2733   2743     1   0.10190 328360.320000
   2736   2737     1   0.09730 310787.520000
   2741   2742     1   0.09730 310787.520000
   2744   2746     1   0.10969 276646.080000
   2745   2764     1   0.10969 276646.080000
   2747   2751     1   0.10969 276646.080000
   2748   2750     1   0.10969 276646.080000
   2749   2752     1   0.10961 277566.560000
   2753   2763     1   0.09730 310787.520000
   2754   2756     1   0.09730 310787.520000
   2755   2758     1   0.10969 276646.080000
   2755   2759     1   0.10969 276646.080000
   2757   2767     1   0.10190 328360.320000
   2760   2761     1   0.09730 310787.520000
   2765   2766     1   0.09730 310787.520000
   2769   2770     1   0.10129 337397.760000
   2771   2772     1   0.10969 276646.080000
   2771   2774     1   0.10969 276646.080000
   2773   2775     1   0.10969 276646.080000
   2773   2776     1   0.10969 276646.080000
   2777   2842     1   0.10304 312293.760000
   2778   2787     1   0.10969 276646.080000
   2778   2788     1   0.10969 276646.080000
   2779   2780     1   0.10969 276646.080000
   2779   2782     1   0.10969 276646.080000
   2781   2783     1   0.10969 276646.080000
   2781   2784     1   0.10969 276646.080000
   2789   2790     1   0.10969 276646.080000
   2789   2791     1   0.10969 276646.080000
   2794   2796     1   0.10969 276646.080000
   2795   2814     1   0.10969 276646.080000
   2797   2801     1   0.10969 276646.080000
   2798   2800     1   0.10969 276646.080000
   2799   2802     1   0.10961 277566.560000
   2803   2813     1   0.09730 310787.520000
   2804   2806     1   0.09730 310787.520000
   2805   2808     1   0.10969 276646.080000
   2805   2809     1   0.10969 276646.080000
   2807   2817     1   0.10190 328360.320000
   2810   2811     1   0.09730 310787.520000
   2815   2816     1   0.09730 310787.520000
   2818   2820     1   0.10969 276646.080000
   2819   2838     1   0.10969 276646.080000
   2821   2825     1   0.10969 276646.080000
   2822   2824     1   0.10969 276646.080000
   2823   2826     1   0.10961 277566.560000
   2827   2837     1   0.09730 310787.520000
   2828   2830     1   0.09730 310787.520000
   2829   2832     1   0.10969 276646.080000
   2829   2833     1   0.10969 276646.080000
   2831   2841     1   0.10190 328360.320000
   2834   2835     1   0.09730 310787.520000
   2839   2840     1   0.09730 310787.520000
   2843   2844     1   0.10129 337397.760000
   2845   2846     1   0.10969 276646.080000
   2845   2848     1   0.10969 276646.080000
   2847   2849     1   0.10969 276646.080000
   2847   2850     1   0.10969 276646.080000
   2851   2916     1   0.10304 312293.760000
   2852   2861     1   0.10969 276646.080000
   2852   2862     1   0.10969 276646.080000
   2853   2854     1   0.10969 276646.080000
   2853   2856     1   0.10969 276646.080000
   2855   2857     1   0.10969 276646.080000
   2855   2858     1   0.10969 276646.080000
   2863   2864     1   0.10969 276646.080000
   2863   2865     1   0.10969 276646.080000
   2868   2870     1   0.10969 276646.080000
   2869   2888     1   0.10969 276646.080000
   2871   2875     1   0.10969 276646.080000
   2872   2874     1   0.10969 276646.080000
   2873   2876     1   0.10961 277566.560000
   2877   2887     1   0.09730 310787.520000
   2878   2880     1   0.09730 310787.520000
   2879   2882     1   0.10969 276646.080000
   2879   2883     1   0.10969 276646.080000
   2881   2891     1   0.10190 328360.320000
   2884   2885     1   0.09730 310787.520000
   2889   2890     1   0.09730 310787.520000
   2892   2894     1   0.10969 276646.080000
   2893   2912     1   0.10969 276646.080000
   2895   2899     1   0.10969 276646.080000
   2896   2898     1   0.10969 276646.080000
   2897   2900     1   0.10961 277566.560000
   2901   2911     1   0.09730 310787.520000
   2902   2904     1   0.09730 310787.520000
   2903   2906     1   0.10969 276646.080000
   2903   2907     1   0.10969 276646.080000
   2905   2915     1   0.10190 328360.320000
   2908   2909     1   0.09730 310787.520000
   2913   2914     1   0.09730 310787.520000
   2917   2918     1   0.10129 337397.760000
   2919   2920     1   0.10969 276646.080000
   2919   2922     1   0.10969 276646.080000
   2921   2923     1   0.10969 276646.080000
   2921   2924     1   0.10969 276646.080000
   2925   2990     1   0.10304 312293.760000
   2926   2935     1   0.10969 276646.080000
   2926   2936     1   0.10969 276646.080000
   2927   2928     1   0.10969 276646.080000
   2927   2930     1   0.10969 276646.080000
   2929   2931     1   0.10969 276646.080000
   2929   2932     1   0.10969 276646.080000
   2937   2938     1   0.10969 276646.080000
   2937   2939     1   0.10969 276646.080000
   2942   2944     1   0.10969 276646.080000
   2943   2962     1   0.10969 276646.080000
   2945   2949     1   0.10969 276646.080000
   2946   2948     1   0.10969 276646.080000
   2947   2950     1   0.10961 277566.560000
   2951   2961     1   0.09730 310787.520000
   2952   2954     1   0.09730 310787.520000
   2953   2956     1   0.10969 276646.080000
   2953   2957     1   0.10969 276646.080000
   2955   2965     1   0.10190 328360.320000
   2958   2959     1   0.09730 310787.520000
   2963   2964     1   0.09730 310787.520000
   2966   2968     1   0.10969 276646.080000
   2967   2986     1   0.10969 276646.080000
   2969   2973     1   0.10969 276646.080000
   2970   2972     1   0.10969 276646.080000
   2971   2974     1   0.10961 277566.560000
   2975   2985     1   0.09730 310787.520000
   2976   2978     1   0.09730 310787.520000
   2977   2980     1   0.10969 276646.080000
   2977   2981     1   0.10969 276646.080000
   2979   2989     1   0.10190 328360.320000
   2982   2983     1   0.09730 310787.520000
   2987   2988     1   0.09730 310787.520000
   2991   2992     1   0.10129 337397.760000
   2993   2994     1   0.10969 276646.080000
   2993   2996     1   0.10969 276646.080000
   2995   2997     1   0.10969 276646.080000
   2995   2998     1   0.10969 276646.080000
   2999   3064     1   0.10304 312293.760000
   3000   3009     1   0.10969 276646.080000
   3000   3010     1   0.10969 276646.080000
   3001   3002     1   0.10969 276646.080000
   3001   3004     1   0.10969 276646.080000
   3003   3005     1   0.10969 276646.080000
   3003   3006     1   0.10969 276646.080000
   3011   3012     1   0.10969 276646.080000
   3011   3013     1   0.10969 276646.080000
   3016   3018     1   0.10969 276646.080000
   3017   3036     1   0.10969 276646.080000
   3019   3023     1   0.10969 276646.080000
   3020   3022     1   0.10969 276646.080000
   3021   3024     1   0.10961 277566.560000
   3025   3035     1   0.09730 310787.520000
   3026   3028     1   0.09730 310787.520000
   3027   3030     1   0.10969 276646.080000
   3027   3031     1   0.10969 276646.080000
   3029   3039     1   0.10190 328360.320000
   3032   3033     1   0.09730 310787.520000
   3037   3038     1   0.09730 310787.520000
   3040   3042     1   0.10969 276646.080000
   3041   3060     1   0.10969 276646.080000
   3043   3047     1   0.10969 276646.080000
   3044   3046     1   0.10969 276646.080000
   3045   3048     1   0.10961 277566.560000
   3049   3059     1   0.09730 310787.520000
   3050   3052     1   0.09730 310787.520000
   3051   3054     1   0.10969 276646.080000
   3051   3055     1   0.10969 276646.080000
   3053   3063     1   0.10190 328360.320000
   3056   3057     1   0.09730 310787.520000
   3061   3062     1   0.09730 310787.520000
   3065   3066     1   0.10129 337397.760000
   3067   3068     1   0.10969 276646.080000
   3067   3070     1   0.10969 276646.080000
   3069   3071     1   0.10969 276646.080000
   3069   3072     1   0.10969 276646.080000
   3073   3138     1   0.10304 312293.760000
   3074   3083     1   0.10969 276646.080000
   3074   3084     1   0.10969 276646.080000
   3075   3076     1   0.10969 276646.080000
   3075   3078     1   0.10969 276646.080000
   3077   3079     1   0.10969 276646.080000
   3077   3080     1   0.10969 276646.080000
   3085   3086     1   0.10969 276646.080000
   3085   3087     1   0.10969 276646.080000
   3090   3092     1   0.10969 276646.080000
   3091   3110     1   0.10969 276646.080000
   3093   3097     1   0.10969 276646.080000
   3094   3096     1   0.10969 276646.080000
   3095   3098     1   0.10961 277566.560000
   3099   3109     1   0.09730 310787.520000
   3100   3102     1   0.09730 310787.520000
   3101   3104     1   0.10969 276646.080000
   3101   3105     1   0.10969 276646.080000
   3103   3113     1   0.10190 328360.320000
   3106   3107     1   0.09730 310787.520000
   3111   3112     1   0.09730 310787.520000
   3114   3116     1   0.10969 276646.080000
   3115   3134     1   0.10969 276646.080000
   3117   3121     1   0.10969 276646.080000
   3118   3120     1   0.10969 276646.080000
   3119   3122     1   0.10961 277566.560000
   3123   3133     1   0.09730 310787.520000
   3124   3126     1   0.09730 310787.520000
   3125   3128     1   0.10969 276646.080000
   3125   3129     1   0.10969 276646.080000
   3127   3137     1   0.10190 328360.320000
   3130   3131     1   0.09730 310787.520000
   3135   3136     1   0.09730 310787.520000

[ pairs ]
;    ai     aj funct         c0         c1         c2         c3
      1      4     1
      1     14     1
      1     16     1
      2     13     1
      2     15     1
      2      5     1
      2      6     1
      7      3     1
      8      3     1
      3     11     1
      3      9     1
      4     12     1
      4     10     1
      5      9     1
      5     17     1
      5     78     1
      6     11     1
      6     18     1
      6     52     1
      7     15     1
      7     20     1
      7    104     1
      8     13     1
      8     19     1
      8    130     1
      9     51     1
     10     50     1
     11     77     1
     12     76     1
     13    103     1
     14    102     1
     15    129     1
     16    128     1
     17     77     1
     18     51     1
     19    129     1
     20    103     1
     43     47     1
     43     49     1
     43     52     1
     44     48     1
     44     51     1
     44     53     1
     44    156     1
     45     46     1
     45     51     1
     45     54     1
     45    182     1
     46     50     1
     46    155     1
     47    154     1
     48     50     1
     48    181     1
     49    180     1
     53    155     1
     54    181     1
     69     73     1
     69     75     1
     69     78     1
     70     74     1
     70     77     1
     70     79     1
     70    208     1
     71     72     1
     71     77     1
     71     80     1
     71    234     1
     72     76     1
     72    207     1
     73    206     1
     74     76     1
     74    233     1
     75    232     1
     79    207     1
     80    233     1
     95     99     1
     95    101     1
     95    104     1
     96    100     1
     96    103     1
     96    105     1
     96    260     1
     97     98     1
     97    103     1
     97    106     1
     97    286     1
     98    102     1
     98    259     1
     99    258     1
    100    102     1
    100    285     1
    101    284     1
    105    259     1
    106    285     1
    121    125     1
    121    127     1
    121    130     1
    122    126     1
    122    129     1
    122    131     1
    122    312     1
    123    124     1
    123    129     1
    123    132     1
    123    338     1
    124    128     1
    124    311     1
    125    310     1
    126    128     1
    126    337     1
    127    336     1
    131    311     1
    132    337     1
    147    151     1
    147    153     1
    147    156     1
    148    152     1
    148    155     1
    148    157     1
    148    364     1
    149    150     1
    149    155     1
    149    158     1
    149    390     1
    150    154     1
    150    363     1
    151    362     1
    152    154     1
    152    389     1
    153    388     1
    157    363     1
    158    389     1
    173    177     1
    173    179     1
    173    182     1
    174    178     1
    174    181     1
    174    183     1
    174    416     1
    175    176     1
    175    181     1
    175    184     1
    175    442     1
    176    180     1
    176    415     1
    177    414     1
    178    180     1
    178    441     1
    179    440     1
    183    415     1
    184    441     1
    199    203     1
    199    205     1
    199    208     1
    200    204     1
    200    207     1
    200    209     1
    200    468     1
    201    202     1
    201    207     1
    201    210     1
    201    494     1
    202    206     1
    202    467     1
    203    466     1
    204    206     1
    204    493     1
    205    492     1
    209    467     1
    210    493     1
    225    229     1
    225    231     1
    225    234     1
    226    230     1
    226    233     1
    226    235     1
    226    520     1
    227    228     1
    227    233     1
    227    236     1
    227    546     1
    228    232     1
    228    519     1
    229    518     1
    230    232     1
    230    545     1
    231    544     1
    235    519     1
    236    545     1
    251    255     1
    251    257     1
    251    260     1
    252    256     1
    252    259     1
    252    261     1
    252    572     1
    253    254     1
    253    259     1
    253    262     1
    253    598     1
    254    258     1
    254    571     1
    255    570     1
    256    258     1
    256    597     1
    257    596     1
    261    571     1
    262    597     1
    277    281     1
    277    283     1
    277    286     1
    278    282     1
    278    285     1
    278    287     1
    278    624     1
    279    280     1
    279    285     1
    279    288     1
    279    650     1
    280    284     1
    280    623     1
    281    622     1
    282    284     1
    282    649     1
    283    648     1
    287    623     1
    288    649     1
    303    307     1
    303    309     1
    303    312     1
    304    308     1
    304    311     1
    304    313     1
    304    676     1
    305    306     1
    305    311     1
    305    314     1
    305    702     1
    306    310     1
    306    675     1
    307    674     1
    308    310     1
    308    701     1
    309    700     1
    313    675     1
    314    701     1
    329    333     1
    329    335     1
    329    338     1
    330    334     1
    330    337     1
    330    339     1
    330    728     1
    331    332     1
    331    337     1
    331    340     1
    331    754     1
    332    336     1
    332    727     1
    333    726     1
    334    336     1
    334    753     1
    335    752     1
    339    727     1
    340    753     1
    355    359     1
    355    361     1
    355    364     1
    356    360     1
    356    363     1
    356    771     1
    356    365     1
    357    358     1
    357    363     1
    357    366     1
    357    845     1
    358    362     1
    358    773     1
    359    775     1
    360    362     1
    360    847     1
    361    849     1
    365    773     1
    366    847     1
    381    385     1
    381    387     1
    381    390     1
    382    386     1
    382    389     1
    382    919     1
    382    391     1
    383    384     1
    383    389     1
    383    392     1
    383    993     1
    384    388     1
    384    921     1
    385    923     1
    386    388     1
    386    995     1
    387    997     1
    391    921     1
    392    995     1
    407    411     1
    407    413     1
    407    416     1
    408    412     1
    408    415     1
    408   1067     1
    408    417     1
    409    410     1
    409    415     1
    409    418     1
    409   1141     1
    410    414     1
    410   1069     1
    411   1071     1
    412    414     1
    412   1143     1
    413   1145     1
    417   1069     1
    418   1143     1
    433    437     1
    433    439     1
    433    442     1
    434    438     1
    434    441     1
    434   1215     1
    434    443     1
    435    436     1
    435    441     1
    435    444     1
    435   1289     1
    436    440     1
    436   1217     1
    437   1219     1
    438    440     1
    438   1291     1
    439   1293     1
    443   1217     1
    444   1291     1
    459    463     1
    459    465     1
    459    468     1
    460    464     1
    460    467     1
    460   1363     1
    460    469     1
    461    462     1
    461    467     1
    461    470     1
    461   1437     1
    462    466     1
    462   1365     1
    463   1367     1
    464    466     1
    464   1439     1
    465   1441     1
    469   1365     1
    470   1439     1
    485    489     1
    485    491     1
    485    494     1
    486    490     1
    486    493     1
    486   1511     1
    486    495     1
    487    488     1
    487    493     1
    487    496     1
    487   1585     1
    488    492     1
    488   1513     1
    489   1515     1
    490    492     1
    490   1587     1
    491   1589     1
    495   1513     1
    496   1587     1
    511    515     1
    511    517     1
    511    520     1
    512    516     1
    512    519     1
    512   1659     1
    512    521     1
    513    514     1
    513    519     1
    513    522     1
    513   1733     1
    514    518     1
    514   1661     1
    515   1663     1
    516    518     1
    516   1735     1
    517   1737     1
    521   1661     1
    522   1735     1
    537    541     1
    537    543     1
    537    546     1
    538    542     1
    538    545     1
    538   1807     1
    538    547     1
    539    540     1
    539    545     1
    539    548     1
    539   1881     1
    540    544     1
    540   1809     1
    541   1811     1
    542    544     1
    542   1883     1
    543   1885     1
    547   1809     1
    548   1883     1
    563    567     1
    563    569     1
    563    572     1
    564    568     1
    564    571     1
    564   1955     1
    564    573     1
    565    566     1
    565    571     1
    565    574     1
    565   2029     1
    566    570     1
    566   1957     1
    567   1959     1
    568    570     1
    568   2031     1
    569   2033     1
    573   1957     1
    574   2031     1
    589    593     1
    589    595     1
    589    598     1
    590    594     1
    590    597     1
    590   2103     1
    590    599     1
    591    592     1
    591    597     1
    591    600     1
    591   2177     1
    592    596     1
    592   2105     1
    593   2107     1
    594    596     1
    594   2179     1
    595   2181     1
    599   2105     1
    600   2179     1
    615    619     1
    615    621     1
    615    624     1
    616    620     1
    616    623     1
    616   2251     1
    616    625     1
    617    618     1
    617    623     1
    617    626     1
    617   2325     1
    618    622     1
    618   2253     1
    619   2255     1
    620    622     1
    620   2327     1
    621   2329     1
    625   2253     1
    626   2327     1
    641    645     1
    641    647     1
    641    650     1
    642    646     1
    642    649     1
    642   2399     1
    642    651     1
    643    644     1
    643    649     1
    643    652     1
    643   2473     1
    644    648     1
    644   2401     1
    645   2403     1
    646    648     1
    646   2475     1
    647   2477     1
    651   2401     1
    652   2475     1
    667    671     1
    667    673     1
    667    676     1
    668    672     1
    668    675     1
    668   2547     1
    668    677     1
    669    670     1
    669    675     1
    669    678     1
    669   2621     1
    670    674     1
    670   2549     1
    671   2551     1
    672    674     1
    672   2623     1
    673   2625     1
    677   2549     1
    678   2623     1
    693    697     1
    693    699     1
    693    702     1
    694    698     1
    694    701     1
    694   2695     1
    694    703     1
    695    696     1
    695    701     1
    695    704     1
    695   2769     1
    696    700     1
    696   2697     1
    697   2699     1
    698    700     1
    698   2771     1
    699   2773     1
    703   2697     1
    704   2771     1
    719    723     1
    719    725     1
    719    728     1
    720    724     1
    720    727     1
    720   2843     1
    720    729     1
    721    722     1
    721    727     1
    721    730     1
    721   2917     1
    722    726     1
    722   2845     1
    723   2847     1
    724    726     1
    724   2919     1
    725   2921     1
    729   2845     1
    730   2919     1
    745    749     1
    745    751     1
    745    754     1
    746    750     1
    746    753     1
    746   2991     1
    746    755     1
    747    748     1
    747    753     1
    747   3065     1
    747    756     1
    748    752     1
    748   2993     1
    749   2995     1
    750    752     1
    750   3067     1
    751   3069     1
    755   2993     1
    756   3067     1
    771    779     1
    773    780     1
    773    781     1
    775    791     1
    775    783     1
    779    794     1
    779    787     1
    780    783     1
    780    795     1
    780    843     1
    781    791     1
    781    788     1
    781    819     1
    783    800     1
    787    799     1
    787    801     1
    788    800     1
    791    824     1
    794    823     1
    794    825     1
    795    824     1
    796    800     1
    796    806     1
    796    805     1
    797    812     1
    797    801     1
    797    819     1
    799    807     1
    799    814     1
    799    805     1
    800    817     1
    801    806     1
    801    807     1
    805    819     1
    806    817     1
    806    819     1
    807    817     1
    812    814     1
    814    817     1
    814    819     1
    820    824     1
    820    830     1
    820    829     1
    821    836     1
    821    825     1
    821    843     1
    823    831     1
    823    838     1
    823    829     1
    824    841     1
    825    830     1
    825    831     1
    829    843     1
    830    841     1
    830    843     1
    831    841     1
    836    838     1
    838    841     1
    838    843     1
    845    853     1
    847    854     1
    847    855     1
    849    865     1
    849    857     1
    853    868     1
    853    861     1
    854    869     1
    854    917     1
    854    857     1
    855    862     1
    855    893     1
    855    865     1
    857    874     1
    861    875     1
    861    873     1
    862    874     1
    865    898     1
    868    899     1
    868    897     1
    869    898     1
    870    874     1
    870    880     1
    870    879     1
    871    875     1
    871    893     1
    871    886     1
    873    879     1
    873    888     1
    873    881     1
    874    891     1
    875    881     1
    875    880     1
    879    893     1
    880    893     1
    880    891     1
    881    891     1
    886    888     1
    888    893     1
    888    891     1
    894    898     1
    894    904     1
    894    903     1
    895    899     1
    895    917     1
    895    910     1
    897    903     1
    897    912     1
    897    905     1
    898    915     1
    899    905     1
    899    904     1
    903    917     1
    904    917     1
    904    915     1
    905    915     1
    910    912     1
    912    917     1
    912    915     1
    919    927     1
    921    928     1
    921    929     1
    923    939     1
    923    931     1
    927    942     1
    927    935     1
    928    931     1
    928    943     1
    928    991     1
    929    939     1
    929    936     1
    929    967     1
    931    948     1
    935    947     1
    935    949     1
    936    948     1
    939    972     1
    942    971     1
    942    973     1
    943    972     1
    944    948     1
    944    954     1
    944    953     1
    945    960     1
    945    949     1
    945    967     1
    947    955     1
    947    962     1
    947    953     1
    948    965     1
    949    954     1
    949    955     1
    953    967     1
    954    965     1
    954    967     1
    955    965     1
    960    962     1
    962    965     1
    962    967     1
    968    972     1
    968    978     1
    968    977     1
    969    984     1
    969    973     1
    969    991     1
    971    979     1
    971    986     1
    971    977     1
    972    989     1
    973    978     1
    973    979     1
    977    991     1
    978    989     1
    978    991     1
    979    989     1
    984    986     1
    986    989     1
    986    991     1
    993   1001     1
    995   1002     1
    995   1003     1
    997   1013     1
    997   1005     1
   1001   1016     1
   1001   1009     1
   1002   1017     1
   1002   1065     1
   1002   1005     1
   1003   1010     1
   1003   1041     1
   1003   1013     1
   1005   1022     1
   1009   1023     1
   1009   1021     1
   1010   1022     1
   1013   1046     1
   1016   1047     1
   1016   1045     1
   1017   1046     1
   1018   1022     1
   1018   1028     1
   1018   1027     1
   1019   1023     1
   1019   1041     1
   1019   1034     1
   1021   1027     1
   1021   1036     1
   1021   1029     1
   1022   1039     1
   1023   1029     1
   1023   1028     1
   1027   1041     1
   1028   1041     1
   1028   1039     1
   1029   1039     1
   1034   1036     1
   1036   1041     1
   1036   1039     1
   1042   1046     1
   1042   1052     1
   1042   1051     1
   1043   1047     1
   1043   1065     1
   1043   1058     1
   1045   1051     1
   1045   1060     1
   1045   1053     1
   1046   1063     1
   1047   1053     1
   1047   1052     1
   1051   1065     1
   1052   1065     1
   1052   1063     1
   1053   1063     1
   1058   1060     1
   1060   1065     1
   1060   1063     1
   1067   1075     1
   1069   1076     1
   1069   1077     1
   1071   1087     1
   1071   1079     1
   1075   1090     1
   1075   1083     1
   1076   1079     1
   1076   1091     1
   1076   1139     1
   1077   1087     1
   1077   1084     1
   1077   1115     1
   1079   1096     1
   1083   1095     1
   1083   1097     1
   1084   1096     1
   1087   1120     1
   1090   1119     1
   1090   1121     1
   1091   1120     1
   1092   1096     1
   1092   1102     1
   1092   1101     1
   1093   1108     1
   1093   1097     1
   1093   1115     1
   1095   1103     1
   1095   1110     1
   1095   1101     1
   1096   1113     1
   1097   1102     1
   1097   1103     1
   1101   1115     1
   1102   1113     1
   1102   1115     1
   1103   1113     1
   1108   1110     1
   1110   1113     1
   1110   1115     1
   1116   1120     1
   1116   1126     1
   1116   1125     1
   1117   1132     1
   1117   1121     1
   1117   1139     1
   1119   1127     1
   1119   1134     1
   1119   1125     1
   1120   1137     1
   1121   1126     1
   1121   1127     1
   1125   1139     1
   1126   1137     1
   1126   1139     1
   1127   1137     1
   1132   1134     1
   1134   1137     1
   1134   1139     1
   1141   1149     1
   1143   1150     1
   1143   1151     1
   1145   1161     1
   1145   1153     1
   1149   1164     1
   1149   1157     1
   1150   1165     1
   1150   1213     1
   1150   1153     1
   1151   1158     1
   1151   1189     1
   1151   1161     1
   1153   1170     1
   1157   1171     1
   1157   1169     1
   1158   1170     1
   1161   1194     1
   1164   1195     1
   1164   1193     1
   1165   1194     1
   1166   1170     1
   1166   1176     1
   1166   1175     1
   1167   1171     1
   1167   1189     1
   1167   1182     1
   1169   1175     1
   1169   1184     1
   1169   1177     1
   1170   1187     1
   1171   1177     1
   1171   1176     1
   1175   1189     1
   1176   1189     1
   1176   1187     1
   1177   1187     1
   1182   1184     1
   1184   1189     1
   1184   1187     1
   1190   1194     1
   1190   1200     1
   1190   1199     1
   1191   1195     1
   1191   1213     1
   1191   1206     1
   1193   1199     1
   1193   1208     1
   1193   1201     1
   1194   1211     1
   1195   1201     1
   1195   1200     1
   1199   1213     1
   1200   1213     1
   1200   1211     1
   1201   1211     1
   1206   1208     1
   1208   1213     1
   1208   1211     1
   1215   1223     1
   1217   1224     1
   1217   1225     1
   1219   1235     1
   1219   1227     1
   1223   1238     1
   1223   1231     1
   1224   1227     1
   1224   1239     1
   1224   1287     1
   1225   1235     1
   1225   1232     1
   1225   1263     1
   1227   1244     1
   1231   1243     1
   1231   1245     1
   1232   1244     1
   1235   1268     1
   1238   1267     1
   1238   1269     1
   1239   1268     1
   1240   1244     1
   1240   1250     1
   1240   1249     1
   1241   1256     1
   1241   1245     1
   1241   1263     1
   1243   1251     1
   1243   1258     1
   1243   1249     1
   1244   1261     1
   1245   1250     1
   1245   1251     1
   1249   1263     1
   1250   1261     1
   1250   1263     1
   1251   1261     1
   1256   1258     1
   1258   1261     1
   1258   1263     1
   1264   1268     1
   1264   1274     1
   1264   1273     1
   1265   1280     1
   1265   1269     1
   1265   1287     1
   1267   1275     1
   1267   1282     1
   1267   1273     1
   1268   1285     1
   1269   1274     1
   1269   1275     1
   1273   1287     1
   1274   1285     1
   1274   1287     1
   1275   1285     1
   1280   1282     1
   1282   1285     1
   1282   1287     1
   1289   1297     1
   1291   1298     1
   1291   1299     1
   1293   1309     1
   1293   1301     1
   1297   1312     1
   1297   1305     1
   1298   1313     1
   1298   1361     1
   1298   1301     1
   1299   1306     1
   1299   1337     1
   1299   1309     1
   1301   1318     1
   1305   1319     1
   1305   1317     1
   1306   1318     1
   1309   1342     1
   1312   1343     1
   1312   1341     1
   1313   1342     1
   1314   1318     1
   1314   1324     1
   1314   1323     1
   1315   1319     1
   1315   1337     1
   1315   1330     1
   1317   1323     1
   1317   1332     1
   1317   1325     1
   1318   1335     1
   1319   1325     1
   1319   1324     1
   1323   1337     1
   1324   1337     1
   1324   1335     1
   1325   1335     1
   1330   1332     1
   1332   1337     1
   1332   1335     1
   1338   1342     1
   1338   1348     1
   1338   1347     1
   1339   1343     1
   1339   1361     1
   1339   1354     1
   1341   1347     1
   1341   1356     1
   1341   1349     1
   1342   1359     1
   1343   1349     1
   1343   1348     1
   1347   1361     1
   1348   1361     1
   1348   1359     1
   1349   1359     1
   1354   1356     1
   1356   1361     1
   1356   1359     1
   1363   1371     1
   1365   1372     1
   1365   1373     1
   1367   1383     1
   1367   1375     1
   1371   1386     1
   1371   1379     1
   1372   1375     1
   1372   1387     1
   1372   1435     1
   1373   1383     1
   1373   1380     1
   1373   1411     1
   1375   1392     1
   1379   1391     1
   1379   1393     1
   1380   1392     1
   1383   1416     1
   1386   1415     1
   1386   1417     1
   1387   1416     1
   1388   1392     1
   1388   1398     1
   1388   1397     1
   1389   1404     1
   1389   1393     1
   1389   1411     1
   1391   1399     1
   1391   1406     1
   1391   1397     1
   1392   1409     1
   1393   1398     1
   1393   1399     1
   1397   1411     1
   1398   1409     1
   1398   1411     1
   1399   1409     1
   1404   1406     1
   1406   1409     1
   1406   1411     1
   1412   1416     1
   1412   1422     1
   1412   1421     1
   1413   1428     1
   1413   1417     1
   1413   1435     1
   1415   1423     1
   1415   1430     1
   1415   1421     1
   1416   1433     1
   1417   1422     1
   1417   1423     1
   1421   1435     1
   1422   1433     1
   1422   1435     1
   1423   1433     1
   1428   1430     1
   1430   1433     1
   1430   1435     1
   1437   1445     1
   1439   1446     1
   1439   1447     1
   1441   1457     1
   1441   1449     1
   1445   1460     1
   1445   1453     1
   1446   1461     1
   1446   1509     1
   1446   1449     1
   1447   1454     1
   1447   1485     1
   1447   1457     1
   1449   1466     1
   1453   1467     1
   1453   1465     1
   1454   1466     1
   1457   1490     1
   1460   1491     1
   1460   1489     1
   1461   1490     1
   1462   1466     1
   1462   1472     1
   1462   1471     1
   1463   1467     1
   1463   1485     1
   1463   1478     1
   1465   1471     1
   1465   1480     1
   1465   1473     1
   1466   1483     1
   1467   1473     1
   1467   1472     1
   1471   1485     1
   1472   1485     1
   1472   1483     1
   1473   1483     1
   1478   1480     1
   1480   1485     1
   1480   1483     1
   1486   1490     1
   1486   1496     1
   1486   1495     1
   1487   1491     1
   1487   1509     1
   1487   1502     1
   1489   1495     1
   1489   1504     1
   1489   1497     1
   1490   1507     1
   1491   1497     1
   1491   1496     1
   1495   1509     1
   1496   1509     1
   1496   1507     1
   1497   1507     1
   1502   1504     1
   1504   1509     1
   1504   1507     1
   1511   1519     1
   1513   1520     1
   1513   1521     1
   1515   1531     1
   1515   1523     1
   1519   1534     1
   1519   1527     1
   1520   1523     1
   1520   1535     1
   1520   1583     1
   1521   1531     1
   1521   1528     1
   1521   1559     1
   1523   1540     1
   1527   1539     1
   1527   1541     1
   1528   1540     1
   1531   1564     1
   1534   1563     1
   1534   1565     1
   1535   1564     1
   1536   1540     1
   1536   1546     1
   1536   1545     1
   1537   1552     1
   1537   1541     1
   1537   1559     1
   1539   1547     1
   1539   1554     1
   1539   1545     1
   1540   1557     1
   1541   1546     1
   1541   1547     1
   1545   1559     1
   1546   1557     1
   1546   1559     1
   1547   1557     1
   1552   1554     1
   1554   1557     1
   1554   1559     1
   1560   1564     1
   1560   1570     1
   1560   1569     1
   1561   1576     1
   1561   1565     1
   1561   1583     1
   1563   1571     1
   1563   1578     1
   1563   1569     1
   1564   1581     1
   1565   1570     1
   1565   1571     1
   1569   1583     1
   1570   1581     1
   1570   1583     1
   1571   1581     1
   1576   1578     1
   1578   1581     1
   1578   1583     1
   1585   1593     1
   1587   1594     1
   1587   1595     1
   1589   1605     1
   1589   1597     1
   1593   1608     1
   1593   1601     1
   1594   1609     1
   1594   1657     1
   1594   1597     1
   1595   1602     1
   1595   1633     1
   1595   1605     1
   1597   1614     1
   1601   1615     1
   1601   1613     1
   1602   1614     1
   1605   1638     1
   1608   1639     1
   1608   1637     1
   1609   1638     1
   1610   1614     1
   1610   1620     1
   1610   1619     1
   1611   1615     1
   1611   1633     1
   1611   1626     1
   1613   1619     1
   1613   1628     1
   1613   1621     1
   1614   1631     1
   1615   1621     1
   1615   1620     1
   1619   1633     1
   1620   1633     1
   1620   1631     1
   1621   1631     1
   1626   1628     1
   1628   1633     1
   1628   1631     1
   1634   1638     1
   1634   1644     1
   1634   1643     1
   1635   1639     1
   1635   1657     1
   1635   1650     1
   1637   1643     1
   1637   1652     1
   1637   1645     1
   1638   1655     1
   1639   1645     1
   1639   1644     1
   1643   1657     1
   1644   1657     1
   1644   1655     1
   1645   1655     1
   1650   1652     1
   1652   1657     1
   1652   1655     1
   1659   1667     1
   1661   1668     1
   1661   1669     1
   1663   1679     1
   1663   1671     1
   1667   1682     1
   1667   1675     1
   1668   1671     1
   1668   1683     1
   1668   1731     1
   1669   1679     1
   1669   1676     1
   1669   1707     1
   1671   1688     1
   1675   1687     1
   1675   1689     1
   1676   1688     1
   1679   1712     1
   1682   1711     1
   1682   1713     1
   1683   1712     1
   1684   1688     1
   1684   1694     1
   1684   1693     1
   1685   1700     1
   1685   1689     1
   1685   1707     1
   1687   1695     1
   1687   1702     1
   1687   1693     1
   1688   1705     1
   1689   1694     1
   1689   1695     1
   1693   1707     1
   1694   1705     1
   1694   1707     1
   1695   1705     1
   1700   1702     1
   1702   1705     1
   1702   1707     1
   1708   1712     1
   1708   1718     1
   1708   1717     1
   1709   1724     1
   1709   1713     1
   1709   1731     1
   1711   1719     1
   1711   1726     1
   1711   1717     1
   1712   1729     1
   1713   1718     1
   1713   1719     1
   1717   1731     1
   1718   1729     1
   1718   1731     1
   1719   1729     1
   1724   1726     1
   1726   1729     1
   1726   1731     1
   1733   1741     1
   1735   1742     1
   1735   1743     1
   1737   1753     1
   1737   1745     1
   1741   1756     1
   1741   1749     1
   1742   1757     1
   1742   1805     1
   1742   1745     1
   1743   1750     1
   1743   1781     1
   1743   1753     1
   1745   1762     1
   1749   1763     1
   1749   1761     1
   1750   1762     1
   1753   1786     1
   1756   1787     1
   1756   1785     1
   1757   1786     1
   1758   1762     1
   1758   1768     1
   1758   1767     1
   1759   1763     1
   1759   1781     1
   1759   1774     1
   1761   1767     1
   1761   1776     1
   1761   1769     1
   1762   1779     1
   1763   1769     1
   1763   1768     1
   1767   1781     1
   1768   1781     1
   1768   1779     1
   1769   1779     1
   1774   1776     1
   1776   1781     1
   1776   1779     1
   1782   1786     1
   1782   1792     1
   1782   1791     1
   1783   1787     1
   1783   1805     1
   1783   1798     1
   1785   1791     1
   1785   1800     1
   1785   1793     1
   1786   1803     1
   1787   1793     1
   1787   1792     1
   1791   1805     1
   1792   1805     1
   1792   1803     1
   1793   1803     1
   1798   1800     1
   1800   1805     1
   1800   1803     1
   1807   1815     1
   1809   1816     1
   1809   1817     1
   1811   1827     1
   1811   1819     1
   1815   1830     1
   1815   1823     1
   1816   1819     1
   1816   1831     1
   1816   1879     1
   1817   1827     1
   1817   1824     1
   1817   1855     1
   1819   1836     1
   1823   1835     1
   1823   1837     1
   1824   1836     1
   1827   1860     1
   1830   1859     1
   1830   1861     1
   1831   1860     1
   1832   1836     1
   1832   1842     1
   1832   1841     1
   1833   1848     1
   1833   1837     1
   1833   1855     1
   1835   1843     1
   1835   1850     1
   1835   1841     1
   1836   1853     1
   1837   1842     1
   1837   1843     1
   1841   1855     1
   1842   1853     1
   1842   1855     1
   1843   1853     1
   1848   1850     1
   1850   1853     1
   1850   1855     1
   1856   1860     1
   1856   1866     1
   1856   1865     1
   1857   1872     1
   1857   1861     1
   1857   1879     1
   1859   1867     1
   1859   1874     1
   1859   1865     1
   1860   1877     1
   1861   1866     1
   1861   1867     1
   1865   1879     1
   1866   1877     1
   1866   1879     1
   1867   1877     1
   1872   1874     1
   1874   1877     1
   1874   1879     1
   1881   1889     1
   1883   1890     1
   1883   1891     1
   1885   1901     1
   1885   1893     1
   1889   1904     1
   1889   1897     1
   1890   1905     1
   1890   1953     1
   1890   1893     1
   1891   1898     1
   1891   1929     1
   1891   1901     1
   1893   1910     1
   1897   1911     1
   1897   1909     1
   1898   1910     1
   1901   1934     1
   1904   1935     1
   1904   1933     1
   1905   1934     1
   1906   1910     1
   1906   1916     1
   1906   1915     1
   1907   1911     1
   1907   1929     1
   1907   1922     1
   1909   1915     1
   1909   1924     1
   1909   1917     1
   1910   1927     1
   1911   1917     1
   1911   1916     1
   1915   1929     1
   1916   1929     1
   1916   1927     1
   1917   1927     1
   1922   1924     1
   1924   1929     1
   1924   1927     1
   1930   1934     1
   1930   1940     1
   1930   1939     1
   1931   1935     1
   1931   1953     1
   1931   1946     1
   1933   1939     1
   1933   1948     1
   1933   1941     1
   1934   1951     1
   1935   1941     1
   1935   1940     1
   1939   1953     1
   1940   1953     1
   1940   1951     1
   1941   1951     1
   1946   1948     1
   1948   1953     1
   1948   1951     1
   1955   1963     1
   1957   1964     1
   1957   1965     1
   1959   1975     1
   1959   1967     1
   1963   1978     1
   1963   1971     1
   1964   1967     1
   1964   1979     1
   1964   2027     1
   1965   1975     1
   1965   1972     1
   1965   2003     1
   1967   1984     1
   1971   1983     1
   1971   1985     1
   1972   1984     1
   1975   2008     1
   1978   2007     1
   1978   2009     1
   1979   2008     1
   1980   1984     1
   1980   1990     1
   1980   1989     1
   1981   1996     1
   1981   1985     1
   1981   2003     1
   1983   1991     1
   1983   1998     1
   1983   1989     1
   1984   2001     1
   1985   1990     1
   1985   1991     1
   1989   2003     1
   1990   2001     1
   1990   2003     1
   1991   2001     1
   1996   1998     1
   1998   2001     1
   1998   2003     1
   2004   2008     1
   2004   2014     1
   2004   2013     1
   2005   2020     1
   2005   2009     1
   2005   2027     1
   2007   2015     1
   2007   2022     1
   2007   2013     1
   2008   2025     1
   2009   2014     1
   2009   2015     1
   2013   2027     1
   2014   2025     1
   2014   2027     1
   2015   2025     1
   2020   2022     1
   2022   2025     1
   2022   2027     1
   2029   2037     1
   2031   2038     1
   2031   2039     1
   2033   2049     1
   2033   2041     1
   2037   2052     1
   2037   2045     1
   2038   2053     1
   2038   2101     1
   2038   2041     1
   2039   2046     1
   2039   2077     1
   2039   2049     1
   2041   2058     1
   2045   2059     1
   2045   2057     1
   2046   2058     1
   2049   2082     1
   2052   2083     1
   2052   2081     1
   2053   2082     1
   2054   2058     1
   2054   2064     1
   2054   2063     1
   2055   2059     1
   2055   2077     1
   2055   2070     1
   2057   2063     1
   2057   2072     1
   2057   2065     1
   2058   2075     1
   2059   2065     1
   2059   2064     1
   2063   2077     1
   2064   2077     1
   2064   2075     1
   2065   2075     1
   2070   2072     1
   2072   2077     1
   2072   2075     1
   2078   2082     1
   2078   2088     1
   2078   2087     1
   2079   2083     1
   2079   2101     1
   2079   2094     1
   2081   2087     1
   2081   2096     1
   2081   2089     1
   2082   2099     1
   2083   2089     1
   2083   2088     1
   2087   2101     1
   2088   2101     1
   2088   2099     1
   2089   2099     1
   2094   2096     1
   2096   2101     1
   2096   2099     1
   2103   2111     1
   2105   2112     1
   2105   2113     1
   2107   2123     1
   2107   2115     1
   2111   2126     1
   2111   2119     1
   2112   2115     1
   2112   2127     1
   2112   2175     1
   2113   2123     1
   2113   2120     1
   2113   2151     1
   2115   2132     1
   2119   2131     1
   2119   2133     1
   2120   2132     1
   2123   2156     1
   2126   2155     1
   2126   2157     1
   2127   2156     1
   2128   2132     1
   2128   2138     1
   2128   2137     1
   2129   2144     1
   2129   2133     1
   2129   2151     1
   2131   2139     1
   2131   2146     1
   2131   2137     1
   2132   2149     1
   2133   2138     1
   2133   2139     1
   2137   2151     1
   2138   2149     1
   2138   2151     1
   2139   2149     1
   2144   2146     1
   2146   2149     1
   2146   2151     1
   2152   2156     1
   2152   2162     1
   2152   2161     1
   2153   2168     1
   2153   2157     1
   2153   2175     1
   2155   2163     1
   2155   2170     1
   2155   2161     1
   2156   2173     1
   2157   2162     1
   2157   2163     1
   2161   2175     1
   2162   2173     1
   2162   2175     1
   2163   2173     1
   2168   2170     1
   2170   2173     1
   2170   2175     1
   2177   2185     1
   2179   2186     1
   2179   2187     1
   2181   2197     1
   2181   2189     1
   2185   2200     1
   2185   2193     1
   2186   2201     1
   2186   2249     1
   2186   2189     1
   2187   2194     1
   2187   2225     1
   2187   2197     1
   2189   2206     1
   2193   2207     1
   2193   2205     1
   2194   2206     1
   2197   2230     1
   2200   2231     1
   2200   2229     1
   2201   2230     1
   2202   2206     1
   2202   2212     1
   2202   2211     1
   2203   2207     1
   2203   2225     1
   2203   2218     1
   2205   2211     1
   2205   2220     1
   2205   2213     1
   2206   2223     1
   2207   2213     1
   2207   2212     1
   2211   2225     1
   2212   2225     1
   2212   2223     1
   2213   2223     1
   2218   2220     1
   2220   2225     1
   2220   2223     1
   2226   2230     1
   2226   2236     1
   2226   2235     1
   2227   2231     1
   2227   2249     1
   2227   2242     1
   2229   2235     1
   2229   2244     1
   2229   2237     1
   2230   2247     1
   2231   2237     1
   2231   2236     1
   2235   2249     1
   2236   2249     1
   2236   2247     1
   2237   2247     1
   2242   2244     1
   2244   2249     1
   2244   2247     1
   2251   2259     1
   2253   2260     1
   2253   2261     1
   2255   2271     1
   2255   2263     1
   2259   2274     1
   2259   2267     1
   2260   2263     1
   2260   2275     1
   2260   2323     1
   2261   2271     1
   2261   2268     1
   2261   2299     1
   2263   2280     1
   2267   2279     1
   2267   2281     1
   2268   2280     1
   2271   2304     1
   2274   2303     1
   2274   2305     1
   2275   2304     1
   2276   2280     1
   2276   2286     1
   2276   2285     1
   2277   2292     1
   2277   2281     1
   2277   2299     1
   2279   2287     1
   2279   2294     1
   2279   2285     1
   2280   2297     1
   2281   2286     1
   2281   2287     1
   2285   2299     1
   2286   2297     1
   2286   2299     1
   2287   2297     1
   2292   2294     1
   2294   2297     1
   2294   2299     1
   2300   2304     1
   2300   2310     1
   2300   2309     1
   2301   2316     1
   2301   2305     1
   2301   2323     1
   2303   2311     1
   2303   2318     1
   2303   2309     1
   2304   2321     1
   2305   2310     1
   2305   2311     1
   2309   2323     1
   2310   2321     1
   2310   2323     1
   2311   2321     1
   2316   2318     1
   2318   2321     1
   2318   2323     1
   2325   2333     1
   2327   2334     1
   2327   2335     1
   2329   2345     1
   2329   2337     1
   2333   2348     1
   2333   2341     1
   2334   2349     1
   2334   2397     1
   2334   2337     1
   2335   2342     1
   2335   2373     1
   2335   2345     1
   2337   2354     1
   2341   2355     1
   2341   2353     1
   2342   2354     1
   2345   2378     1
   2348   2379     1
   2348   2377     1
   2349   2378     1
   2350   2354     1
   2350   2360     1
   2350   2359     1
   2351   2355     1
   2351   2373     1
   2351   2366     1
   2353   2359     1
   2353   2368     1
   2353   2361     1
   2354   2371     1
   2355   2361     1
   2355   2360     1
   2359   2373     1
   2360   2373     1
   2360   2371     1
   2361   2371     1
   2366   2368     1
   2368   2373     1
   2368   2371     1
   2374   2378     1
   2374   2384     1
   2374   2383     1
   2375   2379     1
   2375   2397     1
   2375   2390     1
   2377   2383     1
   2377   2392     1
   2377   2385     1
   2378   2395     1
   2379   2385     1
   2379   2384     1
   2383   2397     1
   2384   2397     1
   2384   2395     1
   2385   2395     1
   2390   2392     1
   2392   2397     1
   2392   2395     1
   2399   2407     1
   2401   2408     1
   2401   2409     1
   2403   2419     1
   2403   2411     1
   2407   2422     1
   2407   2415     1
   2408   2411     1
   2408   2423     1
   2408   2471     1
   2409   2419     1
   2409   2416     1
   2409   2447     1
   2411   2428     1
   2415   2427     1
   2415   2429     1
   2416   2428     1
   2419   2452     1
   2422   2451     1
   2422   2453     1
   2423   2452     1
   2424   2428     1
   2424   2434     1
   2424   2433     1
   2425   2440     1
   2425   2429     1
   2425   2447     1
   2427   2435     1
   2427   2442     1
   2427   2433     1
   2428   2445     1
   2429   2434     1
   2429   2435     1
   2433   2447     1
   2434   2445     1
   2434   2447     1
   2435   2445     1
   2440   2442     1
   2442   2445     1
   2442   2447     1
   2448   2452     1
   2448   2458     1
   2448   2457     1
   2449   2464     1
   2449   2453     1
   2449   2471     1
   2451   2459     1
   2451   2466     1
   2451   2457     1
   2452   2469     1
   2453   2458     1
   2453   2459     1
   2457   2471     1
   2458   2469     1
   2458   2471     1
   2459   2469     1
   2464   2466     1
   2466   2469     1
   2466   2471     1
   2473   2481     1
   2475   2482     1
   2475   2483     1
   2477   2493     1
   2477   2485     1
   2481   2496     1
   2481   2489     1
   2482   2497     1
   2482   2545     1
   2482   2485     1
   2483   2490     1
   2483   2521     1
   2483   2493     1
   2485   2502     1
   2489   2503     1
   2489   2501     1
   2490   2502     1
   2493   2526     1
   2496   2527     1
   2496   2525     1
   2497   2526     1
   2498   2502     1
   2498   2508     1
   2498   2507     1
   2499   2503     1
   2499   2521     1
   2499   2514     1
   2501   2507     1
   2501   2516     1
   2501   2509     1
   2502   2519     1
   2503   2509     1
   2503   2508     1
   2507   2521     1
   2508   2521     1
   2508   2519     1
   2509   2519     1
   2514   2516     1
   2516   2521     1
   2516   2519     1
   2522   2526     1
   2522   2532     1
   2522   2531     1
   2523   2527     1
   2523   2545     1
   2523   2538     1
   2525   2531     1
   2525   2540     1
   2525   2533     1
   2526   2543     1
   2527   2533     1
   2527   2532     1
   2531   2545     1
   2532   2545     1
   2532   2543     1
   2533   2543     1
   2538   2540     1
   2540   2545     1
   2540   2543     1
   2547   2555     1
   2549   2556     1
   2549   2557     1
   2551   2567     1
   2551   2559     1
   2555   2570     1
   2555   2563     1
   2556   2559     1
   2556   2571     1
   2556   2619     1
   2557   2567     1
   2557   2564     1
   2557   2595     1
   2559   2576     1
   2563   2575     1
   2563   2577     1
   2564   2576     1
   2567   2600     1
   2570   2599     1
   2570   2601     1
   2571   2600     1
   2572   2576     1
   2572   2582     1
   2572   2581     1
   2573   2588     1
   2573   2577     1
   2573   2595     1
   2575   2583     1
   2575   2590     1
   2575   2581     1
   2576   2593     1
   2577   2582     1
   2577   2583     1
   2581   2595     1
   2582   2593     1
   2582   2595     1
   2583   2593     1
   2588   2590     1
   2590   2593     1
   2590   2595     1
   2596   2600     1
   2596   2606     1
   2596   2605     1
   2597   2612     1
   2597   2601     1
   2597   2619     1
   2599   2607     1
   2599   2614     1
   2599   2605     1
   2600   2617     1
   2601   2606     1
   2601   2607     1
   2605   2619     1
   2606   2617     1
   2606   2619     1
   2607   2617     1
   2612   2614     1
   2614   2617     1
   2614   2619     1
   2621   2629     1
   2623   2630     1
   2623   2631     1
   2625   2641     1
   2625   2633     1
   2629   2644     1
   2629   2637     1
   2630   2645     1
   2630   2693     1
   2630   2633     1
   2631   2638     1
   2631   2669     1
   2631   2641     1
   2633   2650     1
   2637   2651     1
   2637   2649     1
   2638   2650     1
   2641   2674     1
   2644   2675     1
   2644   2673     1
   2645   2674     1
   2646   2650     1
   2646   2656     1
   2646   2655     1
   2647   2651     1
   2647   2669     1
   2647   2662     1
   2649   2655     1
   2649   2664     1
   2649   2657     1
   2650   2667     1
   2651   2657     1
   2651   2656     1
   2655   2669     1
   2656   2669     1
   2656   2667     1
   2657   2667     1
   2662   2664     1
   2664   2669     1
   2664   2667     1
   2670   2674     1
   2670   2680     1
   2670   2679     1
   2671   2675     1
   2671   2693     1
   2671   2686     1
   2673   2679     1
   2673   2688     1
   2673   2681     1
   2674   2691     1
   2675   2681     1
   2675   2680     1
   2679   2693     1
   2680   2693     1
   2680   2691     1
   2681   2691     1
   2686   2688     1
   2688   2693     1
   2688   2691     1
   2695   2703     1
   2697   2704     1
   2697   2705     1
   2699   2715     1
   2699   2707     1
   2703   2718     1
   2703   2711     1
   2704   2707     1
   2704   2719     1
   2704   2767     1
   2705   2715     1
   2705   2712     1
   2705   2743     1
   2707   2724     1
   2711   2723     1
   2711   2725     1
   2712   2724     1
   2715   2748     1
   2718   2747     1
   2718   2749     1
   2719   2748     1
   2720   2724     1
   2720   2730     1
   2720   2729     1
   2721   2736     1
   2721   2725     1
   2721   2743     1
   2723   2731     1
   2723   2738     1
   2723   2729     1
   2724   2741     1
   2725   2730     1
   2725   2731     1
   2729   2743     1
   2730   2741     1
   2730   2743     1
   2731   2741     1
   2736   2738     1
   2738   2741     1
   2738   2743     1
   2744   2748     1
   2744   2754     1
   2744   2753     1
   2745   2760     1
   2745   2749     1
   2745   2767     1
   2747   2755     1
   2747   2762     1
   2747   2753     1
   2748   2765     1
   2749   2754     1
   2749   2755     1
   2753   2767     1
   2754   2765     1
   2754   2767     1
   2755   2765     1
   2760   2762     1
   2762   2765     1
   2762   2767     1
   2769   2777     1
   2771   2778     1
   2771   2779     1
   2773   2789     1
   2773   2781     1
   2777   2792     1
   2777   2785     1
   2778   2793     1
   2778   2841     1
   2778   2781     1
   2779   2786     1
   2779   2817     1
   2779   2789     1
   2781   2798     1
   2785   2799     1
   2785   2797     1
   2786   2798     1
   2789   2822     1
   2792   2823     1
   2792   2821     1
   2793   2822     1
   2794   2798     1
   2794   2804     1
   2794   2803     1
   2795   2799     1
   2795   2817     1
   2795   2810     1
   2797   2803     1
   2797   2812     1
   2797   2805     1
   2798   2815     1
   2799   2805     1
   2799   2804     1
   2803   2817     1
   2804   2817     1
   2804   2815     1
   2805   2815     1
   2810   2812     1
   2812   2817     1
   2812   2815     1
   2818   2822     1
   2818   2828     1
   2818   2827     1
   2819   2823     1
   2819   2841     1
   2819   2834     1
   2821   2827     1
   2821   2836     1
   2821   2829     1
   2822   2839     1
   2823   2829     1
   2823   2828     1
   2827   2841     1
   2828   2841     1
   2828   2839     1
   2829   2839     1
   2834   2836     1
   2836   2841     1
   2836   2839     1
   2843   2851     1
   2845   2852     1
   2845   2853     1
   2847   2863     1
   2847   2855     1
   2851   2866     1
   2851   2859     1
   2852   2855     1
   2852   2867     1
   2852   2915     1
   2853   2863     1
   2853   2860     1
   2853   2891     1
   2855   2872     1
   2859   2871     1
   2859   2873     1
   2860   2872     1
   2863   2896     1
   2866   2895     1
   2866   2897     1
   2867   2896     1
   2868   2872     1
   2868   2878     1
   2868   2877     1
   2869   2884     1
   2869   2873     1
   2869   2891     1
   2871   2879     1
   2871   2886     1
   2871   2877     1
   2872   2889     1
   2873   2878     1
   2873   2879     1
   2877   2891     1
   2878   2889     1
   2878   2891     1
   2879   2889     1
   2884   2886     1
   2886   2889     1
   2886   2891     1
   2892   2896     1
   2892   2902     1
   2892   2901     1
   2893   2908     1
   2893   2897     1
   2893   2915     1
   2895   2903     1
   2895   2910     1
   2895   2901     1
   2896   2913     1
   2897   2902     1
   2897   2903     1
   2901   2915     1
   2902   2913     1
   2902   2915     1
   2903   2913     1
   2908   2910     1
   2910   2913     1
   2910   2915     1
   2917   2925     1
   2919   2926     1
   2919   2927     1
   2921   2937     1
   2921   2929     1
   2925   2940     1
   2925   2933     1
   2926   2941     1
   2926   2989     1
   2926   2929     1
   2927   2934     1
   2927   2965     1
   2927   2937     1
   2929   2946     1
   2933   2947     1
   2933   2945     1
   2934   2946     1
   2937   2970     1
   2940   2971     1
   2940   2969     1
   2941   2970     1
   2942   2946     1
   2942   2952     1
   2942   2951     1
   2943   2947     1
   2943   2965     1
   2943   2958     1
   2945   2951     1
   2945   2960     1
   2945   2953     1
   2946   2963     1
   2947   2953     1
   2947   2952     1
   2951   2965     1
   2952   2965     1
   2952   2963     1
   2953   2963     1
   2958   2960     1
   2960   2965     1
   2960   2963     1
   2966   2970     1
   2966   2976     1
   2966   2975     1
   2967   2971     1
   2967   2989     1
   2967   2982     1
   2969   2975     1
   2969   2984     1
   2969   2977     1
   2970   2987     1
   2971   2977     1
   2971   2976     1
   2975   2989     1
   2976   2989     1
   2976   2987     1
   2977   2987     1
   2982   2984     1
   2984   2989     1
   2984   2987     1
   2991   2999     1
   2993   3000     1
   2993   3001     1
   2995   3011     1
   2995   3003     1
   2999   3014     1
   2999   3007     1
   3000   3003     1
   3000   3015     1
   3000   3063     1
   3001   3011     1
   3001   3008     1
   3001   3039     1
   3003   3020     1
   3007   3019     1
   3007   3021     1
   3008   3020     1
   3011   3044     1
   3014   3043     1
   3014   3045     1
   3015   3044     1
   3016   3020     1
   3016   3026     1
   3016   3025     1
   3017   3032     1
   3017   3021     1
   3017   3039     1
   3019   3027     1
   3019   3034     1
   3019   3025     1
   3020   3037     1
   3021   3026     1
   3021   3027     1
   3025   3039     1
   3026   3037     1
   3026   3039     1
   3027   3037     1
   3032   3034     1
   3034   3037     1
   3034   3039     1
   3040   3044     1
   3040   3050     1
   3040   3049     1
   3041   3056     1
   3041   3045     1
   3041   3063     1
   3043   3051     1
   3043   3058     1
   3043   3049     1
   3044   3061     1
   3045   3050     1
   3045   3051     1
   3049   3063     1
   3050   3061     1
   3050   3063     1
   3051   3061     1
   3056   3058     1
   3058   3061     1
   3058   3063     1
   3065   3073     1
   3067   3074     1
   3067   3075     1
   3069   3085     1
   3069   3077     1
   3073   3088     1
   3073   3081     1
   3074   3089     1
   3074   3137     1
   3074   3077     1
   3075   3082     1
   3075   3113     1
   3075   3085     1
   3077   3094     1
   3081   3095     1
   3081   3093     1
   3082   3094     1
   3085   3118     1
   3088   3119     1
   3088   3117     1
   3089   3118     1
   3090   3094     1
   3090   3100     1
   3090   3099     1
   3091   3095     1
   3091   3113     1
   3091   3106     1
   3093   3099     1
   3093   3108     1
   3093   3101     1
   3094   3111     1
   3095   3101     1
   3095   3100     1
   3099   3113     1
   3100   3113     1
   3100   3111     1
   3101   3111     1
   3106   3108     1
   3108   3113     1
   3108   3111     1
   3114   3118     1
   3114   3124     1
   3114   3123     1
   3115   3119     1
   3115   3137     1
   3115   3130     1
   3117   3123     1
   3117   3132     1
   3117   3125     1
   3118   3135     1
   3119   3125     1
   3119   3124     1
   3123   3137     1
   3124   3137     1
   3124   3135     1
   3125   3135     1
   3130   3132     1
   3132   3137     1
   3132   3135     1
      1     23     1
      1     24     1
      1     37     1
      1     38     1
      1     39     1
      1     40     1
      2     29     1
      2     30     1
      2     31     1
      2     32     1
      2     42     1
     41      3     1
      3     25     1
      3     26     1
      3     27     1
      3     28     1
      4     21     1
      4     22     1
      4     35     1
      4     36     1
      4     33     1
      4     34     1
      5     23     1
      5     24     1
      5     27     1
      5     28     1
      6     23     1
      6     24     1
      6     25     1
      6     26     1
      7     21     1
      7     22     1
      7     31     1
      7     32     1
      8     21     1
      8     22     1
      8     29     1
      8     30     1
      9     42     1
      9     67     1
     10     27     1
     10     28     1
     10     65     1
     10     66     1
     11     42     1
     11     93     1
     12     25     1
     12     26     1
     12     91     1
     12     92     1
     41     13     1
     13    119     1
     14     29     1
     14     30     1
     14    117     1
     14    118     1
     41     15     1
     15    145     1
     16     31     1
     16     32     1
     16    143     1
     16    144     1
     17     35     1
     17     36     1
     17     93     1
     18     33     1
     18     34     1
     18     67     1
     19     39     1
     19     40     1
     19    145     1
     20     37     1
     20     38     1
     20    119     1
     41     21     1
     21     23     1
     21     24     1
     41     22     1
     22     23     1
     22     24     1
     23     42     1
     24     42     1
     25     42     1
     25     35     1
     25     36     1
     26     42     1
     26     35     1
     26     36     1
     27     42     1
     27     33     1
     27     34     1
     28     42     1
     28     33     1
     28     34     1
     41     29     1
     29     37     1
     29     38     1
     41     30     1
     30     37     1
     30     38     1
     41     31     1
     31     39     1
     31     40     1
     41     32     1
     32     39     1
     32     40     1
     33     52     1
     34     52     1
     35     78     1
     36     78     1
     37    104     1
     38    104     1
     39    130     1
     40    130     1
     43     59     1
     43     60     1
     43     61     1
     43     62     1
     43     65     1
     43     66     1
     44     57     1
     44     58     1
     44     63     1
     44     64     1
     45     55     1
     45     56     1
     45     63     1
     45     64     1
     46     68     1
     46    171     1
     47     55     1
     47     56     1
     47    169     1
     47    170     1
     48     68     1
     48    197     1
     49     57     1
     49     58     1
     49    195     1
     49    196     1
     50     55     1
     50     56     1
     50     57     1
     50     58     1
     50     67     1
     51     68     1
     52     63     1
     52     64     1
     53     59     1
     53     60     1
     53    171     1
     54     61     1
     54     62     1
     54    197     1
     55     68     1
     55     59     1
     55     60     1
     56     68     1
     56     59     1
     56     60     1
     57     68     1
     57     61     1
     57     62     1
     58     68     1
     58     61     1
     58     62     1
     59    156     1
     60    156     1
     61    182     1
     62    182     1
     63     68     1
     63     65     1
     63     66     1
     64     68     1
     64     65     1
     64     66     1
     65     67     1
     66     67     1
     69     85     1
     69     86     1
     69     87     1
     69     88     1
     69     91     1
     69     92     1
     70     83     1
     70     84     1
     70     89     1
     70     90     1
     71     81     1
     71     82     1
     71     89     1
     71     90     1
     72     94     1
     72    223     1
     73     81     1
     73     82     1
     73    221     1
     73    222     1
     74     94     1
     74    249     1
     75     83     1
     75     84     1
     75    247     1
     75    248     1
     76     81     1
     76     82     1
     76     83     1
     76     84     1
     76     93     1
     77     94     1
     78     89     1
     78     90     1
     79     85     1
     79     86     1
     79    223     1
     80     87     1
     80     88     1
     80    249     1
     81     94     1
     81     85     1
     81     86     1
     82     94     1
     82     85     1
     82     86     1
     83     94     1
     83     87     1
     83     88     1
     84     94     1
     84     87     1
     84     88     1
     85    208     1
     86    208     1
     87    234     1
     88    234     1
     89     94     1
     89     91     1
     89     92     1
     90     94     1
     90     91     1
     90     92     1
     91     93     1
     92     93     1
     95    111     1
     95    112     1
     95    113     1
     95    114     1
     95    117     1
     95    118     1
     96    109     1
     96    110     1
     96    115     1
     96    116     1
     97    107     1
     97    108     1
     97    115     1
     97    116     1
     98    120     1
     98    275     1
     99    107     1
     99    108     1
     99    273     1
     99    274     1
    100    120     1
    100    301     1
    101    109     1
    101    110     1
    101    299     1
    101    300     1
    102    107     1
    102    108     1
    102    109     1
    102    110     1
    102    119     1
    103    120     1
    104    115     1
    104    116     1
    105    111     1
    105    112     1
    105    275     1
    106    113     1
    106    114     1
    106    301     1
    107    120     1
    107    111     1
    107    112     1
    108    120     1
    108    111     1
    108    112     1
    109    120     1
    109    113     1
    109    114     1
    110    120     1
    110    113     1
    110    114     1
    111    260     1
    112    260     1
    113    286     1
    114    286     1
    115    120     1
    115    117     1
    115    118     1
    116    120     1
    116    117     1
    116    118     1
    117    119     1
    118    119     1
    121    137     1
    121    138     1
    121    139     1
    121    140     1
    121    143     1
    121    144     1
    122    135     1
    122    136     1
    122    141     1
    122    142     1
    123    133     1
    123    134     1
    123    141     1
    123    142     1
    124    146     1
    124    327     1
    125    133     1
    125    134     1
    125    325     1
    125    326     1
    126    146     1
    126    353     1
    127    135     1
    127    136     1
    127    351     1
    127    352     1
    128    133     1
    128    134     1
    128    135     1
    128    136     1
    128    145     1
    129    146     1
    130    141     1
    130    142     1
    131    137     1
    131    138     1
    131    327     1
    132    139     1
    132    140     1
    132    353     1
    133    146     1
    133    137     1
    133    138     1
    134    146     1
    134    137     1
    134    138     1
    135    146     1
    135    139     1
    135    140     1
    136    146     1
    136    139     1
    136    140     1
    137    312     1
    138    312     1
    139    338     1
    140    338     1
    141    146     1
    141    143     1
    141    144     1
    142    146     1
    142    143     1
    142    144     1
    143    145     1
    144    145     1
    147    163     1
    147    164     1
    147    165     1
    147    166     1
    147    169     1
    147    170     1
    148    161     1
    148    162     1
    148    167     1
    148    168     1
    149    159     1
    149    160     1
    149    167     1
    149    168     1
    150    172     1
    150    379     1
    151    159     1
    151    160     1
    151    377     1
    151    378     1
    152    172     1
    152    405     1
    153    161     1
    153    162     1
    153    403     1
    153    404     1
    154    159     1
    154    160     1
    154    161     1
    154    162     1
    154    171     1
    155    172     1
    156    167     1
    156    168     1
    157    163     1
    157    164     1
    157    379     1
    158    165     1
    158    166     1
    158    405     1
    159    172     1
    159    163     1
    159    164     1
    160    172     1
    160    163     1
    160    164     1
    161    172     1
    161    165     1
    161    166     1
    162    172     1
    162    165     1
    162    166     1
    163    364     1
    164    364     1
    165    390     1
    166    390     1
    167    172     1
    167    169     1
    167    170     1
    168    172     1
    168    169     1
    168    170     1
    169    171     1
    170    171     1
    173    189     1
    173    190     1
    173    191     1
    173    192     1
    173    195     1
    173    196     1
    174    187     1
    174    188     1
    174    193     1
    174    194     1
    175    185     1
    175    186     1
    175    193     1
    175    194     1
    176    198     1
    176    431     1
    177    185     1
    177    186     1
    177    429     1
    177    430     1
    178    198     1
    178    457     1
    179    187     1
    179    188     1
    179    455     1
    179    456     1
    180    185     1
    180    186     1
    180    187     1
    180    188     1
    180    197     1
    181    198     1
    182    193     1
    182    194     1
    183    189     1
    183    190     1
    183    431     1
    184    191     1
    184    192     1
    184    457     1
    185    198     1
    185    189     1
    185    190     1
    186    198     1
    186    189     1
    186    190     1
    187    198     1
    187    191     1
    187    192     1
    188    198     1
    188    191     1
    188    192     1
    189    416     1
    190    416     1
    191    442     1
    192    442     1
    193    198     1
    193    195     1
    193    196     1
    194    198     1
    194    195     1
    194    196     1
    195    197     1
    196    197     1
    199    215     1
    199    216     1
    199    217     1
    199    218     1
    199    221     1
    199    222     1
    200    213     1
    200    214     1
    200    219     1
    200    220     1
    201    211     1
    201    212     1
    201    219     1
    201    220     1
    202    224     1
    202    483     1
    203    211     1
    203    212     1
    203    481     1
    203    482     1
    204    224     1
    204    509     1
    205    213     1
    205    214     1
    205    507     1
    205    508     1
    206    211     1
    206    212     1
    206    213     1
    206    214     1
    206    223     1
    207    224     1
    208    219     1
    208    220     1
    209    215     1
    209    216     1
    209    483     1
    210    217     1
    210    218     1
    210    509     1
    211    224     1
    211    215     1
    211    216     1
    212    224     1
    212    215     1
    212    216     1
    213    224     1
    213    217     1
    213    218     1
    214    224     1
    214    217     1
    214    218     1
    215    468     1
    216    468     1
    217    494     1
    218    494     1
    219    224     1
    219    221     1
    219    222     1
    220    224     1
    220    221     1
    220    222     1
    221    223     1
    222    223     1
    225    241     1
    225    242     1
    225    243     1
    225    244     1
    225    247     1
    225    248     1
    226    239     1
    226    240     1
    226    245     1
    226    246     1
    227    237     1
    227    238     1
    227    245     1
    227    246     1
    228    250     1
    228    535     1
    229    237     1
    229    238     1
    229    533     1
    229    534     1
    230    250     1
    230    561     1
    231    239     1
    231    240     1
    231    559     1
    231    560     1
    232    237     1
    232    238     1
    232    239     1
    232    240     1
    232    249     1
    233    250     1
    234    245     1
    234    246     1
    235    241     1
    235    242     1
    235    535     1
    236    243     1
    236    244     1
    236    561     1
    237    250     1
    237    241     1
    237    242     1
    238    250     1
    238    241     1
    238    242     1
    239    250     1
    239    243     1
    239    244     1
    240    250     1
    240    243     1
    240    244     1
    241    520     1
    242    520     1
    243    546     1
    244    546     1
    245    250     1
    245    247     1
    245    248     1
    246    250     1
    246    247     1
    246    248     1
    247    249     1
    248    249     1
    251    267     1
    251    268     1
    251    269     1
    251    270     1
    251    273     1
    251    274     1
    252    265     1
    252    266     1
    252    271     1
    252    272     1
    253    263     1
    253    264     1
    253    271     1
    253    272     1
    254    276     1
    254    587     1
    255    263     1
    255    264     1
    255    585     1
    255    586     1
    256    276     1
    256    613     1
    257    265     1
    257    266     1
    257    611     1
    257    612     1
    258    263     1
    258    264     1
    258    265     1
    258    266     1
    258    275     1
    259    276     1
    260    271     1
    260    272     1
    261    267     1
    261    268     1
    261    587     1
    262    269     1
    262    270     1
    262    613     1
    263    276     1
    263    267     1
    263    268     1
    264    276     1
    264    267     1
    264    268     1
    265    276     1
    265    269     1
    265    270     1
    266    276     1
    266    269     1
    266    270     1
    267    572     1
    268    572     1
    269    598     1
    270    598     1
    271    276     1
    271    273     1
    271    274     1
    272    276     1
    272    273     1
    272    274     1
    273    275     1
    274    275     1
    277    293     1
    277    294     1
    277    295     1
    277    296     1
    277    299     1
    277    300     1
    278    291     1
    278    292     1
    278    297     1
    278    298     1
    279    289     1
    279    290     1
    279    297     1
    279    298     1
    280    302     1
    280    639     1
    281    289     1
    281    290     1
    281    637     1
    281    638     1
    282    302     1
    282    665     1
    283    291     1
    283    292     1
    283    663     1
    283    664     1
    284    289     1
    284    290     1
    284    291     1
    284    292     1
    284    301     1
    285    302     1
    286    297     1
    286    298     1
    287    293     1
    287    294     1
    287    639     1
    288    295     1
    288    296     1
    288    665     1
    289    302     1
    289    293     1
    289    294     1
    290    302     1
    290    293     1
    290    294     1
    291    302     1
    291    295     1
    291    296     1
    292    302     1
    292    295     1
    292    296     1
    293    624     1
    294    624     1
    295    650     1
    296    650     1
    297    302     1
    297    299     1
    297    300     1
    298    302     1
    298    299     1
    298    300     1
    299    301     1
    300    301     1
    303    319     1
    303    320     1
    303    321     1
    303    322     1
    303    325     1
    303    326     1
    304    317     1
    304    318     1
    304    323     1
    304    324     1
    305    315     1
    305    316     1
    305    323     1
    305    324     1
    306    328     1
    306    691     1
    307    315     1
    307    316     1
    307    689     1
    307    690     1
    308    328     1
    308    717     1
    309    317     1
    309    318     1
    309    715     1
    309    716     1
    310    315     1
    310    316     1
    310    317     1
    310    318     1
    310    327     1
    311    328     1
    312    323     1
    312    324     1
    313    319     1
    313    320     1
    313    691     1
    314    321     1
    314    322     1
    314    717     1
    315    328     1
    315    319     1
    315    320     1
    316    328     1
    316    319     1
    316    320     1
    317    328     1
    317    321     1
    317    322     1
    318    328     1
    318    321     1
    318    322     1
    319    676     1
    320    676     1
    321    702     1
    322    702     1
    323    328     1
    323    325     1
    323    326     1
    324    328     1
    324    325     1
    324    326     1
    325    327     1
    326    327     1
    329    345     1
    329    346     1
    329    347     1
    329    348     1
    329    351     1
    329    352     1
    330    343     1
    330    344     1
    330    349     1
    330    350     1
    331    341     1
    331    342     1
    331    349     1
    331    350     1
    332    354     1
    332    743     1
    333    341     1
    333    342     1
    333    741     1
    333    742     1
    334    354     1
    334    769     1
    335    343     1
    335    344     1
    335    767     1
    335    768     1
    336    341     1
    336    342     1
    336    343     1
    336    344     1
    336    353     1
    337    354     1
    338    349     1
    338    350     1
    339    345     1
    339    346     1
    339    743     1
    340    347     1
    340    348     1
    340    769     1
    341    354     1
    341    345     1
    341    346     1
    342    354     1
    342    345     1
    342    346     1
    343    354     1
    343    347     1
    343    348     1
    344    354     1
    344    347     1
    344    348     1
    345    728     1
    346    728     1
    347    754     1
    348    754     1
    349    354     1
    349    351     1
    349    352     1
    350    354     1
    350    351     1
    350    352     1
    351    353     1
    352    353     1
    355    371     1
    355    372     1
    355    373     1
    355    374     1
    355    377     1
    355    378     1
    356    369     1
    356    370     1
    356    375     1
    356    376     1
    357    367     1
    357    368     1
    357    375     1
    357    376     1
    358    380     1
    358    772     1
    359    367     1
    359    368     1
    359    774     1
    359    776     1
    360    380     1
    360    846     1
    361    369     1
    361    370     1
    361    848     1
    361    850     1
    362    367     1
    362    368     1
    362    369     1
    362    370     1
    362    379     1
    363    380     1
    364    375     1
    364    376     1
    365    371     1
    365    372     1
    365    772     1
    366    373     1
    366    374     1
    366    846     1
    367    380     1
    367    371     1
    367    372     1
    368    380     1
    368    371     1
    368    372     1
    369    380     1
    369    373     1
    369    374     1
    370    380     1
    370    373     1
    370    374     1
    371    771     1
    372    771     1
    373    845     1
    374    845     1
    375    380     1
    375    377     1
    375    378     1
    376    380     1
    376    377     1
    376    378     1
    377    379     1
    378    379     1
    381    397     1
    381    398     1
    381    399     1
    381    400     1
    381    403     1
    381    404     1
    382    395     1
    382    396     1
    382    401     1
    382    402     1
    383    393     1
    383    394     1
    383    401     1
    383    402     1
    384    406     1
    384    920     1
    385    393     1
    385    394     1
    385    922     1
    385    924     1
    386    406     1
    386    994     1
    387    395     1
    387    396     1
    387    996     1
    387    998     1
    388    393     1
    388    394     1
    388    395     1
    388    396     1
    388    405     1
    389    406     1
    390    401     1
    390    402     1
    391    397     1
    391    398     1
    391    920     1
    392    399     1
    392    400     1
    392    994     1
    393    406     1
    393    397     1
    393    398     1
    394    406     1
    394    397     1
    394    398     1
    395    406     1
    395    399     1
    395    400     1
    396    406     1
    396    399     1
    396    400     1
    397    919     1
    398    919     1
    399    993     1
    400    993     1
    401    406     1
    401    403     1
    401    404     1
    402    406     1
    402    403     1
    402    404     1
    403    405     1
    404    405     1
    407    423     1
    407    424     1
    407    425     1
    407    426     1
    407    429     1
    407    430     1
    408    421     1
    408    422     1
    408    427     1
    408    428     1
    409    419     1
    409    420     1
    409    427     1
    409    428     1
    410    432     1
    410   1068     1
    411    419     1
    411    420     1
    411   1070     1
    411   1072     1
    412    432     1
    412   1142     1
    413    421     1
    413    422     1
    413   1144     1
    413   1146     1
    414    419     1
    414    420     1
    414    421     1
    414    422     1
    414    431     1
    415    432     1
    416    427     1
    416    428     1
    417    423     1
    417    424     1
    417   1068     1
    418    425     1
    418    426     1
    418   1142     1
    419    432     1
    419    423     1
    419    424     1
    420    432     1
    420    423     1
    420    424     1
    421    432     1
    421    425     1
    421    426     1
    422    432     1
    422    425     1
    422    426     1
    423   1067     1
    424   1067     1
    425   1141     1
    426   1141     1
    427    432     1
    427    429     1
    427    430     1
    428    432     1
    428    429     1
    428    430     1
    429    431     1
    430    431     1
    433    449     1
    433    450     1
    433    451     1
    433    452     1
    433    455     1
    433    456     1
    434    447     1
    434    448     1
    434    453     1
    434    454     1
    435    445     1
    435    446     1
    435    453     1
    435    454     1
    436    458     1
    436   1216     1
    437    445     1
    437    446     1
    437   1218     1
    437   1220     1
    438    458     1
    438   1290     1
    439    447     1
    439    448     1
    439   1292     1
    439   1294     1
    440    445     1
    440    446     1
    440    447     1
    440    448     1
    440    457     1
    441    458     1
    442    453     1
    442    454     1
    443    449     1
    443    450     1
    443   1216     1
    444    451     1
    444    452     1
    444   1290     1
    445    458     1
    445    449     1
    445    450     1
    446    458     1
    446    449     1
    446    450     1
    447    458     1
    447    451     1
    447    452     1
    448    458     1
    448    451     1
    448    452     1
    449   1215     1
    450   1215     1
    451   1289     1
    452   1289     1
    453    458     1
    453    455     1
    453    456     1
    454    458     1
    454    455     1
    454    456     1
    455    457     1
    456    457     1
    459    475     1
    459    476     1
    459    477     1
    459    478     1
    459    481     1
    459    482     1
    460    473     1
    460    474     1
    460    479     1
    460    480     1
    461    471     1
    461    472     1
    461    479     1
    461    480     1
    462    484     1
    462   1364     1
    463    471     1
    463    472     1
    463   1366     1
    463   1368     1
    464    484     1
    464   1438     1
    465    473     1
    465    474     1
    465   1440     1
    465   1442     1
    466    471     1
    466    472     1
    466    473     1
    466    474     1
    466    483     1
    467    484     1
    468    479     1
    468    480     1
    469    475     1
    469    476     1
    469   1364     1
    470    477     1
    470    478     1
    470   1438     1
    471    484     1
    471    475     1
    471    476     1
    472    484     1
    472    475     1
    472    476     1
    473    484     1
    473    477     1
    473    478     1
    474    484     1
    474    477     1
    474    478     1
    475   1363     1
    476   1363     1
    477   1437     1
    478   1437     1
    479    484     1
    479    481     1
    479    482     1
    480    484     1
    480    481     1
    480    482     1
    481    483     1
    482    483     1
    485    501     1
    485    502     1
    485    503     1
    485    504     1
    485    507     1
    485    508     1
    486    499     1
    486    500     1
    486    505     1
    486    506     1
    487    497     1
    487    498     1
    487    505     1
    487    506     1
    488    510     1
    488   1512     1
    489    497     1
    489    498     1
    489   1514     1
    489   1516     1
    490    510     1
    490   1586     1
    491    499     1
    491    500     1
    491   1588     1
    491   1590     1
    492    497     1
    492    498     1
    492    499     1
    492    500     1
    492    509     1
    493    510     1
    494    505     1
    494    506     1
    495    501     1
    495    502     1
    495   1512     1
    496    503     1
    496    504     1
    496   1586     1
    497    510     1
    497    501     1
    497    502     1
    498    510     1
    498    501     1
    498    502     1
    499    510     1
    499    503     1
    499    504     1
    500    510     1
    500    503     1
    500    504     1
    501   1511     1
    502   1511     1
    503   1585     1
    504   1585     1
    505    510     1
    505    507     1
    505    508     1
    506    510     1
    506    507     1
    506    508     1
    507    509     1
    508    509     1
    511    527     1
    511    528     1
    511    529     1
    511    530     1
    511    533     1
    511    534     1
    512    525     1
    512    526     1
    512    531     1
    512    532     1
    513    523     1
    513    524     1
    513    531     1
    513    532     1
    514    536     1
    514   1660     1
    515    523     1
    515    524     1
    515   1662     1
    515   1664     1
    516    536     1
    516   1734     1
    517    525     1
    517    526     1
    517   1736     1
    517   1738     1
    518    523     1
    518    524     1
    518    525     1
    518    526     1
    518    535     1
    519    536     1
    520    531     1
    520    532     1
    521    527     1
    521    528     1
    521   1660     1
    522    529     1
    522    530     1
    522   1734     1
    523    536     1
    523    527     1
    523    528     1
    524    536     1
    524    527     1
    524    528     1
    525    536     1
    525    529     1
    525    530     1
    526    536     1
    526    529     1
    526    530     1
    527   1659     1
    528   1659     1
    529   1733     1
    530   1733     1
    531    536     1
    531    533     1
    531    534     1
    532    536     1
    532    533     1
    532    534     1
    533    535     1
    534    535     1
    537    553     1
    537    554     1
    537    555     1
    537    556     1
    537    559     1
    537    560     1
    538    551     1
    538    552     1
    538    557     1
    538    558     1
    539    549     1
    539    550     1
    539    557     1
    539    558     1
    540    562     1
    540   1808     1
    541    549     1
    541    550     1
    541   1810     1
    541   1812     1
    542    562     1
    542   1882     1
    543    551     1
    543    552     1
    543   1884     1
    543   1886     1
    544    549     1
    544    550     1
    544    551     1
    544    552     1
    544    561     1
    545    562     1
    546    557     1
    546    558     1
    547    553     1
    547    554     1
    547   1808     1
    548    555     1
    548    556     1
    548   1882     1
    549    562     1
    549    553     1
    549    554     1
    550    562     1
    550    553     1
    550    554     1
    551    562     1
    551    555     1
    551    556     1
    552    562     1
    552    555     1
    552    556     1
    553   1807     1
    554   1807     1
    555   1881     1
    556   1881     1
    557    562     1
    557    559     1
    557    560     1
    558    562     1
    558    559     1
    558    560     1
    559    561     1
    560    561     1
    563    579     1
    563    580     1
    563    581     1
    563    582     1
    563    585     1
    563    586     1
    564    577     1
    564    578     1
    564    583     1
    564    584     1
    565    575     1
    565    576     1
    565    583     1
    565    584     1
    566    588     1
    566   1956     1
    567    575     1
    567    576     1
    567   1958     1
    567   1960     1
    568    588     1
    568   2030     1
    569    577     1
    569    578     1
    569   2032     1
    569   2034     1
    570    575     1
    570    576     1
    570    577     1
    570    578     1
    570    587     1
    571    588     1
    572    583     1
    572    584     1
    573    579     1
    573    580     1
    573   1956     1
    574    581     1
    574    582     1
    574   2030     1
    575    588     1
    575    579     1
    575    580     1
    576    588     1
    576    579     1
    576    580     1
    577    588     1
    577    581     1
    577    582     1
    578    588     1
    578    581     1
    578    582     1
    579   1955     1
    580   1955     1
    581   2029     1
    582   2029     1
    583    588     1
    583    585     1
    583    586     1
    584    588     1
    584    585     1
    584    586     1
    585    587     1
    586    587     1
    589    605     1
    589    606     1
    589    607     1
    589    608     1
    589    611     1
    589    612     1
    590    603     1
    590    604     1
    590    609     1
    590    610     1
    591    601     1
    591    602     1
    591    609     1
    591    610     1
    592    614     1
    592   2104     1
    593    601     1
    593    602     1
    593   2106     1
    593   2108     1
    594    614     1
    594   2178     1
    595    603     1
    595    604     1
    595   2180     1
    595   2182     1
    596    601     1
    596    602     1
    596    603     1
    596    604     1
    596    613     1
    597    614     1
    598    609     1
    598    610     1
    599    605     1
    599    606     1
    599   2104     1
    600    607     1
    600    608     1
    600   2178     1
    601    614     1
    601    605     1
    601    606     1
    602    614     1
    602    605     1
    602    606     1
    603    614     1
    603    607     1
    603    608     1
    604    614     1
    604    607     1
    604    608     1
    605   2103     1
    606   2103     1
    607   2177     1
    608   2177     1
    609    614     1
    609    611     1
    609    612     1
    610    614     1
    610    611     1
    610    612     1
    611    613     1
    612    613     1
    615    631     1
    615    632     1
    615    633     1
    615    634     1
    615    637     1
    615    638     1
    616    629     1
    616    630     1
    616    635     1
    616    636     1
    617    627     1
    617    628     1
    617    635     1
    617    636     1
    618    640     1
    618   2252     1
    619    627     1
    619    628     1
    619   2254     1
    619   2256     1
    620    640     1
    620   2326     1
    621    629     1
    621    630     1
    621   2328     1
    621   2330     1
    622    627     1
    622    628     1
    622    629     1
    622    630     1
    622    639     1
    623    640     1
    624    635     1
    624    636     1
    625    631     1
    625    632     1
    625   2252     1
    626    633     1
    626    634     1
    626   2326     1
    627    640     1
    627    631     1
    627    632     1
    628    640     1
    628    631     1
    628    632     1
    629    640     1
    629    633     1
    629    634     1
    630    640     1
    630    633     1
    630    634     1
    631   2251     1
    632   2251     1
    633   2325     1
    634   2325     1
    635    640     1
    635    637     1
    635    638     1
    636    640     1
    636    637     1
    636    638     1
    637    639     1
    638    639     1
    641    657     1
    641    658     1
    641    659     1
    641    660     1
    641    663     1
    641    664     1
    642    655     1
    642    656     1
    642    661     1
    642    662     1
    643    653     1
    643    654     1
    643    661     1
    643    662     1
    644    666     1
    644   2400     1
    645    653     1
    645    654     1
    645   2402     1
    645   2404     1
    646    666     1
    646   2474     1
    647    655     1
    647    656     1
    647   2476     1
    647   2478     1
    648    653     1
    648    654     1
    648    655     1
    648    656     1
    648    665     1
    649    666     1
    650    661     1
    650    662     1
    651    657     1
    651    658     1
    651   2400     1
    652    659     1
    652    660     1
    652   2474     1
    653    666     1
    653    657     1
    653    658     1
    654    666     1
    654    657     1
    654    658     1
    655    666     1
    655    659     1
    655    660     1
    656    666     1
    656    659     1
    656    660     1
    657   2399     1
    658   2399     1
    659   2473     1
    660   2473     1
    661    666     1
    661    663     1
    661    664     1
    662    666     1
    662    663     1
    662    664     1
    663    665     1
    664    665     1
    667    683     1
    667    684     1
    667    685     1
    667    686     1
    667    689     1
    667    690     1
    668    681     1
    668    682     1
    668    687     1
    668    688     1
    669    679     1
    669    680     1
    669    687     1
    669    688     1
    670    692     1
    670   2548     1
    671    679     1
    671    680     1
    671   2550     1
    671   2552     1
    672    692     1
    672   2622     1
    673    681     1
    673    682     1
    673   2624     1
    673   2626     1
    674    679     1
    674    680     1
    674    681     1
    674    682     1
    674    691     1
    675    692     1
    676    687     1
    676    688     1
    677    683     1
    677    684     1
    677   2548     1
    678    685     1
    678    686     1
    678   2622     1
    679    692     1
    679    683     1
    679    684     1
    680    692     1
    680    683     1
    680    684     1
    681    692     1
    681    685     1
    681    686     1
    682    692     1
    682    685     1
    682    686     1
    683   2547     1
    684   2547     1
    685   2621     1
    686   2621     1
    687    692     1
    687    689     1
    687    690     1
    688    692     1
    688    689     1
    688    690     1
    689    691     1
    690    691     1
    693    709     1
    693    710     1
    693    711     1
    693    712     1
    693    715     1
    693    716     1
    694    707     1
    694    708     1
    694    713     1
    694    714     1
    695    705     1
    695    706     1
    695    713     1
    695    714     1
    696    718     1
    696   2696     1
    697    705     1
    697    706     1
    697   2698     1
    697   2700     1
    698    718     1
    698   2770     1
    699    707     1
    699    708     1
    699   2772     1
    699   2774     1
    700    705     1
    700    706     1
    700    707     1
    700    708     1
    700    717     1
    701    718     1
    702    713     1
    702    714     1
    703    709     1
    703    710     1
    703   2696     1
    704    711     1
    704    712     1
    704   2770     1
    705    718     1
    705    709     1
    705    710     1
    706    718     1
    706    709     1
    706    710     1
    707    718     1
    707    711     1
    707    712     1
    708    718     1
    708    711     1
    708    712     1
    709   2695     1
    710   2695     1
    711   2769     1
    712   2769     1
    713    718     1
    713    715     1
    713    716     1
    714    718     1
    714    715     1
    714    716     1
    715    717     1
    716    717     1
    719    735     1
    719    736     1
    719    737     1
    719    738     1
    719    741     1
    719    742     1
    720    733     1
    720    734     1
    720    739     1
    720    740     1
    721    731     1
    721    732     1
    721    739     1
    721    740     1
    722    744     1
    722   2844     1
    723    731     1
    723    732     1
    723   2846     1
    723   2848     1
    724    744     1
    724   2918     1
    725    733     1
    725    734     1
    725   2920     1
    725   2922     1
    726    731     1
    726    732     1
    726    733     1
    726    734     1
    726    743     1
    727    744     1
    728    739     1
    728    740     1
    729    735     1
    729    736     1
    729   2844     1
    730    737     1
    730    738     1
    730   2918     1
    731    744     1
    731    735     1
    731    736     1
    732    744     1
    732    735     1
    732    736     1
    733    744     1
    733    737     1
    733    738     1
    734    744     1
    734    737     1
    734    738     1
    735   2843     1
    736   2843     1
    737   2917     1
    738   2917     1
    739    744     1
    739    741     1
    739    742     1
    740    744     1
    740    741     1
    740    742     1
    741    743     1
    742    743     1
    745    761     1
    745    762     1
    745    763     1
    745    764     1
    745    767     1
    745    768     1
    746    759     1
    746    760     1
    746    765     1
    746    766     1
    747    757     1
    747    758     1
    747    765     1
    747    766     1
    748    770     1
    748   2992     1
    749    757     1
    749    758     1
    749   2994     1
    749   2996     1
    750    770     1
    750   3066     1
    751    759     1
    751    760     1
    751   3068     1
    751   3070     1
    752    757     1
    752    758     1
    752    759     1
    752    760     1
    752    769     1
    753    770     1
    754    765     1
    754    766     1
    755    761     1
    755    762     1
    755   2992     1
    756    763     1
    756    764     1
    756   3066     1
    757    770     1
    757    761     1
    757    762     1
    758    770     1
    758    761     1
    758    762     1
    759    770     1
    759    763     1
    759    764     1
    760    770     1
    760    763     1
    760    764     1
    761   2991     1
    762   2991     1
    763   3065     1
    764   3065     1
    765    770     1
    765    767     1
    765    768     1
    766    770     1
    766    767     1
    766    768     1
    767    769     1
    768    769     1
    771    777     1
    771    778     1
    772    775     1
    772    774     1
    772    776     1
    773    844     1
    774    779     1
    774    777     1
    774    778     1
    775    789     1
    775    790     1
    775    782     1
    775    784     1
    776    779     1
    776    777     1
    776    778     1
    777    780     1
    777    781     1
    777    844     1
    778    780     1
    778    781     1
    778    844     1
    779    792     1
    779    793     1
    779    785     1
    779    786     1
    780    782     1
    780    784     1
    781    789     1
    781    790     1
    782    844     1
    782    787     1
    782    785     1
    782    786     1
    783    844     1
    783    809     1
    784    844     1
    784    787     1
    784    785     1
    784    786     1
    785    788     1
    785    819     1
    786    788     1
    786    819     1
    787    802     1
    788    809     1
    789    844     1
    789    794     1
    789    792     1
    789    793     1
    790    844     1
    790    794     1
    790    792     1
    790    793     1
    791    844     1
    791    833     1
    792    795     1
    792    843     1
    793    795     1
    793    843     1
    794    826     1
    795    833     1
    796    803     1
    796    818     1
    796    813     1
    796    804     1
    797    810     1
    797    811     1
    797    802     1
    797    808     1
    798    799     1
    798    817     1
    798    816     1
    798    812     1
    798    810     1
    798    811     1
    798    801     1
    799    818     1
    799    804     1
    799    809     1
    800    816     1
    800    808     1
    800    815     1
    801    803     1
    801    809     1
    802    806     1
    802    803     1
    802    805     1
    802    814     1
    802    804     1
    802    809     1
    803    817     1
    803    816     1
    803    819     1
    803    808     1
    804    819     1
    804    815     1
    806    816     1
    807    816     1
    810    814     1
    810    813     1
    811    814     1
    811    813     1
    814    816     1
    814    815     1
    816    818     1
    820    827     1
    820    842     1
    820    837     1
    820    828     1
    821    834     1
    821    835     1
    821    826     1
    821    832     1
    822    823     1
    822    841     1
    822    840     1
    822    836     1
    822    834     1
    822    835     1
    822    825     1
    823    842     1
    823    828     1
    823    833     1
    824    840     1
    824    832     1
    824    839     1
    825    827     1
    825    833     1
    826    830     1
    826    827     1
    826    829     1
    826    838     1
    826    828     1
    826    833     1
    827    841     1
    827    840     1
    827    843     1
    827    832     1
    828    843     1
    828    839     1
    830    840     1
    831    840     1
    834    838     1
    834    837     1
    835    838     1
    835    837     1
    838    840     1
    838    839     1
    840    842     1
    845    851     1
    845    852     1
    846    849     1
    846    848     1
    846    850     1
    847    918     1
    848    853     1
    848    851     1
    848    852     1
    849    863     1
    849    864     1
    849    856     1
    849    858     1
    850    853     1
    850    851     1
    850    852     1
    851    854     1
    851    855     1
    851    918     1
    852    854     1
    852    855     1
    852    918     1
    853    866     1
    853    867     1
    853    859     1
    853    860     1
    854    856     1
    854    858     1
    855    863     1
    855    864     1
    856    861     1
    856    859     1
    856    860     1
    856    918     1
    857    883     1
    857    918     1
    858    861     1
    858    859     1
    858    860     1
    858    918     1
    859    862     1
    859    893     1
    860    862     1
    860    893     1
    861    876     1
    862    883     1
    863    868     1
    863    866     1
    863    867     1
    863    918     1
    864    868     1
    864    866     1
    864    867     1
    864    918     1
    865    907     1
    865    918     1
    866    869     1
    866    917     1
    867    869     1
    867    917     1
    868    900     1
    869    907     1
    870    877     1
    870    892     1
    870    887     1
    870    878     1
    871    876     1
    871    882     1
    871    884     1
    871    885     1
    872    873     1
    872    891     1
    872    890     1
    872    886     1
    872    884     1
    872    885     1
    872    875     1
    873    878     1
    873    883     1
    873    892     1
    874    889     1
    874    882     1
    874    890     1
    875    883     1
    875    877     1
    876    879     1
    876    888     1
    876    878     1
    876    883     1
    876    880     1
    876    877     1
    877    893     1
    877    882     1
    877    891     1
    877    890     1
    878    889     1
    878    893     1
    880    890     1
    881    890     1
    884    887     1
    884    888     1
    885    887     1
    885    888     1
    888    889     1
    888    890     1
    890    892     1
    894    901     1
    894    916     1
    894    911     1
    894    902     1
    895    900     1
    895    906     1
    895    908     1
    895    909     1
    896    897     1
    896    915     1
    896    914     1
    896    910     1
    896    908     1
    896    909     1
    896    899     1
    897    902     1
    897    907     1
    897    916     1
    898    913     1
    898    906     1
    898    914     1
    899    907     1
    899    901     1
    900    903     1
    900    912     1
    900    902     1
    900    907     1
    900    904     1
    900    901     1
    901    917     1
    901    906     1
    901    915     1
    901    914     1
    902    913     1
    902    917     1
    904    914     1
    905    914     1
    908    911     1
    908    912     1
    909    911     1
    909    912     1
    912    913     1
    912    914     1
    914    916     1
    919    925     1
    919    926     1
    920    923     1
    920    922     1
    920    924     1
    921    992     1
    922    927     1
    922    925     1
    922    926     1
    923    937     1
    923    938     1
    923    930     1
    923    932     1
    924    927     1
    924    925     1
    924    926     1
    925    928     1
    925    929     1
    925    992     1
    926    928     1
    926    929     1
    926    992     1
    927    940     1
    927    941     1
    927    933     1
    927    934     1
    928    930     1
    928    932     1
    929    937     1
    929    938     1
    930    992     1
    930    935     1
    930    933     1
    930    934     1
    931    992     1
    931    957     1
    932    992     1
    932    935     1
    932    933     1
    932    934     1
    933    936     1
    933    967     1
    934    936     1
    934    967     1
    935    950     1
    936    957     1
    937    992     1
    937    942     1
    937    940     1
    937    941     1
    938    992     1
    938    942     1
    938    940     1
    938    941     1
    939    992     1
    939    981     1
    940    943     1
    940    991     1
    941    943     1
    941    991     1
    942    974     1
    943    981     1
    944    951     1
    944    966     1
    944    961     1
    944    952     1
    945    958     1
    945    959     1
    945    950     1
    945    956     1
    946    947     1
    946    965     1
    946    964     1
    946    960     1
    946    958     1
    946    959     1
    946    949     1
    947    966     1
    947    952     1
    947    957     1
    948    964     1
    948    956     1
    948    963     1
    949    951     1
    949    957     1
    950    954     1
    950    951     1
    950    953     1
    950    962     1
    950    952     1
    950    957     1
    951    965     1
    951    964     1
    951    967     1
    951    956     1
    952    967     1
    952    963     1
    954    964     1
    955    964     1
    958    962     1
    958    961     1
    959    962     1
    959    961     1
    962    964     1
    962    963     1
    964    966     1
    968    975     1
    968    990     1
    968    985     1
    968    976     1
    969    982     1
    969    983     1
    969    974     1
    969    980     1
    970    971     1
    970    989     1
    970    988     1
    970    984     1
    970    982     1
    970    983     1
    970    973     1
    971    990     1
    971    976     1
    971    981     1
    972    988     1
    972    980     1
    972    987     1
    973    975     1
    973    981     1
    974    978     1
    974    975     1
    974    977     1
    974    986     1
    974    976     1
    974    981     1
    975    989     1
    975    988     1
    975    991     1
    975    980     1
    976    991     1
    976    987     1
    978    988     1
    979    988     1
    982    986     1
    982    985     1
    983    986     1
    983    985     1
    986    988     1
    986    987     1
    988    990     1
    993    999     1
    993   1000     1
    994    997     1
    994    996     1
    994    998     1
    995   1066     1
    996   1001     1
    996    999     1
    996   1000     1
    997   1011     1
    997   1012     1
    997   1004     1
    997   1006     1
    998   1001     1
    998    999     1
    998   1000     1
    999   1002     1
    999   1003     1
    999   1066     1
   1000   1002     1
   1000   1003     1
   1000   1066     1
   1001   1014     1
   1001   1015     1
   1001   1007     1
   1001   1008     1
   1002   1004     1
   1002   1006     1
   1003   1011     1
   1003   1012     1
   1004   1009     1
   1004   1007     1
   1004   1008     1
   1004   1066     1
   1005   1031     1
   1005   1066     1
   1006   1009     1
   1006   1007     1
   1006   1008     1
   1006   1066     1
   1007   1010     1
   1007   1041     1
   1008   1010     1
   1008   1041     1
   1009   1024     1
   1010   1031     1
   1011   1016     1
   1011   1014     1
   1011   1015     1
   1011   1066     1
   1012   1016     1
   1012   1014     1
   1012   1015     1
   1012   1066     1
   1013   1055     1
   1013   1066     1
   1014   1017     1
   1014   1065     1
   1015   1017     1
   1015   1065     1
   1016   1048     1
   1017   1055     1
   1018   1025     1
   1018   1040     1
   1018   1035     1
   1018   1026     1
   1019   1024     1
   1019   1030     1
   1019   1032     1
   1019   1033     1
   1020   1021     1
   1020   1039     1
   1020   1038     1
   1020   1034     1
   1020   1032     1
   1020   1033     1
   1020   1023     1
   1021   1026     1
   1021   1031     1
   1021   1040     1
   1022   1037     1
   1022   1030     1
   1022   1038     1
   1023   1031     1
   1023   1025     1
   1024   1027     1
   1024   1036     1
   1024   1026     1
   1024   1031     1
   1024   1028     1
   1024   1025     1
   1025   1041     1
   1025   1030     1
   1025   1039     1
   1025   1038     1
   1026   1037     1
   1026   1041     1
   1028   1038     1
   1029   1038     1
   1032   1035     1
   1032   1036     1
   1033   1035     1
   1033   1036     1
   1036   1037     1
   1036   1038     1
   1038   1040     1
   1042   1049     1
   1042   1064     1
   1042   1059     1
   1042   1050     1
   1043   1048     1
   1043   1054     1
   1043   1056     1
   1043   1057     1
   1044   1045     1
   1044   1063     1
   1044   1062     1
   1044   1058     1
   1044   1056     1
   1044   1057     1
   1044   1047     1
   1045   1050     1
   1045   1055     1
   1045   1064     1
   1046   1061     1
   1046   1054     1
   1046   1062     1
   1047   1055     1
   1047   1049     1
   1048   1051     1
   1048   1060     1
   1048   1050     1
   1048   1055     1
   1048   1052     1
   1048   1049     1
   1049   1065     1
   1049   1054     1
   1049   1063     1
   1049   1062     1
   1050   1061     1
   1050   1065     1
   1052   1062     1
   1053   1062     1
   1056   1059     1
   1056   1060     1
   1057   1059     1
   1057   1060     1
   1060   1061     1
   1060   1062     1
   1062   1064     1
   1067   1073     1
   1067   1074     1
   1068   1071     1
   1068   1070     1
   1068   1072     1
   1069   1140     1
   1070   1075     1
   1070   1073     1
   1070   1074     1
   1071   1085     1
   1071   1086     1
   1071   1078     1
   1071   1080     1
   1072   1075     1
   1072   1073     1
   1072   1074     1
   1073   1076     1
   1073   1077     1
   1073   1140     1
   1074   1076     1
   1074   1077     1
   1074   1140     1
   1075   1088     1
   1075   1089     1
   1075   1081     1
   1075   1082     1
   1076   1078     1
   1076   1080     1
   1077   1085     1
   1077   1086     1
   1078   1140     1
   1078   1083     1
   1078   1081     1
   1078   1082     1
   1079   1140     1
   1079   1105     1
   1080   1140     1
   1080   1083     1
   1080   1081     1
   1080   1082     1
   1081   1084     1
   1081   1115     1
   1082   1084     1
   1082   1115     1
   1083   1098     1
   1084   1105     1
   1085   1140     1
   1085   1090     1
   1085   1088     1
   1085   1089     1
   1086   1140     1
   1086   1090     1
   1086   1088     1
   1086   1089     1
   1087   1140     1
   1087   1129     1
   1088   1091     1
   1088   1139     1
   1089   1091     1
   1089   1139     1
   1090   1122     1
   1091   1129     1
   1092   1099     1
   1092   1114     1
   1092   1109     1
   1092   1100     1
   1093   1106     1
   1093   1107     1
   1093   1098     1
   1093   1104     1
   1094   1095     1
   1094   1113     1
   1094   1112     1
   1094   1108     1
   1094   1106     1
   1094   1107     1
   1094   1097     1
   1095   1114     1
   1095   1100     1
   1095   1105     1
   1096   1112     1
   1096   1104     1
   1096   1111     1
   1097   1099     1
   1097   1105     1
   1098   1102     1
   1098   1099     1
   1098   1101     1
   1098   1110     1
   1098   1100     1
   1098   1105     1
   1099   1113     1
   1099   1112     1
   1099   1115     1
   1099   1104     1
   1100   1115     1
   1100   1111     1
   1102   1112     1
   1103   1112     1
   1106   1110     1
   1106   1109     1
   1107   1110     1
   1107   1109     1
   1110   1112     1
   1110   1111     1
   1112   1114     1
   1116   1123     1
   1116   1138     1
   1116   1133     1
   1116   1124     1
   1117   1130     1
   1117   1131     1
   1117   1122     1
   1117   1128     1
   1118   1119     1
   1118   1137     1
   1118   1136     1
   1118   1132     1
   1118   1130     1
   1118   1131     1
   1118   1121     1
   1119   1138     1
   1119   1124     1
   1119   1129     1
   1120   1136     1
   1120   1128     1
   1120   1135     1
   1121   1123     1
   1121   1129     1
   1122   1126     1
   1122   1123     1
   1122   1125     1
   1122   1134     1
   1122   1124     1
   1122   1129     1
   1123   1137     1
   1123   1136     1
   1123   1139     1
   1123   1128     1
   1124   1139     1
   1124   1135     1
   1126   1136     1
   1127   1136     1
   1130   1134     1
   1130   1133     1
   1131   1134     1
   1131   1133     1
   1134   1136     1
   1134   1135     1
   1136   1138     1
   1141   1147     1
   1141   1148     1
   1142   1145     1
   1142   1144     1
   1142   1146     1
   1143   1214     1
   1144   1149     1
   1144   1147     1
   1144   1148     1
   1145   1159     1
   1145   1160     1
   1145   1152     1
   1145   1154     1
   1146   1149     1
   1146   1147     1
   1146   1148     1
   1147   1150     1
   1147   1151     1
   1147   1214     1
   1148   1150     1
   1148   1151     1
   1148   1214     1
   1149   1162     1
   1149   1163     1
   1149   1155     1
   1149   1156     1
   1150   1152     1
   1150   1154     1
   1151   1159     1
   1151   1160     1
   1152   1157     1
   1152   1155     1
   1152   1156     1
   1152   1214     1
   1153   1179     1
   1153   1214     1
   1154   1157     1
   1154   1155     1
   1154   1156     1
   1154   1214     1
   1155   1158     1
   1155   1189     1
   1156   1158     1
   1156   1189     1
   1157   1172     1
   1158   1179     1
   1159   1164     1
   1159   1162     1
   1159   1163     1
   1159   1214     1
   1160   1164     1
   1160   1162     1
   1160   1163     1
   1160   1214     1
   1161   1203     1
   1161   1214     1
   1162   1165     1
   1162   1213     1
   1163   1165     1
   1163   1213     1
   1164   1196     1
   1165   1203     1
   1166   1173     1
   1166   1188     1
   1166   1183     1
   1166   1174     1
   1167   1172     1
   1167   1178     1
   1167   1180     1
   1167   1181     1
   1168   1169     1
   1168   1187     1
   1168   1186     1
   1168   1182     1
   1168   1180     1
   1168   1181     1
   1168   1171     1
   1169   1174     1
   1169   1179     1
   1169   1188     1
   1170   1185     1
   1170   1178     1
   1170   1186     1
   1171   1179     1
   1171   1173     1
   1172   1175     1
   1172   1184     1
   1172   1174     1
   1172   1179     1
   1172   1176     1
   1172   1173     1
   1173   1189     1
   1173   1178     1
   1173   1187     1
   1173   1186     1
   1174   1185     1
   1174   1189     1
   1176   1186     1
   1177   1186     1
   1180   1183     1
   1180   1184     1
   1181   1183     1
   1181   1184     1
   1184   1185     1
   1184   1186     1
   1186   1188     1
   1190   1197     1
   1190   1212     1
   1190   1207     1
   1190   1198     1
   1191   1196     1
   1191   1202     1
   1191   1204     1
   1191   1205     1
   1192   1193     1
   1192   1211     1
   1192   1210     1
   1192   1206     1
   1192   1204     1
   1192   1205     1
   1192   1195     1
   1193   1198     1
   1193   1203     1
   1193   1212     1
   1194   1209     1
   1194   1202     1
   1194   1210     1
   1195   1203     1
   1195   1197     1
   1196   1199     1
   1196   1208     1
   1196   1198     1
   1196   1203     1
   1196   1200     1
   1196   1197     1
   1197   1213     1
   1197   1202     1
   1197   1211     1
   1197   1210     1
   1198   1209     1
   1198   1213     1
   1200   1210     1
   1201   1210     1
   1204   1207     1
   1204   1208     1
   1205   1207     1
   1205   1208     1
   1208   1209     1
   1208   1210     1
   1210   1212     1
   1215   1221     1
   1215   1222     1
   1216   1219     1
   1216   1218     1
   1216   1220     1
   1217   1288     1
   1218   1223     1
   1218   1221     1
   1218   1222     1
   1219   1233     1
   1219   1234     1
   1219   1226     1
   1219   1228     1
   1220   1223     1
   1220   1221     1
   1220   1222     1
   1221   1224     1
   1221   1225     1
   1221   1288     1
   1222   1224     1
   1222   1225     1
   1222   1288     1
   1223   1236     1
   1223   1237     1
   1223   1229     1
   1223   1230     1
   1224   1226     1
   1224   1228     1
   1225   1233     1
   1225   1234     1
   1226   1288     1
   1226   1231     1
   1226   1229     1
   1226   1230     1
   1227   1288     1
   1227   1253     1
   1228   1288     1
   1228   1231     1
   1228   1229     1
   1228   1230     1
   1229   1232     1
   1229   1263     1
   1230   1232     1
   1230   1263     1
   1231   1246     1
   1232   1253     1
   1233   1288     1
   1233   1238     1
   1233   1236     1
   1233   1237     1
   1234   1288     1
   1234   1238     1
   1234   1236     1
   1234   1237     1
   1235   1288     1
   1235   1277     1
   1236   1239     1
   1236   1287     1
   1237   1239     1
   1237   1287     1
   1238   1270     1
   1239   1277     1
   1240   1247     1
   1240   1262     1
   1240   1257     1
   1240   1248     1
   1241   1254     1
   1241   1255     1
   1241   1246     1
   1241   1252     1
   1242   1243     1
   1242   1261     1
   1242   1260     1
   1242   1256     1
   1242   1254     1
   1242   1255     1
   1242   1245     1
   1243   1262     1
   1243   1248     1
   1243   1253     1
   1244   1260     1
   1244   1252     1
   1244   1259     1
   1245   1247     1
   1245   1253     1
   1246   1250     1
   1246   1247     1
   1246   1249     1
   1246   1258     1
   1246   1248     1
   1246   1253     1
   1247   1261     1
   1247   1260     1
   1247   1263     1
   1247   1252     1
   1248   1263     1
   1248   1259     1
   1250   1260     1
   1251   1260     1
   1254   1258     1
   1254   1257     1
   1255   1258     1
   1255   1257     1
   1258   1260     1
   1258   1259     1
   1260   1262     1
   1264   1271     1
   1264   1286     1
   1264   1281     1
   1264   1272     1
   1265   1278     1
   1265   1279     1
   1265   1270     1
   1265   1276     1
   1266   1267     1
   1266   1285     1
   1266   1284     1
   1266   1280     1
   1266   1278     1
   1266   1279     1
   1266   1269     1
   1267   1286     1
   1267   1272     1
   1267   1277     1
   1268   1284     1
   1268   1276     1
   1268   1283     1
   1269   1271     1
   1269   1277     1
   1270   1274     1
   1270   1271     1
   1270   1273     1
   1270   1282     1
   1270   1272     1
   1270   1277     1
   1271   1285     1
   1271   1284     1
   1271   1287     1
   1271   1276     1
   1272   1287     1
   1272   1283     1
   1274   1284     1
   1275   1284     1
   1278   1282     1
   1278   1281     1
   1279   1282     1
   1279   1281     1
   1282   1284     1
   1282   1283     1
   1284   1286     1
   1289   1295     1
   1289   1296     1
   1290   1293     1
   1290   1292     1
   1290   1294     1
   1291   1362     1
   1292   1297     1
   1292   1295     1
   1292   1296     1
   1293   1307     1
   1293   1308     1
   1293   1300     1
   1293   1302     1
   1294   1297     1
   1294   1295     1
   1294   1296     1
   1295   1298     1
   1295   1299     1
   1295   1362     1
   1296   1298     1
   1296   1299     1
   1296   1362     1
   1297   1310     1
   1297   1311     1
   1297   1303     1
   1297   1304     1
   1298   1300     1
   1298   1302     1
   1299   1307     1
   1299   1308     1
   1300   1305     1
   1300   1303     1
   1300   1304     1
   1300   1362     1
   1301   1327     1
   1301   1362     1
   1302   1305     1
   1302   1303     1
   1302   1304     1
   1302   1362     1
   1303   1306     1
   1303   1337     1
   1304   1306     1
   1304   1337     1
   1305   1320     1
   1306   1327     1
   1307   1312     1
   1307   1310     1
   1307   1311     1
   1307   1362     1
   1308   1312     1
   1308   1310     1
   1308   1311     1
   1308   1362     1
   1309   1351     1
   1309   1362     1
   1310   1313     1
   1310   1361     1
   1311   1313     1
   1311   1361     1
   1312   1344     1
   1313   1351     1
   1314   1321     1
   1314   1336     1
   1314   1331     1
   1314   1322     1
   1315   1320     1
   1315   1326     1
   1315   1328     1
   1315   1329     1
   1316   1317     1
   1316   1335     1
   1316   1334     1
   1316   1330     1
   1316   1328     1
   1316   1329     1
   1316   1319     1
   1317   1322     1
   1317   1327     1
   1317   1336     1
   1318   1333     1
   1318   1326     1
   1318   1334     1
   1319   1327     1
   1319   1321     1
   1320   1323     1
   1320   1332     1
   1320   1322     1
   1320   1327     1
   1320   1324     1
   1320   1321     1
   1321   1337     1
   1321   1326     1
   1321   1335     1
   1321   1334     1
   1322   1333     1
   1322   1337     1
   1324   1334     1
   1325   1334     1
   1328   1331     1
   1328   1332     1
   1329   1331     1
   1329   1332     1
   1332   1333     1
   1332   1334     1
   1334   1336     1
   1338   1345     1
   1338   1360     1
   1338   1355     1
   1338   1346     1
   1339   1344     1
   1339   1350     1
   1339   1352     1
   1339   1353     1
   1340   1341     1
   1340   1359     1
   1340   1358     1
   1340   1354     1
   1340   1352     1
   1340   1353     1
   1340   1343     1
   1341   1346     1
   1341   1351     1
   1341   1360     1
   1342   1357     1
   1342   1350     1
   1342   1358     1
   1343   1351     1
   1343   1345     1
   1344   1347     1
   1344   1356     1
   1344   1346     1
   1344   1351     1
   1344   1348     1
   1344   1345     1
   1345   1361     1
   1345   1350     1
   1345   1359     1
   1345   1358     1
   1346   1357     1
   1346   1361     1
   1348   1358     1
   1349   1358     1
   1352   1355     1
   1352   1356     1
   1353   1355     1
   1353   1356     1
   1356   1357     1
   1356   1358     1
   1358   1360     1
   1363   1369     1
   1363   1370     1
   1364   1367     1
   1364   1366     1
   1364   1368     1
   1365   1436     1
   1366   1371     1
   1366   1369     1
   1366   1370     1
   1367   1381     1
   1367   1382     1
   1367   1374     1
   1367   1376     1
   1368   1371     1
   1368   1369     1
   1368   1370     1
   1369   1372     1
   1369   1373     1
   1369   1436     1
   1370   1372     1
   1370   1373     1
   1370   1436     1
   1371   1384     1
   1371   1385     1
   1371   1377     1
   1371   1378     1
   1372   1374     1
   1372   1376     1
   1373   1381     1
   1373   1382     1
   1374   1436     1
   1374   1379     1
   1374   1377     1
   1374   1378     1
   1375   1436     1
   1375   1401     1
   1376   1436     1
   1376   1379     1
   1376   1377     1
   1376   1378     1
   1377   1380     1
   1377   1411     1
   1378   1380     1
   1378   1411     1
   1379   1394     1
   1380   1401     1
   1381   1436     1
   1381   1386     1
   1381   1384     1
   1381   1385     1
   1382   1436     1
   1382   1386     1
   1382   1384     1
   1382   1385     1
   1383   1436     1
   1383   1425     1
   1384   1387     1
   1384   1435     1
   1385   1387     1
   1385   1435     1
   1386   1418     1
   1387   1425     1
   1388   1395     1
   1388   1410     1
   1388   1405     1
   1388   1396     1
   1389   1402     1
   1389   1403     1
   1389   1394     1
   1389   1400     1
   1390   1391     1
   1390   1409     1
   1390   1408     1
   1390   1404     1
   1390   1402     1
   1390   1403     1
   1390   1393     1
   1391   1410     1
   1391   1396     1
   1391   1401     1
   1392   1408     1
   1392   1400     1
   1392   1407     1
   1393   1395     1
   1393   1401     1
   1394   1398     1
   1394   1395     1
   1394   1397     1
   1394   1406     1
   1394   1396     1
   1394   1401     1
   1395   1409     1
   1395   1408     1
   1395   1411     1
   1395   1400     1
   1396   1411     1
   1396   1407     1
   1398   1408     1
   1399   1408     1
   1402   1406     1
   1402   1405     1
   1403   1406     1
   1403   1405     1
   1406   1408     1
   1406   1407     1
   1408   1410     1
   1412   1419     1
   1412   1434     1
   1412   1429     1
   1412   1420     1
   1413   1426     1
   1413   1427     1
   1413   1418     1
   1413   1424     1
   1414   1415     1
   1414   1433     1
   1414   1432     1
   1414   1428     1
   1414   1426     1
   1414   1427     1
   1414   1417     1
   1415   1434     1
   1415   1420     1
   1415   1425     1
   1416   1432     1
   1416   1424     1
   1416   1431     1
   1417   1419     1
   1417   1425     1
   1418   1422     1
   1418   1419     1
   1418   1421     1
   1418   1430     1
   1418   1420     1
   1418   1425     1
   1419   1433     1
   1419   1432     1
   1419   1435     1
   1419   1424     1
   1420   1435     1
   1420   1431     1
   1422   1432     1
   1423   1432     1
   1426   1430     1
   1426   1429     1
   1427   1430     1
   1427   1429     1
   1430   1432     1
   1430   1431     1
   1432   1434     1
   1437   1443     1
   1437   1444     1
   1438   1441     1
   1438   1440     1
   1438   1442     1
   1439   1510     1
   1440   1445     1
   1440   1443     1
   1440   1444     1
   1441   1455     1
   1441   1456     1
   1441   1448     1
   1441   1450     1
   1442   1445     1
   1442   1443     1
   1442   1444     1
   1443   1446     1
   1443   1447     1
   1443   1510     1
   1444   1446     1
   1444   1447     1
   1444   1510     1
   1445   1458     1
   1445   1459     1
   1445   1451     1
   1445   1452     1
   1446   1448     1
   1446   1450     1
   1447   1455     1
   1447   1456     1
   1448   1453     1
   1448   1451     1
   1448   1452     1
   1448   1510     1
   1449   1475     1
   1449   1510     1
   1450   1453     1
   1450   1451     1
   1450   1452     1
   1450   1510     1
   1451   1454     1
   1451   1485     1
   1452   1454     1
   1452   1485     1
   1453   1468     1
   1454   1475     1
   1455   1460     1
   1455   1458     1
   1455   1459     1
   1455   1510     1
   1456   1460     1
   1456   1458     1
   1456   1459     1
   1456   1510     1
   1457   1499     1
   1457   1510     1
   1458   1461     1
   1458   1509     1
   1459   1461     1
   1459   1509     1
   1460   1492     1
   1461   1499     1
   1462   1469     1
   1462   1484     1
   1462   1479     1
   1462   1470     1
   1463   1468     1
   1463   1474     1
   1463   1476     1
   1463   1477     1
   1464   1465     1
   1464   1483     1
   1464   1482     1
   1464   1478     1
   1464   1476     1
   1464   1477     1
   1464   1467     1
   1465   1470     1
   1465   1475     1
   1465   1484     1
   1466   1481     1
   1466   1474     1
   1466   1482     1
   1467   1475     1
   1467   1469     1
   1468   1471     1
   1468   1480     1
   1468   1470     1
   1468   1475     1
   1468   1472     1
   1468   1469     1
   1469   1485     1
   1469   1474     1
   1469   1483     1
   1469   1482     1
   1470   1481     1
   1470   1485     1
   1472   1482     1
   1473   1482     1
   1476   1479     1
   1476   1480     1
   1477   1479     1
   1477   1480     1
   1480   1481     1
   1480   1482     1
   1482   1484     1
   1486   1493     1
   1486   1508     1
   1486   1503     1
   1486   1494     1
   1487   1492     1
   1487   1498     1
   1487   1500     1
   1487   1501     1
   1488   1489     1
   1488   1507     1
   1488   1506     1
   1488   1502     1
   1488   1500     1
   1488   1501     1
   1488   1491     1
   1489   1494     1
   1489   1499     1
   1489   1508     1
   1490   1505     1
   1490   1498     1
   1490   1506     1
   1491   1499     1
   1491   1493     1
   1492   1495     1
   1492   1504     1
   1492   1494     1
   1492   1499     1
   1492   1496     1
   1492   1493     1
   1493   1509     1
   1493   1498     1
   1493   1507     1
   1493   1506     1
   1494   1505     1
   1494   1509     1
   1496   1506     1
   1497   1506     1
   1500   1503     1
   1500   1504     1
   1501   1503     1
   1501   1504     1
   1504   1505     1
   1504   1506     1
   1506   1508     1
   1511   1517     1
   1511   1518     1
   1512   1515     1
   1512   1514     1
   1512   1516     1
   1513   1584     1
   1514   1519     1
   1514   1517     1
   1514   1518     1
   1515   1529     1
   1515   1530     1
   1515   1522     1
   1515   1524     1
   1516   1519     1
   1516   1517     1
   1516   1518     1
   1517   1520     1
   1517   1521     1
   1517   1584     1
   1518   1520     1
   1518   1521     1
   1518   1584     1
   1519   1532     1
   1519   1533     1
   1519   1525     1
   1519   1526     1
   1520   1522     1
   1520   1524     1
   1521   1529     1
   1521   1530     1
   1522   1584     1
   1522   1527     1
   1522   1525     1
   1522   1526     1
   1523   1584     1
   1523   1549     1
   1524   1584     1
   1524   1527     1
   1524   1525     1
   1524   1526     1
   1525   1528     1
   1525   1559     1
   1526   1528     1
   1526   1559     1
   1527   1542     1
   1528   1549     1
   1529   1584     1
   1529   1534     1
   1529   1532     1
   1529   1533     1
   1530   1584     1
   1530   1534     1
   1530   1532     1
   1530   1533     1
   1531   1584     1
   1531   1573     1
   1532   1535     1
   1532   1583     1
   1533   1535     1
   1533   1583     1
   1534   1566     1
   1535   1573     1
   1536   1543     1
   1536   1558     1
   1536   1553     1
   1536   1544     1
   1537   1550     1
   1537   1551     1
   1537   1542     1
   1537   1548     1
   1538   1539     1
   1538   1557     1
   1538   1556     1
   1538   1552     1
   1538   1550     1
   1538   1551     1
   1538   1541     1
   1539   1558     1
   1539   1544     1
   1539   1549     1
   1540   1556     1
   1540   1548     1
   1540   1555     1
   1541   1543     1
   1541   1549     1
   1542   1546     1
   1542   1543     1
   1542   1545     1
   1542   1554     1
   1542   1544     1
   1542   1549     1
   1543   1557     1
   1543   1556     1
   1543   1559     1
   1543   1548     1
   1544   1559     1
   1544   1555     1
   1546   1556     1
   1547   1556     1
   1550   1554     1
   1550   1553     1
   1551   1554     1
   1551   1553     1
   1554   1556     1
   1554   1555     1
   1556   1558     1
   1560   1567     1
   1560   1582     1
   1560   1577     1
   1560   1568     1
   1561   1574     1
   1561   1575     1
   1561   1566     1
   1561   1572     1
   1562   1563     1
   1562   1581     1
   1562   1580     1
   1562   1576     1
   1562   1574     1
   1562   1575     1
   1562   1565     1
   1563   1582     1
   1563   1568     1
   1563   1573     1
   1564   1580     1
   1564   1572     1
   1564   1579     1
   1565   1567     1
   1565   1573     1
   1566   1570     1
   1566   1567     1
   1566   1569     1
   1566   1578     1
   1566   1568     1
   1566   1573     1
   1567   1581     1
   1567   1580     1
   1567   1583     1
   1567   1572     1
   1568   1583     1
   1568   1579     1
   1570   1580     1
   1571   1580     1
   1574   1578     1
   1574   1577     1
   1575   1578     1
   1575   1577     1
   1578   1580     1
   1578   1579     1
   1580   1582     1
   1585   1591     1
   1585   1592     1
   1586   1589     1
   1586   1588     1
   1586   1590     1
   1587   1658     1
   1588   1593     1
   1588   1591     1
   1588   1592     1
   1589   1603     1
   1589   1604     1
   1589   1596     1
   1589   1598     1
   1590   1593     1
   1590   1591     1
   1590   1592     1
   1591   1594     1
   1591   1595     1
   1591   1658     1
   1592   1594     1
   1592   1595     1
   1592   1658     1
   1593   1606     1
   1593   1607     1
   1593   1599     1
   1593   1600     1
   1594   1596     1
   1594   1598     1
   1595   1603     1
   1595   1604     1
   1596   1601     1
   1596   1599     1
   1596   1600     1
   1596   1658     1
   1597   1623     1
   1597   1658     1
   1598   1601     1
   1598   1599     1
   1598   1600     1
   1598   1658     1
   1599   1602     1
   1599   1633     1
   1600   1602     1
   1600   1633     1
   1601   1616     1
   1602   1623     1
   1603   1608     1
   1603   1606     1
   1603   1607     1
   1603   1658     1
   1604   1608     1
   1604   1606     1
   1604   1607     1
   1604   1658     1
   1605   1647     1
   1605   1658     1
   1606   1609     1
   1606   1657     1
   1607   1609     1
   1607   1657     1
   1608   1640     1
   1609   1647     1
   1610   1617     1
   1610   1632     1
   1610   1627     1
   1610   1618     1
   1611   1616     1
   1611   1622     1
   1611   1624     1
   1611   1625     1
   1612   1613     1
   1612   1631     1
   1612   1630     1
   1612   1626     1
   1612   1624     1
   1612   1625     1
   1612   1615     1
   1613   1618     1
   1613   1623     1
   1613   1632     1
   1614   1629     1
   1614   1622     1
   1614   1630     1
   1615   1623     1
   1615   1617     1
   1616   1619     1
   1616   1628     1
   1616   1618     1
   1616   1623     1
   1616   1620     1
   1616   1617     1
   1617   1633     1
   1617   1622     1
   1617   1631     1
   1617   1630     1
   1618   1629     1
   1618   1633     1
   1620   1630     1
   1621   1630     1
   1624   1627     1
   1624   1628     1
   1625   1627     1
   1625   1628     1
   1628   1629     1
   1628   1630     1
   1630   1632     1
   1634   1641     1
   1634   1656     1
   1634   1651     1
   1634   1642     1
   1635   1640     1
   1635   1646     1
   1635   1648     1
   1635   1649     1
   1636   1637     1
   1636   1655     1
   1636   1654     1
   1636   1650     1
   1636   1648     1
   1636   1649     1
   1636   1639     1
   1637   1642     1
   1637   1647     1
   1637   1656     1
   1638   1653     1
   1638   1646     1
   1638   1654     1
   1639   1647     1
   1639   1641     1
   1640   1643     1
   1640   1652     1
   1640   1642     1
   1640   1647     1
   1640   1644     1
   1640   1641     1
   1641   1657     1
   1641   1646     1
   1641   1655     1
   1641   1654     1
   1642   1653     1
   1642   1657     1
   1644   1654     1
   1645   1654     1
   1648   1651     1
   1648   1652     1
   1649   1651     1
   1649   1652     1
   1652   1653     1
   1652   1654     1
   1654   1656     1
   1659   1665     1
   1659   1666     1
   1660   1663     1
   1660   1662     1
   1660   1664     1
   1661   1732     1
   1662   1667     1
   1662   1665     1
   1662   1666     1
   1663   1677     1
   1663   1678     1
   1663   1670     1
   1663   1672     1
   1664   1667     1
   1664   1665     1
   1664   1666     1
   1665   1668     1
   1665   1669     1
   1665   1732     1
   1666   1668     1
   1666   1669     1
   1666   1732     1
   1667   1680     1
   1667   1681     1
   1667   1673     1
   1667   1674     1
   1668   1670     1
   1668   1672     1
   1669   1677     1
   1669   1678     1
   1670   1732     1
   1670   1675     1
   1670   1673     1
   1670   1674     1
   1671   1732     1
   1671   1697     1
   1672   1732     1
   1672   1675     1
   1672   1673     1
   1672   1674     1
   1673   1676     1
   1673   1707     1
   1674   1676     1
   1674   1707     1
   1675   1690     1
   1676   1697     1
   1677   1732     1
   1677   1682     1
   1677   1680     1
   1677   1681     1
   1678   1732     1
   1678   1682     1
   1678   1680     1
   1678   1681     1
   1679   1732     1
   1679   1721     1
   1680   1683     1
   1680   1731     1
   1681   1683     1
   1681   1731     1
   1682   1714     1
   1683   1721     1
   1684   1691     1
   1684   1706     1
   1684   1701     1
   1684   1692     1
   1685   1698     1
   1685   1699     1
   1685   1690     1
   1685   1696     1
   1686   1687     1
   1686   1705     1
   1686   1704     1
   1686   1700     1
   1686   1698     1
   1686   1699     1
   1686   1689     1
   1687   1706     1
   1687   1692     1
   1687   1697     1
   1688   1704     1
   1688   1696     1
   1688   1703     1
   1689   1691     1
   1689   1697     1
   1690   1694     1
   1690   1691     1
   1690   1693     1
   1690   1702     1
   1690   1692     1
   1690   1697     1
   1691   1705     1
   1691   1704     1
   1691   1707     1
   1691   1696     1
   1692   1707     1
   1692   1703     1
   1694   1704     1
   1695   1704     1
   1698   1702     1
   1698   1701     1
   1699   1702     1
   1699   1701     1
   1702   1704     1
   1702   1703     1
   1704   1706     1
   1708   1715     1
   1708   1730     1
   1708   1725     1
   1708   1716     1
   1709   1722     1
   1709   1723     1
   1709   1714     1
   1709   1720     1
   1710   1711     1
   1710   1729     1
   1710   1728     1
   1710   1724     1
   1710   1722     1
   1710   1723     1
   1710   1713     1
   1711   1730     1
   1711   1716     1
   1711   1721     1
   1712   1728     1
   1712   1720     1
   1712   1727     1
   1713   1715     1
   1713   1721     1
   1714   1718     1
   1714   1715     1
   1714   1717     1
   1714   1726     1
   1714   1716     1
   1714   1721     1
   1715   1729     1
   1715   1728     1
   1715   1731     1
   1715   1720     1
   1716   1731     1
   1716   1727     1
   1718   1728     1
   1719   1728     1
   1722   1726     1
   1722   1725     1
   1723   1726     1
   1723   1725     1
   1726   1728     1
   1726   1727     1
   1728   1730     1
   1733   1739     1
   1733   1740     1
   1734   1737     1
   1734   1736     1
   1734   1738     1
   1735   1806     1
   1736   1741     1
   1736   1739     1
   1736   1740     1
   1737   1751     1
   1737   1752     1
   1737   1744     1
   1737   1746     1
   1738   1741     1
   1738   1739     1
   1738   1740     1
   1739   1742     1
   1739   1743     1
   1739   1806     1
   1740   1742     1
   1740   1743     1
   1740   1806     1
   1741   1754     1
   1741   1755     1
   1741   1747     1
   1741   1748     1
   1742   1744     1
   1742   1746     1
   1743   1751     1
   1743   1752     1
   1744   1749     1
   1744   1747     1
   1744   1748     1
   1744   1806     1
   1745   1771     1
   1745   1806     1
   1746   1749     1
   1746   1747     1
   1746   1748     1
   1746   1806     1
   1747   1750     1
   1747   1781     1
   1748   1750     1
   1748   1781     1
   1749   1764     1
   1750   1771     1
   1751   1756     1
   1751   1754     1
   1751   1755     1
   1751   1806     1
   1752   1756     1
   1752   1754     1
   1752   1755     1
   1752   1806     1
   1753   1795     1
   1753   1806     1
   1754   1757     1
   1754   1805     1
   1755   1757     1
   1755   1805     1
   1756   1788     1
   1757   1795     1
   1758   1765     1
   1758   1780     1
   1758   1775     1
   1758   1766     1
   1759   1764     1
   1759   1770     1
   1759   1772     1
   1759   1773     1
   1760   1761     1
   1760   1779     1
   1760   1778     1
   1760   1774     1
   1760   1772     1
   1760   1773     1
   1760   1763     1
   1761   1766     1
   1761   1771     1
   1761   1780     1
   1762   1777     1
   1762   1770     1
   1762   1778     1
   1763   1771     1
   1763   1765     1
   1764   1767     1
   1764   1776     1
   1764   1766     1
   1764   1771     1
   1764   1768     1
   1764   1765     1
   1765   1781     1
   1765   1770     1
   1765   1779     1
   1765   1778     1
   1766   1777     1
   1766   1781     1
   1768   1778     1
   1769   1778     1
   1772   1775     1
   1772   1776     1
   1773   1775     1
   1773   1776     1
   1776   1777     1
   1776   1778     1
   1778   1780     1
   1782   1789     1
   1782   1804     1
   1782   1799     1
   1782   1790     1
   1783   1788     1
   1783   1794     1
   1783   1796     1
   1783   1797     1
   1784   1785     1
   1784   1803     1
   1784   1802     1
   1784   1798     1
   1784   1796     1
   1784   1797     1
   1784   1787     1
   1785   1790     1
   1785   1795     1
   1785   1804     1
   1786   1801     1
   1786   1794     1
   1786   1802     1
   1787   1795     1
   1787   1789     1
   1788   1791     1
   1788   1800     1
   1788   1790     1
   1788   1795     1
   1788   1792     1
   1788   1789     1
   1789   1805     1
   1789   1794     1
   1789   1803     1
   1789   1802     1
   1790   1801     1
   1790   1805     1
   1792   1802     1
   1793   1802     1
   1796   1799     1
   1796   1800     1
   1797   1799     1
   1797   1800     1
   1800   1801     1
   1800   1802     1
   1802   1804     1
   1807   1813     1
   1807   1814     1
   1808   1811     1
   1808   1810     1
   1808   1812     1
   1809   1880     1
   1810   1815     1
   1810   1813     1
   1810   1814     1
   1811   1825     1
   1811   1826     1
   1811   1818     1
   1811   1820     1
   1812   1815     1
   1812   1813     1
   1812   1814     1
   1813   1816     1
   1813   1817     1
   1813   1880     1
   1814   1816     1
   1814   1817     1
   1814   1880     1
   1815   1828     1
   1815   1829     1
   1815   1821     1
   1815   1822     1
   1816   1818     1
   1816   1820     1
   1817   1825     1
   1817   1826     1
   1818   1880     1
   1818   1823     1
   1818   1821     1
   1818   1822     1
   1819   1880     1
   1819   1845     1
   1820   1880     1
   1820   1823     1
   1820   1821     1
   1820   1822     1
   1821   1824     1
   1821   1855     1
   1822   1824     1
   1822   1855     1
   1823   1838     1
   1824   1845     1
   1825   1880     1
   1825   1830     1
   1825   1828     1
   1825   1829     1
   1826   1880     1
   1826   1830     1
   1826   1828     1
   1826   1829     1
   1827   1880     1
   1827   1869     1
   1828   1831     1
   1828   1879     1
   1829   1831     1
   1829   1879     1
   1830   1862     1
   1831   1869     1
   1832   1839     1
   1832   1854     1
   1832   1849     1
   1832   1840     1
   1833   1846     1
   1833   1847     1
   1833   1838     1
   1833   1844     1
   1834   1835     1
   1834   1853     1
   1834   1852     1
   1834   1848     1
   1834   1846     1
   1834   1847     1
   1834   1837     1
   1835   1854     1
   1835   1840     1
   1835   1845     1
   1836   1852     1
   1836   1844     1
   1836   1851     1
   1837   1839     1
   1837   1845     1
   1838   1842     1
   1838   1839     1
   1838   1841     1
   1838   1850     1
   1838   1840     1
   1838   1845     1
   1839   1853     1
   1839   1852     1
   1839   1855     1
   1839   1844     1
   1840   1855     1
   1840   1851     1
   1842   1852     1
   1843   1852     1
   1846   1850     1
   1846   1849     1
   1847   1850     1
   1847   1849     1
   1850   1852     1
   1850   1851     1
   1852   1854     1
   1856   1863     1
   1856   1878     1
   1856   1873     1
   1856   1864     1
   1857   1870     1
   1857   1871     1
   1857   1862     1
   1857   1868     1
   1858   1859     1
   1858   1877     1
   1858   1876     1
   1858   1872     1
   1858   1870     1
   1858   1871     1
   1858   1861     1
   1859   1878     1
   1859   1864     1
   1859   1869     1
   1860   1876     1
   1860   1868     1
   1860   1875     1
   1861   1863     1
   1861   1869     1
   1862   1866     1
   1862   1863     1
   1862   1865     1
   1862   1874     1
   1862   1864     1
   1862   1869     1
   1863   1877     1
   1863   1876     1
   1863   1879     1
   1863   1868     1
   1864   1879     1
   1864   1875     1
   1866   1876     1
   1867   1876     1
   1870   1874     1
   1870   1873     1
   1871   1874     1
   1871   1873     1
   1874   1876     1
   1874   1875     1
   1876   1878     1
   1881   1887     1
   1881   1888     1
   1882   1885     1
   1882   1884     1
   1882   1886     1
   1883   1954     1
   1884   1889     1
   1884   1887     1
   1884   1888     1
   1885   1899     1
   1885   1900     1
   1885   1892     1
   1885   1894     1
   1886   1889     1
   1886   1887     1
   1886   1888     1
   1887   1890     1
   1887   1891     1
   1887   1954     1
   1888   1890     1
   1888   1891     1
   1888   1954     1
   1889   1902     1
   1889   1903     1
   1889   1895     1
   1889   1896     1
   1890   1892     1
   1890   1894     1
   1891   1899     1
   1891   1900     1
   1892   1897     1
   1892   1895     1
   1892   1896     1
   1892   1954     1
   1893   1919     1
   1893   1954     1
   1894   1897     1
   1894   1895     1
   1894   1896     1
   1894   1954     1
   1895   1898     1
   1895   1929     1
   1896   1898     1
   1896   1929     1
   1897   1912     1
   1898   1919     1
   1899   1904     1
   1899   1902     1
   1899   1903     1
   1899   1954     1
   1900   1904     1
   1900   1902     1
   1900   1903     1
   1900   1954     1
   1901   1943     1
   1901   1954     1
   1902   1905     1
   1902   1953     1
   1903   1905     1
   1903   1953     1
   1904   1936     1
   1905   1943     1
   1906   1913     1
   1906   1928     1
   1906   1923     1
   1906   1914     1
   1907   1912     1
   1907   1918     1
   1907   1920     1
   1907   1921     1
   1908   1909     1
   1908   1927     1
   1908   1926     1
   1908   1922     1
   1908   1920     1
   1908   1921     1
   1908   1911     1
   1909   1914     1
   1909   1919     1
   1909   1928     1
   1910   1925     1
   1910   1918     1
   1910   1926     1
   1911   1919     1
   1911   1913     1
   1912   1915     1
   1912   1924     1
   1912   1914     1
   1912   1919     1
   1912   1916     1
   1912   1913     1
   1913   1929     1
   1913   1918     1
   1913   1927     1
   1913   1926     1
   1914   1925     1
   1914   1929     1
   1916   1926     1
   1917   1926     1
   1920   1923     1
   1920   1924     1
   1921   1923     1
   1921   1924     1
   1924   1925     1
   1924   1926     1
   1926   1928     1
   1930   1937     1
   1930   1952     1
   1930   1947     1
   1930   1938     1
   1931   1936     1
   1931   1942     1
   1931   1944     1
   1931   1945     1
   1932   1933     1
   1932   1951     1
   1932   1950     1
   1932   1946     1
   1932   1944     1
   1932   1945     1
   1932   1935     1
   1933   1938     1
   1933   1943     1
   1933   1952     1
   1934   1949     1
   1934   1942     1
   1934   1950     1
   1935   1943     1
   1935   1937     1
   1936   1939     1
   1936   1948     1
   1936   1938     1
   1936   1943     1
   1936   1940     1
   1936   1937     1
   1937   1953     1
   1937   1942     1
   1937   1951     1
   1937   1950     1
   1938   1949     1
   1938   1953     1
   1940   1950     1
   1941   1950     1
   1944   1947     1
   1944   1948     1
   1945   1947     1
   1945   1948     1
   1948   1949     1
   1948   1950     1
   1950   1952     1
   1955   1961     1
   1955   1962     1
   1956   1959     1
   1956   1958     1
   1956   1960     1
   1957   2028     1
   1958   1963     1
   1958   1961     1
   1958   1962     1
   1959   1973     1
   1959   1974     1
   1959   1966     1
   1959   1968     1
   1960   1963     1
   1960   1961     1
   1960   1962     1
   1961   1964     1
   1961   1965     1
   1961   2028     1
   1962   1964     1
   1962   1965     1
   1962   2028     1
   1963   1976     1
   1963   1977     1
   1963   1969     1
   1963   1970     1
   1964   1966     1
   1964   1968     1
   1965   1973     1
   1965   1974     1
   1966   2028     1
   1966   1971     1
   1966   1969     1
   1966   1970     1
   1967   2028     1
   1967   1993     1
   1968   2028     1
   1968   1971     1
   1968   1969     1
   1968   1970     1
   1969   1972     1
   1969   2003     1
   1970   1972     1
   1970   2003     1
   1971   1986     1
   1972   1993     1
   1973   2028     1
   1973   1978     1
   1973   1976     1
   1973   1977     1
   1974   2028     1
   1974   1978     1
   1974   1976     1
   1974   1977     1
   1975   2028     1
   1975   2017     1
   1976   1979     1
   1976   2027     1
   1977   1979     1
   1977   2027     1
   1978   2010     1
   1979   2017     1
   1980   1987     1
   1980   2002     1
   1980   1997     1
   1980   1988     1
   1981   1994     1
   1981   1995     1
   1981   1986     1
   1981   1992     1
   1982   1983     1
   1982   2001     1
   1982   2000     1
   1982   1996     1
   1982   1994     1
   1982   1995     1
   1982   1985     1
   1983   2002     1
   1983   1988     1
   1983   1993     1
   1984   2000     1
   1984   1992     1
   1984   1999     1
   1985   1987     1
   1985   1993     1
   1986   1990     1
   1986   1987     1
   1986   1989     1
   1986   1998     1
   1986   1988     1
   1986   1993     1
   1987   2001     1
   1987   2000     1
   1987   2003     1
   1987   1992     1
   1988   2003     1
   1988   1999     1
   1990   2000     1
   1991   2000     1
   1994   1998     1
   1994   1997     1
   1995   1998     1
   1995   1997     1
   1998   2000     1
   1998   1999     1
   2000   2002     1
   2004   2011     1
   2004   2026     1
   2004   2021     1
   2004   2012     1
   2005   2018     1
   2005   2019     1
   2005   2010     1
   2005   2016     1
   2006   2007     1
   2006   2025     1
   2006   2024     1
   2006   2020     1
   2006   2018     1
   2006   2019     1
   2006   2009     1
   2007   2026     1
   2007   2012     1
   2007   2017     1
   2008   2024     1
   2008   2016     1
   2008   2023     1
   2009   2011     1
   2009   2017     1
   2010   2014     1
   2010   2011     1
   2010   2013     1
   2010   2022     1
   2010   2012     1
   2010   2017     1
   2011   2025     1
   2011   2024     1
   2011   2027     1
   2011   2016     1
   2012   2027     1
   2012   2023     1
   2014   2024     1
   2015   2024     1
   2018   2022     1
   2018   2021     1
   2019   2022     1
   2019   2021     1
   2022   2024     1
   2022   2023     1
   2024   2026     1
   2029   2035     1
   2029   2036     1
   2030   2033     1
   2030   2032     1
   2030   2034     1
   2031   2102     1
   2032   2037     1
   2032   2035     1
   2032   2036     1
   2033   2047     1
   2033   2048     1
   2033   2040     1
   2033   2042     1
   2034   2037     1
   2034   2035     1
   2034   2036     1
   2035   2038     1
   2035   2039     1
   2035   2102     1
   2036   2038     1
   2036   2039     1
   2036   2102     1
   2037   2050     1
   2037   2051     1
   2037   2043     1
   2037   2044     1
   2038   2040     1
   2038   2042     1
   2039   2047     1
   2039   2048     1
   2040   2045     1
   2040   2043     1
   2040   2044     1
   2040   2102     1
   2041   2067     1
   2041   2102     1
   2042   2045     1
   2042   2043     1
   2042   2044     1
   2042   2102     1
   2043   2046     1
   2043   2077     1
   2044   2046     1
   2044   2077     1
   2045   2060     1
   2046   2067     1
   2047   2052     1
   2047   2050     1
   2047   2051     1
   2047   2102     1
   2048   2052     1
   2048   2050     1
   2048   2051     1
   2048   2102     1
   2049   2091     1
   2049   2102     1
   2050   2053     1
   2050   2101     1
   2051   2053     1
   2051   2101     1
   2052   2084     1
   2053   2091     1
   2054   2061     1
   2054   2076     1
   2054   2071     1
   2054   2062     1
   2055   2060     1
   2055   2066     1
   2055   2068     1
   2055   2069     1
   2056   2057     1
   2056   2075     1
   2056   2074     1
   2056   2070     1
   2056   2068     1
   2056   2069     1
   2056   2059     1
   2057   2062     1
   2057   2067     1
   2057   2076     1
   2058   2073     1
   2058   2066     1
   2058   2074     1
   2059   2067     1
   2059   2061     1
   2060   2063     1
   2060   2072     1
   2060   2062     1
   2060   2067     1
   2060   2064     1
   2060   2061     1
   2061   2077     1
   2061   2066     1
   2061   2075     1
   2061   2074     1
   2062   2073     1
   2062   2077     1
   2064   2074     1
   2065   2074     1
   2068   2071     1
   2068   2072     1
   2069   2071     1
   2069   2072     1
   2072   2073     1
   2072   2074     1
   2074   2076     1
   2078   2085     1
   2078   2100     1
   2078   2095     1
   2078   2086     1
   2079   2084     1
   2079   2090     1
   2079   2092     1
   2079   2093     1
   2080   2081     1
   2080   2099     1
   2080   2098     1
   2080   2094     1
   2080   2092     1
   2080   2093     1
   2080   2083     1
   2081   2086     1
   2081   2091     1
   2081   2100     1
   2082   2097     1
   2082   2090     1
   2082   2098     1
   2083   2091     1
   2083   2085     1
   2084   2087     1
   2084   2096     1
   2084   2086     1
   2084   2091     1
   2084   2088     1
   2084   2085     1
   2085   2101     1
   2085   2090     1
   2085   2099     1
   2085   2098     1
   2086   2097     1
   2086   2101     1
   2088   2098     1
   2089   2098     1
   2092   2095     1
   2092   2096     1
   2093   2095     1
   2093   2096     1
   2096   2097     1
   2096   2098     1
   2098   2100     1
   2103   2109     1
   2103   2110     1
   2104   2107     1
   2104   2106     1
   2104   2108     1
   2105   2176     1
   2106   2111     1
   2106   2109     1
   2106   2110     1
   2107   2121     1
   2107   2122     1
   2107   2114     1
   2107   2116     1
   2108   2111     1
   2108   2109     1
   2108   2110     1
   2109   2112     1
   2109   2113     1
   2109   2176     1
   2110   2112     1
   2110   2113     1
   2110   2176     1
   2111   2124     1
   2111   2125     1
   2111   2117     1
   2111   2118     1
   2112   2114     1
   2112   2116     1
   2113   2121     1
   2113   2122     1
   2114   2176     1
   2114   2119     1
   2114   2117     1
   2114   2118     1
   2115   2176     1
   2115   2141     1
   2116   2176     1
   2116   2119     1
   2116   2117     1
   2116   2118     1
   2117   2120     1
   2117   2151     1
   2118   2120     1
   2118   2151     1
   2119   2134     1
   2120   2141     1
   2121   2176     1
   2121   2126     1
   2121   2124     1
   2121   2125     1
   2122   2176     1
   2122   2126     1
   2122   2124     1
   2122   2125     1
   2123   2176     1
   2123   2165     1
   2124   2127     1
   2124   2175     1
   2125   2127     1
   2125   2175     1
   2126   2158     1
   2127   2165     1
   2128   2135     1
   2128   2150     1
   2128   2145     1
   2128   2136     1
   2129   2142     1
   2129   2143     1
   2129   2134     1
   2129   2140     1
   2130   2131     1
   2130   2149     1
   2130   2148     1
   2130   2144     1
   2130   2142     1
   2130   2143     1
   2130   2133     1
   2131   2150     1
   2131   2136     1
   2131   2141     1
   2132   2148     1
   2132   2140     1
   2132   2147     1
   2133   2135     1
   2133   2141     1
   2134   2138     1
   2134   2135     1
   2134   2137     1
   2134   2146     1
   2134   2136     1
   2134   2141     1
   2135   2149     1
   2135   2148     1
   2135   2151     1
   2135   2140     1
   2136   2151     1
   2136   2147     1
   2138   2148     1
   2139   2148     1
   2142   2146     1
   2142   2145     1
   2143   2146     1
   2143   2145     1
   2146   2148     1
   2146   2147     1
   2148   2150     1
   2152   2159     1
   2152   2174     1
   2152   2169     1
   2152   2160     1
   2153   2166     1
   2153   2167     1
   2153   2158     1
   2153   2164     1
   2154   2155     1
   2154   2173     1
   2154   2172     1
   2154   2168     1
   2154   2166     1
   2154   2167     1
   2154   2157     1
   2155   2174     1
   2155   2160     1
   2155   2165     1
   2156   2172     1
   2156   2164     1
   2156   2171     1
   2157   2159     1
   2157   2165     1
   2158   2162     1
   2158   2159     1
   2158   2161     1
   2158   2170     1
   2158   2160     1
   2158   2165     1
   2159   2173     1
   2159   2172     1
   2159   2175     1
   2159   2164     1
   2160   2175     1
   2160   2171     1
   2162   2172     1
   2163   2172     1
   2166   2170     1
   2166   2169     1
   2167   2170     1
   2167   2169     1
   2170   2172     1
   2170   2171     1
   2172   2174     1
   2177   2183     1
   2177   2184     1
   2178   2181     1
   2178   2180     1
   2178   2182     1
   2179   2250     1
   2180   2185     1
   2180   2183     1
   2180   2184     1
   2181   2195     1
   2181   2196     1
   2181   2188     1
   2181   2190     1
   2182   2185     1
   2182   2183     1
   2182   2184     1
   2183   2186     1
   2183   2187     1
   2183   2250     1
   2184   2186     1
   2184   2187     1
   2184   2250     1
   2185   2198     1
   2185   2199     1
   2185   2191     1
   2185   2192     1
   2186   2188     1
   2186   2190     1
   2187   2195     1
   2187   2196     1
   2188   2193     1
   2188   2191     1
   2188   2192     1
   2188   2250     1
   2189   2215     1
   2189   2250     1
   2190   2193     1
   2190   2191     1
   2190   2192     1
   2190   2250     1
   2191   2194     1
   2191   2225     1
   2192   2194     1
   2192   2225     1
   2193   2208     1
   2194   2215     1
   2195   2200     1
   2195   2198     1
   2195   2199     1
   2195   2250     1
   2196   2200     1
   2196   2198     1
   2196   2199     1
   2196   2250     1
   2197   2239     1
   2197   2250     1
   2198   2201     1
   2198   2249     1
   2199   2201     1
   2199   2249     1
   2200   2232     1
   2201   2239     1
   2202   2209     1
   2202   2224     1
   2202   2219     1
   2202   2210     1
   2203   2208     1
   2203   2214     1
   2203   2216     1
   2203   2217     1
   2204   2205     1
   2204   2223     1
   2204   2222     1
   2204   2218     1
   2204   2216     1
   2204   2217     1
   2204   2207     1
   2205   2210     1
   2205   2215     1
   2205   2224     1
   2206   2221     1
   2206   2214     1
   2206   2222     1
   2207   2215     1
   2207   2209     1
   2208   2211     1
   2208   2220     1
   2208   2210     1
   2208   2215     1
   2208   2212     1
   2208   2209     1
   2209   2225     1
   2209   2214     1
   2209   2223     1
   2209   2222     1
   2210   2221     1
   2210   2225     1
   2212   2222     1
   2213   2222     1
   2216   2219     1
   2216   2220     1
   2217   2219     1
   2217   2220     1
   2220   2221     1
   2220   2222     1
   2222   2224     1
   2226   2233     1
   2226   2248     1
   2226   2243     1
   2226   2234     1
   2227   2232     1
   2227   2238     1
   2227   2240     1
   2227   2241     1
   2228   2229     1
   2228   2247     1
   2228   2246     1
   2228   2242     1
   2228   2240     1
   2228   2241     1
   2228   2231     1
   2229   2234     1
   2229   2239     1
   2229   2248     1
   2230   2245     1
   2230   2238     1
   2230   2246     1
   2231   2239     1
   2231   2233     1
   2232   2235     1
   2232   2244     1
   2232   2234     1
   2232   2239     1
   2232   2236     1
   2232   2233     1
   2233   2249     1
   2233   2238     1
   2233   2247     1
   2233   2246     1
   2234   2245     1
   2234   2249     1
   2236   2246     1
   2237   2246     1
   2240   2243     1
   2240   2244     1
   2241   2243     1
   2241   2244     1
   2244   2245     1
   2244   2246     1
   2246   2248     1
   2251   2257     1
   2251   2258     1
   2252   2255     1
   2252   2254     1
   2252   2256     1
   2253   2324     1
   2254   2259     1
   2254   2257     1
   2254   2258     1
   2255   2269     1
   2255   2270     1
   2255   2262     1
   2255   2264     1
   2256   2259     1
   2256   2257     1
   2256   2258     1
   2257   2260     1
   2257   2261     1
   2257   2324     1
   2258   2260     1
   2258   2261     1
   2258   2324     1
   2259   2272     1
   2259   2273     1
   2259   2265     1
   2259   2266     1
   2260   2262     1
   2260   2264     1
   2261   2269     1
   2261   2270     1
   2262   2324     1
   2262   2267     1
   2262   2265     1
   2262   2266     1
   2263   2324     1
   2263   2289     1
   2264   2324     1
   2264   2267     1
   2264   2265     1
   2264   2266     1
   2265   2268     1
   2265   2299     1
   2266   2268     1
   2266   2299     1
   2267   2282     1
   2268   2289     1
   2269   2324     1
   2269   2274     1
   2269   2272     1
   2269   2273     1
   2270   2324     1
   2270   2274     1
   2270   2272     1
   2270   2273     1
   2271   2324     1
   2271   2313     1
   2272   2275     1
   2272   2323     1
   2273   2275     1
   2273   2323     1
   2274   2306     1
   2275   2313     1
   2276   2283     1
   2276   2298     1
   2276   2293     1
   2276   2284     1
   2277   2290     1
   2277   2291     1
   2277   2282     1
   2277   2288     1
   2278   2279     1
   2278   2297     1
   2278   2296     1
   2278   2292     1
   2278   2290     1
   2278   2291     1
   2278   2281     1
   2279   2298     1
   2279   2284     1
   2279   2289     1
   2280   2296     1
   2280   2288     1
   2280   2295     1
   2281   2283     1
   2281   2289     1
   2282   2286     1
   2282   2283     1
   2282   2285     1
   2282   2294     1
   2282   2284     1
   2282   2289     1
   2283   2297     1
   2283   2296     1
   2283   2299     1
   2283   2288     1
   2284   2299     1
   2284   2295     1
   2286   2296     1
   2287   2296     1
   2290   2294     1
   2290   2293     1
   2291   2294     1
   2291   2293     1
   2294   2296     1
   2294   2295     1
   2296   2298     1
   2300   2307     1
   2300   2322     1
   2300   2317     1
   2300   2308     1
   2301   2314     1
   2301   2315     1
   2301   2306     1
   2301   2312     1
   2302   2303     1
   2302   2321     1
   2302   2320     1
   2302   2316     1
   2302   2314     1
   2302   2315     1
   2302   2305     1
   2303   2322     1
   2303   2308     1
   2303   2313     1
   2304   2320     1
   2304   2312     1
   2304   2319     1
   2305   2307     1
   2305   2313     1
   2306   2310     1
   2306   2307     1
   2306   2309     1
   2306   2318     1
   2306   2308     1
   2306   2313     1
   2307   2321     1
   2307   2320     1
   2307   2323     1
   2307   2312     1
   2308   2323     1
   2308   2319     1
   2310   2320     1
   2311   2320     1
   2314   2318     1
   2314   2317     1
   2315   2318     1
   2315   2317     1
   2318   2320     1
   2318   2319     1
   2320   2322     1
   2325   2331     1
   2325   2332     1
   2326   2329     1
   2326   2328     1
   2326   2330     1
   2327   2398     1
   2328   2333     1
   2328   2331     1
   2328   2332     1
   2329   2343     1
   2329   2344     1
   2329   2336     1
   2329   2338     1
   2330   2333     1
   2330   2331     1
   2330   2332     1
   2331   2334     1
   2331   2335     1
   2331   2398     1
   2332   2334     1
   2332   2335     1
   2332   2398     1
   2333   2346     1
   2333   2347     1
   2333   2339     1
   2333   2340     1
   2334   2336     1
   2334   2338     1
   2335   2343     1
   2335   2344     1
   2336   2341     1
   2336   2339     1
   2336   2340     1
   2336   2398     1
   2337   2363     1
   2337   2398     1
   2338   2341     1
   2338   2339     1
   2338   2340     1
   2338   2398     1
   2339   2342     1
   2339   2373     1
   2340   2342     1
   2340   2373     1
   2341   2356     1
   2342   2363     1
   2343   2348     1
   2343   2346     1
   2343   2347     1
   2343   2398     1
   2344   2348     1
   2344   2346     1
   2344   2347     1
   2344   2398     1
   2345   2387     1
   2345   2398     1
   2346   2349     1
   2346   2397     1
   2347   2349     1
   2347   2397     1
   2348   2380     1
   2349   2387     1
   2350   2357     1
   2350   2372     1
   2350   2367     1
   2350   2358     1
   2351   2356     1
   2351   2362     1
   2351   2364     1
   2351   2365     1
   2352   2353     1
   2352   2371     1
   2352   2370     1
   2352   2366     1
   2352   2364     1
   2352   2365     1
   2352   2355     1
   2353   2358     1
   2353   2363     1
   2353   2372     1
   2354   2369     1
   2354   2362     1
   2354   2370     1
   2355   2363     1
   2355   2357     1
   2356   2359     1
   2356   2368     1
   2356   2358     1
   2356   2363     1
   2356   2360     1
   2356   2357     1
   2357   2373     1
   2357   2362     1
   2357   2371     1
   2357   2370     1
   2358   2369     1
   2358   2373     1
   2360   2370     1
   2361   2370     1
   2364   2367     1
   2364   2368     1
   2365   2367     1
   2365   2368     1
   2368   2369     1
   2368   2370     1
   2370   2372     1
   2374   2381     1
   2374   2396     1
   2374   2391     1
   2374   2382     1
   2375   2380     1
   2375   2386     1
   2375   2388     1
   2375   2389     1
   2376   2377     1
   2376   2395     1
   2376   2394     1
   2376   2390     1
   2376   2388     1
   2376   2389     1
   2376   2379     1
   2377   2382     1
   2377   2387     1
   2377   2396     1
   2378   2393     1
   2378   2386     1
   2378   2394     1
   2379   2387     1
   2379   2381     1
   2380   2383     1
   2380   2392     1
   2380   2382     1
   2380   2387     1
   2380   2384     1
   2380   2381     1
   2381   2397     1
   2381   2386     1
   2381   2395     1
   2381   2394     1
   2382   2393     1
   2382   2397     1
   2384   2394     1
   2385   2394     1
   2388   2391     1
   2388   2392     1
   2389   2391     1
   2389   2392     1
   2392   2393     1
   2392   2394     1
   2394   2396     1
   2399   2405     1
   2399   2406     1
   2400   2403     1
   2400   2402     1
   2400   2404     1
   2401   2472     1
   2402   2407     1
   2402   2405     1
   2402   2406     1
   2403   2417     1
   2403   2418     1
   2403   2410     1
   2403   2412     1
   2404   2407     1
   2404   2405     1
   2404   2406     1
   2405   2408     1
   2405   2409     1
   2405   2472     1
   2406   2408     1
   2406   2409     1
   2406   2472     1
   2407   2420     1
   2407   2421     1
   2407   2413     1
   2407   2414     1
   2408   2410     1
   2408   2412     1
   2409   2417     1
   2409   2418     1
   2410   2472     1
   2410   2415     1
   2410   2413     1
   2410   2414     1
   2411   2472     1
   2411   2437     1
   2412   2472     1
   2412   2415     1
   2412   2413     1
   2412   2414     1
   2413   2416     1
   2413   2447     1
   2414   2416     1
   2414   2447     1
   2415   2430     1
   2416   2437     1
   2417   2472     1
   2417   2422     1
   2417   2420     1
   2417   2421     1
   2418   2472     1
   2418   2422     1
   2418   2420     1
   2418   2421     1
   2419   2472     1
   2419   2461     1
   2420   2423     1
   2420   2471     1
   2421   2423     1
   2421   2471     1
   2422   2454     1
   2423   2461     1
   2424   2431     1
   2424   2446     1
   2424   2441     1
   2424   2432     1
   2425   2438     1
   2425   2439     1
   2425   2430     1
   2425   2436     1
   2426   2427     1
   2426   2445     1
   2426   2444     1
   2426   2440     1
   2426   2438     1
   2426   2439     1
   2426   2429     1
   2427   2446     1
   2427   2432     1
   2427   2437     1
   2428   2444     1
   2428   2436     1
   2428   2443     1
   2429   2431     1
   2429   2437     1
   2430   2434     1
   2430   2431     1
   2430   2433     1
   2430   2442     1
   2430   2432     1
   2430   2437     1
   2431   2445     1
   2431   2444     1
   2431   2447     1
   2431   2436     1
   2432   2447     1
   2432   2443     1
   2434   2444     1
   2435   2444     1
   2438   2442     1
   2438   2441     1
   2439   2442     1
   2439   2441     1
   2442   2444     1
   2442   2443     1
   2444   2446     1
   2448   2455     1
   2448   2470     1
   2448   2465     1
   2448   2456     1
   2449   2462     1
   2449   2463     1
   2449   2454     1
   2449   2460     1
   2450   2451     1
   2450   2469     1
   2450   2468     1
   2450   2464     1
   2450   2462     1
   2450   2463     1
   2450   2453     1
   2451   2470     1
   2451   2456     1
   2451   2461     1
   2452   2468     1
   2452   2460     1
   2452   2467     1
   2453   2455     1
   2453   2461     1
   2454   2458     1
   2454   2455     1
   2454   2457     1
   2454   2466     1
   2454   2456     1
   2454   2461     1
   2455   2469     1
   2455   2468     1
   2455   2471     1
   2455   2460     1
   2456   2471     1
   2456   2467     1
   2458   2468     1
   2459   2468     1
   2462   2466     1
   2462   2465     1
   2463   2466     1
   2463   2465     1
   2466   2468     1
   2466   2467     1
   2468   2470     1
   2473   2479     1
   2473   2480     1
   2474   2477     1
   2474   2476     1
   2474   2478     1
   2475   2546     1
   2476   2481     1
   2476   2479     1
   2476   2480     1
   2477   2491     1
   2477   2492     1
   2477   2484     1
   2477   2486     1
   2478   2481     1
   2478   2479     1
   2478   2480     1
   2479   2482     1
   2479   2483     1
   2479   2546     1
   2480   2482     1
   2480   2483     1
   2480   2546     1
   2481   2494     1
   2481   2495     1
   2481   2487     1
   2481   2488     1
   2482   2484     1
   2482   2486     1
   2483   2491     1
   2483   2492     1
   2484   2489     1
   2484   2487     1
   2484   2488     1
   2484   2546     1
   2485   2511     1
   2485   2546     1
   2486   2489     1
   2486   2487     1
   2486   2488     1
   2486   2546     1
   2487   2490     1
   2487   2521     1
   2488   2490     1
   2488   2521     1
   2489   2504     1
   2490   2511     1
   2491   2496     1
   2491   2494     1
   2491   2495     1
   2491   2546     1
   2492   2496     1
   2492   2494     1
   2492   2495     1
   2492   2546     1
   2493   2535     1
   2493   2546     1
   2494   2497     1
   2494   2545     1
   2495   2497     1
   2495   2545     1
   2496   2528     1
   2497   2535     1
   2498   2505     1
   2498   2520     1
   2498   2515     1
   2498   2506     1
   2499   2504     1
   2499   2510     1
   2499   2512     1
   2499   2513     1
   2500   2501     1
   2500   2519     1
   2500   2518     1
   2500   2514     1
   2500   2512     1
   2500   2513     1
   2500   2503     1
   2501   2506     1
   2501   2511     1
   2501   2520     1
   2502   2517     1
   2502   2510     1
   2502   2518     1
   2503   2511     1
   2503   2505     1
   2504   2507     1
   2504   2516     1
   2504   2506     1
   2504   2511     1
   2504   2508     1
   2504   2505     1
   2505   2521     1
   2505   2510     1
   2505   2519     1
   2505   2518     1
   2506   2517     1
   2506   2521     1
   2508   2518     1
   2509   2518     1
   2512   2515     1
   2512   2516     1
   2513   2515     1
   2513   2516     1
   2516   2517     1
   2516   2518     1
   2518   2520     1
   2522   2529     1
   2522   2544     1
   2522   2539     1
   2522   2530     1
   2523   2528     1
   2523   2534     1
   2523   2536     1
   2523   2537     1
   2524   2525     1
   2524   2543     1
   2524   2542     1
   2524   2538     1
   2524   2536     1
   2524   2537     1
   2524   2527     1
   2525   2530     1
   2525   2535     1
   2525   2544     1
   2526   2541     1
   2526   2534     1
   2526   2542     1
   2527   2535     1
   2527   2529     1
   2528   2531     1
   2528   2540     1
   2528   2530     1
   2528   2535     1
   2528   2532     1
   2528   2529     1
   2529   2545     1
   2529   2534     1
   2529   2543     1
   2529   2542     1
   2530   2541     1
   2530   2545     1
   2532   2542     1
   2533   2542     1
   2536   2539     1
   2536   2540     1
   2537   2539     1
   2537   2540     1
   2540   2541     1
   2540   2542     1
   2542   2544     1
   2547   2553     1
   2547   2554     1
   2548   2551     1
   2548   2550     1
   2548   2552     1
   2549   2620     1
   2550   2555     1
   2550   2553     1
   2550   2554     1
   2551   2565     1
   2551   2566     1
   2551   2558     1
   2551   2560     1
   2552   2555     1
   2552   2553     1
   2552   2554     1
   2553   2556     1
   2553   2557     1
   2553   2620     1
   2554   2556     1
   2554   2557     1
   2554   2620     1
   2555   2568     1
   2555   2569     1
   2555   2561     1
   2555   2562     1
   2556   2558     1
   2556   2560     1
   2557   2565     1
   2557   2566     1
   2558   2620     1
   2558   2563     1
   2558   2561     1
   2558   2562     1
   2559   2620     1
   2559   2585     1
   2560   2620     1
   2560   2563     1
   2560   2561     1
   2560   2562     1
   2561   2564     1
   2561   2595     1
   2562   2564     1
   2562   2595     1
   2563   2578     1
   2564   2585     1
   2565   2620     1
   2565   2570     1
   2565   2568     1
   2565   2569     1
   2566   2620     1
   2566   2570     1
   2566   2568     1
   2566   2569     1
   2567   2620     1
   2567   2609     1
   2568   2571     1
   2568   2619     1
   2569   2571     1
   2569   2619     1
   2570   2602     1
   2571   2609     1
   2572   2579     1
   2572   2594     1
   2572   2589     1
   2572   2580     1
   2573   2586     1
   2573   2587     1
   2573   2578     1
   2573   2584     1
   2574   2575     1
   2574   2593     1
   2574   2592     1
   2574   2588     1
   2574   2586     1
   2574   2587     1
   2574   2577     1
   2575   2594     1
   2575   2580     1
   2575   2585     1
   2576   2592     1
   2576   2584     1
   2576   2591     1
   2577   2579     1
   2577   2585     1
   2578   2582     1
   2578   2579     1
   2578   2581     1
   2578   2590     1
   2578   2580     1
   2578   2585     1
   2579   2593     1
   2579   2592     1
   2579   2595     1
   2579   2584     1
   2580   2595     1
   2580   2591     1
   2582   2592     1
   2583   2592     1
   2586   2590     1
   2586   2589     1
   2587   2590     1
   2587   2589     1
   2590   2592     1
   2590   2591     1
   2592   2594     1
   2596   2603     1
   2596   2618     1
   2596   2613     1
   2596   2604     1
   2597   2610     1
   2597   2611     1
   2597   2602     1
   2597   2608     1
   2598   2599     1
   2598   2617     1
   2598   2616     1
   2598   2612     1
   2598   2610     1
   2598   2611     1
   2598   2601     1
   2599   2618     1
   2599   2604     1
   2599   2609     1
   2600   2616     1
   2600   2608     1
   2600   2615     1
   2601   2603     1
   2601   2609     1
   2602   2606     1
   2602   2603     1
   2602   2605     1
   2602   2614     1
   2602   2604     1
   2602   2609     1
   2603   2617     1
   2603   2616     1
   2603   2619     1
   2603   2608     1
   2604   2619     1
   2604   2615     1
   2606   2616     1
   2607   2616     1
   2610   2614     1
   2610   2613     1
   2611   2614     1
   2611   2613     1
   2614   2616     1
   2614   2615     1
   2616   2618     1
   2621   2627     1
   2621   2628     1
   2622   2625     1
   2622   2624     1
   2622   2626     1
   2623   2694     1
   2624   2629     1
   2624   2627     1
   2624   2628     1
   2625   2639     1
   2625   2640     1
   2625   2632     1
   2625   2634     1
   2626   2629     1
   2626   2627     1
   2626   2628     1
   2627   2630     1
   2627   2631     1
   2627   2694     1
   2628   2630     1
   2628   2631     1
   2628   2694     1
   2629   2642     1
   2629   2643     1
   2629   2635     1
   2629   2636     1
   2630   2632     1
   2630   2634     1
   2631   2639     1
   2631   2640     1
   2632   2637     1
   2632   2635     1
   2632   2636     1
   2632   2694     1
   2633   2659     1
   2633   2694     1
   2634   2637     1
   2634   2635     1
   2634   2636     1
   2634   2694     1
   2635   2638     1
   2635   2669     1
   2636   2638     1
   2636   2669     1
   2637   2652     1
   2638   2659     1
   2639   2644     1
   2639   2642     1
   2639   2643     1
   2639   2694     1
   2640   2644     1
   2640   2642     1
   2640   2643     1
   2640   2694     1
   2641   2683     1
   2641   2694     1
   2642   2645     1
   2642   2693     1
   2643   2645     1
   2643   2693     1
   2644   2676     1
   2645   2683     1
   2646   2653     1
   2646   2668     1
   2646   2663     1
   2646   2654     1
   2647   2652     1
   2647   2658     1
   2647   2660     1
   2647   2661     1
   2648   2649     1
   2648   2667     1
   2648   2666     1
   2648   2662     1
   2648   2660     1
   2648   2661     1
   2648   2651     1
   2649   2654     1
   2649   2659     1
   2649   2668     1
   2650   2665     1
   2650   2658     1
   2650   2666     1
   2651   2659     1
   2651   2653     1
   2652   2655     1
   2652   2664     1
   2652   2654     1
   2652   2659     1
   2652   2656     1
   2652   2653     1
   2653   2669     1
   2653   2658     1
   2653   2667     1
   2653   2666     1
   2654   2665     1
   2654   2669     1
   2656   2666     1
   2657   2666     1
   2660   2663     1
   2660   2664     1
   2661   2663     1
   2661   2664     1
   2664   2665     1
   2664   2666     1
   2666   2668     1
   2670   2677     1
   2670   2692     1
   2670   2687     1
   2670   2678     1
   2671   2676     1
   2671   2682     1
   2671   2684     1
   2671   2685     1
   2672   2673     1
   2672   2691     1
   2672   2690     1
   2672   2686     1
   2672   2684     1
   2672   2685     1
   2672   2675     1
   2673   2678     1
   2673   2683     1
   2673   2692     1
   2674   2689     1
   2674   2682     1
   2674   2690     1
   2675   2683     1
   2675   2677     1
   2676   2679     1
   2676   2688     1
   2676   2678     1
   2676   2683     1
   2676   2680     1
   2676   2677     1
   2677   2693     1
   2677   2682     1
   2677   2691     1
   2677   2690     1
   2678   2689     1
   2678   2693     1
   2680   2690     1
   2681   2690     1
   2684   2687     1
   2684   2688     1
   2685   2687     1
   2685   2688     1
   2688   2689     1
   2688   2690     1
   2690   2692     1
   2695   2701     1
   2695   2702     1
   2696   2699     1
   2696   2698     1
   2696   2700     1
   2697   2768     1
   2698   2703     1
   2698   2701     1
   2698   2702     1
   2699   2713     1
   2699   2714     1
   2699   2706     1
   2699   2708     1
   2700   2703     1
   2700   2701     1
   2700   2702     1
   2701   2704     1
   2701   2705     1
   2701   2768     1
   2702   2704     1
   2702   2705     1
   2702   2768     1
   2703   2716     1
   2703   2717     1
   2703   2709     1
   2703   2710     1
   2704   2706     1
   2704   2708     1
   2705   2713     1
   2705   2714     1
   2706   2768     1
   2706   2711     1
   2706   2709     1
   2706   2710     1
   2707   2768     1
   2707   2733     1
   2708   2768     1
   2708   2711     1
   2708   2709     1
   2708   2710     1
   2709   2712     1
   2709   2743     1
   2710   2712     1
   2710   2743     1
   2711   2726     1
   2712   2733     1
   2713   2768     1
   2713   2718     1
   2713   2716     1
   2713   2717     1
   2714   2768     1
   2714   2718     1
   2714   2716     1
   2714   2717     1
   2715   2768     1
   2715   2757     1
   2716   2719     1
   2716   2767     1
   2717   2719     1
   2717   2767     1
   2718   2750     1
   2719   2757     1
   2720   2727     1
   2720   2742     1
   2720   2737     1
   2720   2728     1
   2721   2734     1
   2721   2735     1
   2721   2726     1
   2721   2732     1
   2722   2723     1
   2722   2741     1
   2722   2740     1
   2722   2736     1
   2722   2734     1
   2722   2735     1
   2722   2725     1
   2723   2742     1
   2723   2728     1
   2723   2733     1
   2724   2740     1
   2724   2732     1
   2724   2739     1
   2725   2727     1
   2725   2733     1
   2726   2730     1
   2726   2727     1
   2726   2729     1
   2726   2738     1
   2726   2728     1
   2726   2733     1
   2727   2741     1
   2727   2740     1
   2727   2743     1
   2727   2732     1
   2728   2743     1
   2728   2739     1
   2730   2740     1
   2731   2740     1
   2734   2738     1
   2734   2737     1
   2735   2738     1
   2735   2737     1
   2738   2740     1
   2738   2739     1
   2740   2742     1
   2744   2751     1
   2744   2766     1
   2744   2761     1
   2744   2752     1
   2745   2758     1
   2745   2759     1
   2745   2750     1
   2745   2756     1
   2746   2747     1
   2746   2765     1
   2746   2764     1
   2746   2760     1
   2746   2758     1
   2746   2759     1
   2746   2749     1
   2747   2766     1
   2747   2752     1
   2747   2757     1
   2748   2764     1
   2748   2756     1
   2748   2763     1
   2749   2751     1
   2749   2757     1
   2750   2754     1
   2750   2751     1
   2750   2753     1
   2750   2762     1
   2750   2752     1
   2750   2757     1
   2751   2765     1
   2751   2764     1
   2751   2767     1
   2751   2756     1
   2752   2767     1
   2752   2763     1
   2754   2764     1
   2755   2764     1
   2758   2762     1
   2758   2761     1
   2759   2762     1
   2759   2761     1
   2762   2764     1
   2762   2763     1
   2764   2766     1
   2769   2775     1
   2769   2776     1
   2770   2773     1
   2770   2772     1
   2770   2774     1
   2771   2842     1
   2772   2777     1
   2772   2775     1
   2772   2776     1
   2773   2787     1
   2773   2788     1
   2773   2780     1
   2773   2782     1
   2774   2777     1
   2774   2775     1
   2774   2776     1
   2775   2778     1
   2775   2779     1
   2775   2842     1
   2776   2778     1
   2776   2779     1
   2776   2842     1
   2777   2790     1
   2777   2791     1
   2777   2783     1
   2777   2784     1
   2778   2780     1
   2778   2782     1
   2779   2787     1
   2779   2788     1
   2780   2785     1
   2780   2783     1
   2780   2784     1
   2780   2842     1
   2781   2807     1
   2781   2842     1
   2782   2785     1
   2782   2783     1
   2782   2784     1
   2782   2842     1
   2783   2786     1
   2783   2817     1
   2784   2786     1
   2784   2817     1
   2785   2800     1
   2786   2807     1
   2787   2792     1
   2787   2790     1
   2787   2791     1
   2787   2842     1
   2788   2792     1
   2788   2790     1
   2788   2791     1
   2788   2842     1
   2789   2831     1
   2789   2842     1
   2790   2793     1
   2790   2841     1
   2791   2793     1
   2791   2841     1
   2792   2824     1
   2793   2831     1
   2794   2801     1
   2794   2816     1
   2794   2811     1
   2794   2802     1
   2795   2800     1
   2795   2806     1
   2795   2808     1
   2795   2809     1
   2796   2797     1
   2796   2815     1
   2796   2814     1
   2796   2810     1
   2796   2808     1
   2796   2809     1
   2796   2799     1
   2797   2802     1
   2797   2807     1
   2797   2816     1
   2798   2813     1
   2798   2806     1
   2798   2814     1
   2799   2807     1
   2799   2801     1
   2800   2803     1
   2800   2812     1
   2800   2802     1
   2800   2807     1
   2800   2804     1
   2800   2801     1
   2801   2817     1
   2801   2806     1
   2801   2815     1
   2801   2814     1
   2802   2813     1
   2802   2817     1
   2804   2814     1
   2805   2814     1
   2808   2811     1
   2808   2812     1
   2809   2811     1
   2809   2812     1
   2812   2813     1
   2812   2814     1
   2814   2816     1
   2818   2825     1
   2818   2840     1
   2818   2835     1
   2818   2826     1
   2819   2824     1
   2819   2830     1
   2819   2832     1
   2819   2833     1
   2820   2821     1
   2820   2839     1
   2820   2838     1
   2820   2834     1
   2820   2832     1
   2820   2833     1
   2820   2823     1
   2821   2826     1
   2821   2831     1
   2821   2840     1
   2822   2837     1
   2822   2830     1
   2822   2838     1
   2823   2831     1
   2823   2825     1
   2824   2827     1
   2824   2836     1
   2824   2826     1
   2824   2831     1
   2824   2828     1
   2824   2825     1
   2825   2841     1
   2825   2830     1
   2825   2839     1
   2825   2838     1
   2826   2837     1
   2826   2841     1
   2828   2838     1
   2829   2838     1
   2832   2835     1
   2832   2836     1
   2833   2835     1
   2833   2836     1
   2836   2837     1
   2836   2838     1
   2838   2840     1
   2843   2849     1
   2843   2850     1
   2844   2847     1
   2844   2846     1
   2844   2848     1
   2845   2916     1
   2846   2851     1
   2846   2849     1
   2846   2850     1
   2847   2861     1
   2847   2862     1
   2847   2854     1
   2847   2856     1
   2848   2851     1
   2848   2849     1
   2848   2850     1
   2849   2852     1
   2849   2853     1
   2849   2916     1
   2850   2852     1
   2850   2853     1
   2850   2916     1
   2851   2864     1
   2851   2865     1
   2851   2857     1
   2851   2858     1
   2852   2854     1
   2852   2856     1
   2853   2861     1
   2853   2862     1
   2854   2916     1
   2854   2859     1
   2854   2857     1
   2854   2858     1
   2855   2916     1
   2855   2881     1
   2856   2916     1
   2856   2859     1
   2856   2857     1
   2856   2858     1
   2857   2860     1
   2857   2891     1
   2858   2860     1
   2858   2891     1
   2859   2874     1
   2860   2881     1
   2861   2916     1
   2861   2866     1
   2861   2864     1
   2861   2865     1
   2862   2916     1
   2862   2866     1
   2862   2864     1
   2862   2865     1
   2863   2916     1
   2863   2905     1
   2864   2867     1
   2864   2915     1
   2865   2867     1
   2865   2915     1
   2866   2898     1
   2867   2905     1
   2868   2875     1
   2868   2890     1
   2868   2885     1
   2868   2876     1
   2869   2882     1
   2869   2883     1
   2869   2874     1
   2869   2880     1
   2870   2871     1
   2870   2889     1
   2870   2888     1
   2870   2884     1
   2870   2882     1
   2870   2883     1
   2870   2873     1
   2871   2890     1
   2871   2876     1
   2871   2881     1
   2872   2888     1
   2872   2880     1
   2872   2887     1
   2873   2875     1
   2873   2881     1
   2874   2878     1
   2874   2875     1
   2874   2877     1
   2874   2886     1
   2874   2876     1
   2874   2881     1
   2875   2889     1
   2875   2888     1
   2875   2891     1
   2875   2880     1
   2876   2891     1
   2876   2887     1
   2878   2888     1
   2879   2888     1
   2882   2886     1
   2882   2885     1
   2883   2886     1
   2883   2885     1
   2886   2888     1
   2886   2887     1
   2888   2890     1
   2892   2899     1
   2892   2914     1
   2892   2909     1
   2892   2900     1
   2893   2906     1
   2893   2907     1
   2893   2898     1
   2893   2904     1
   2894   2895     1
   2894   2913     1
   2894   2912     1
   2894   2908     1
   2894   2906     1
   2894   2907     1
   2894   2897     1
   2895   2914     1
   2895   2900     1
   2895   2905     1
   2896   2912     1
   2896   2904     1
   2896   2911     1
   2897   2899     1
   2897   2905     1
   2898   2902     1
   2898   2899     1
   2898   2901     1
   2898   2910     1
   2898   2900     1
   2898   2905     1
   2899   2913     1
   2899   2912     1
   2899   2915     1
   2899   2904     1
   2900   2915     1
   2900   2911     1
   2902   2912     1
   2903   2912     1
   2906   2910     1
   2906   2909     1
   2907   2910     1
   2907   2909     1
   2910   2912     1
   2910   2911     1
   2912   2914     1
   2917   2923     1
   2917   2924     1
   2918   2921     1
   2918   2920     1
   2918   2922     1
   2919   2990     1
   2920   2925     1
   2920   2923     1
   2920   2924     1
   2921   2935     1
   2921   2936     1
   2921   2928     1
   2921   2930     1
   2922   2925     1
   2922   2923     1
   2922   2924     1
   2923   2926     1
   2923   2927     1
   2923   2990     1
   2924   2926     1
   2924   2927     1
   2924   2990     1
   2925   2938     1
   2925   2939     1
   2925   2931     1
   2925   2932     1
   2926   2928     1
   2926   2930     1
   2927   2935     1
   2927   2936     1
   2928   2933     1
   2928   2931     1
   2928   2932     1
   2928   2990     1
   2929   2955     1
   2929   2990     1
   2930   2933     1
   2930   2931     1
   2930   2932     1
   2930   2990     1
   2931   2934     1
   2931   2965     1
   2932   2934     1
   2932   2965     1
   2933   2948     1
   2934   2955     1
   2935   2940     1
   2935   2938     1
   2935   2939     1
   2935   2990     1
   2936   2940     1
   2936   2938     1
   2936   2939     1
   2936   2990     1
   2937   2979     1
   2937   2990     1
   2938   2941     1
   2938   2989     1
   2939   2941     1
   2939   2989     1
   2940   2972     1
   2941   2979     1
   2942   2949     1
   2942   2964     1
   2942   2959     1
   2942   2950     1
   2943   2948     1
   2943   2954     1
   2943   2956     1
   2943   2957     1
   2944   2945     1
   2944   2963     1
   2944   2962     1
   2944   2958     1
   2944   2956     1
   2944   2957     1
   2944   2947     1
   2945   2950     1
   2945   2955     1
   2945   2964     1
   2946   2961     1
   2946   2954     1
   2946   2962     1
   2947   2955     1
   2947   2949     1
   2948   2951     1
   2948   2960     1
   2948   2950     1
   2948   2955     1
   2948   2952     1
   2948   2949     1
   2949   2965     1
   2949   2954     1
   2949   2963     1
   2949   2962     1
   2950   2961     1
   2950   2965     1
   2952   2962     1
   2953   2962     1
   2956   2959     1
   2956   2960     1
   2957   2959     1
   2957   2960     1
   2960   2961     1
   2960   2962     1
   2962   2964     1
   2966   2973     1
   2966   2988     1
   2966   2983     1
   2966   2974     1
   2967   2972     1
   2967   2978     1
   2967   2980     1
   2967   2981     1
   2968   2969     1
   2968   2987     1
   2968   2986     1
   2968   2982     1
   2968   2980     1
   2968   2981     1
   2968   2971     1
   2969   2974     1
   2969   2979     1
   2969   2988     1
   2970   2985     1
   2970   2978     1
   2970   2986     1
   2971   2979     1
   2971   2973     1
   2972   2975     1
   2972   2984     1
   2972   2974     1
   2972   2979     1
   2972   2976     1
   2972   2973     1
   2973   2989     1
   2973   2978     1
   2973   2987     1
   2973   2986     1
   2974   2985     1
   2974   2989     1
   2976   2986     1
   2977   2986     1
   2980   2983     1
   2980   2984     1
   2981   2983     1
   2981   2984     1
   2984   2985     1
   2984   2986     1
   2986   2988     1
   2991   2997     1
   2991   2998     1
   2992   2995     1
   2992   2994     1
   2992   2996     1
   2993   3064     1
   2994   2999     1
   2994   2997     1
   2994   2998     1
   2995   3009     1
   2995   3010     1
   2995   3002     1
   2995   3004     1
   2996   2999     1
   2996   2997     1
   2996   2998     1
   2997   3000     1
   2997   3001     1
   2997   3064     1
   2998   3000     1
   2998   3001     1
   2998   3064     1
   2999   3012     1
   2999   3013     1
   2999   3005     1
   2999   3006     1
   3000   3002     1
   3000   3004     1
   3001   3009     1
   3001   3010     1
   3002   3064     1
   3002   3007     1
   3002   3005     1
   3002   3006     1
   3003   3064     1
   3003   3029     1
   3004   3064     1
   3004   3007     1
   3004   3005     1
   3004   3006     1
   3005   3008     1
   3005   3039     1
   3006   3008     1
   3006   3039     1
   3007   3022     1
   3008   3029     1
   3009   3064     1
   3009   3014     1
   3009   3012     1
   3009   3013     1
   3010   3064     1
   3010   3014     1
   3010   3012     1
   3010   3013     1
   3011   3064     1
   3011   3053     1
   3012   3015     1
   3012   3063     1
   3013   3015     1
   3013   3063     1
   3014   3046     1
   3015   3053     1
   3016   3023     1
   3016   3038     1
   3016   3033     1
   3016   3024     1
   3017   3030     1
   3017   3031     1
   3017   3022     1
   3017   3028     1
   3018   3019     1
   3018   3037     1
   3018   3036     1
   3018   3032     1
   3018   3030     1
   3018   3031     1
   3018   3021     1
   3019   3038     1
   3019   3024     1
   3019   3029     1
   3020   3036     1
   3020   3028     1
   3020   3035     1
   3021   3023     1
   3021   3029     1
   3022   3026     1
   3022   3023     1
   3022   3025     1
   3022   3034     1
   3022   3024     1
   3022   3029     1
   3023   3037     1
   3023   3036     1
   3023   3039     1
   3023   3028     1
   3024   3039     1
   3024   3035     1
   3026   3036     1
   3027   3036     1
   3030   3034     1
   3030   3033     1
   3031   3034     1
   3031   3033     1
   3034   3036     1
   3034   3035     1
   3036   3038     1
   3040   3047     1
   3040   3062     1
   3040   3057     1
   3040   3048     1
   3041   3054     1
   3041   3055     1
   3041   3046     1
   3041   3052     1
   3042   3043     1
   3042   3061     1
   3042   3060     1
   3042   3056     1
   3042   3054     1
   3042   3055     1
   3042   3045     1
   3043   3062     1
   3043   3048     1
   3043   3053     1
   3044   3060     1
   3044   3052     1
   3044   3059     1
   3045   3047     1
   3045   3053     1
   3046   3050     1
   3046   3047     1
   3046   3049     1
   3046   3058     1
   3046   3048     1
   3046   3053     1
   3047   3061     1
   3047   3060     1
   3047   3063     1
   3047   3052     1
   3048   3063     1
   3048   3059     1
   3050   3060     1
   3051   3060     1
   3054   3058     1
   3054   3057     1
   3055   3058     1
   3055   3057     1
   3058   3060     1
   3058   3059     1
   3060   3062     1
   3065   3071     1
   3065   3072     1
   3066   3069     1
   3066   3068     1
   3066   3070     1
   3067   3138     1
   3068   3073     1
   3068   3071     1
   3068   3072     1
   3069   3083     1
   3069   3084     1
   3069   3076     1
   3069   3078     1
   3070   3073     1
   3070   3071     1
   3070   3072     1
   3071   3074     1
   3071   3075     1
   3071   3138     1
   3072   3074     1
   3072   3075     1
   3072   3138     1
   3073   3086     1
   3073   3087     1
   3073   3079     1
   3073   3080     1
   3074   3076     1
   3074   3078     1
   3075   3083     1
   3075   3084     1
   3076   3081     1
   3076   3079     1
   3076   3080     1
   3076   3138     1
   3077   3103     1
   3077   3138     1
   3078   3081     1
   3078   3079     1
   3078   3080     1
   3078   3138     1
   3079   3082     1
   3079   3113     1
   3080   3082     1
   3080   3113     1
   3081   3096     1
   3082   3103     1
   3083   3088     1
   3083   3086     1
   3083   3087     1
   3083   3138     1
   3084   3088     1
   3084   3086     1
   3084   3087     1
   3084   3138     1
   3085   3127     1
   3085   3138     1
   3086   3089     1
   3086   3137     1
   3087   3089     1
   3087   3137     1
   3088   3120     1
   3089   3127     1
   3090   3097     1
   3090   3112     1
   3090   3107     1
   3090   3098     1
   3091   3096     1
   3091   3102     1
   3091   3104     1
   3091   3105     1
   3092   3093     1
   3092   3111     1
   3092   3110     1
   3092   3106     1
   3092   3104     1
   3092   3105     1
   3092   3095     1
   3093   3098     1
   3093   3103     1
   3093   3112     1
   3094   3109     1
   3094   3102     1
   3094   3110     1
   3095   3103     1
   3095   3097     1
   3096   3099     1
   3096   3108     1
   3096   3098     1
   3096   3103     1
   3096   3100     1
   3096   3097     1
   3097   3113     1
   3097   3102     1
   3097   3111     1
   3097   3110     1
   3098   3109     1
   3098   3113     1
   3100   3110     1
   3101   3110     1
   3104   3107     1
   3104   3108     1
   3105   3107     1
   3105   3108     1
   3108   3109     1
   3108   3110     1
   3110   3112     1
   3114   3121     1
   3114   3136     1
   3114   3131     1
   3114   3122     1
   3115   3120     1
   3115   3126     1
   3115   3128     1
   3115   3129     1
   3116   3117     1
   3116   3135     1
   3116   3134     1
   3116   3130     1
   3116   3128     1
   3116   3129     1
   3116   3119     1
   3117   3122     1
   3117   3127     1
   3117   3136     1
   3118   3133     1
   3118   3126     1
   3118   3134     1
   3119   3127     1
   3119   3121     1
   3120   3123     1
   3120   3132     1
   3120   3122     1
   3120   3127     1
   3120   3124     1
   3120   3121     1
   3121   3137     1
   3121   3126     1
   3121   3135     1
   3121   3134     1
   3122   3133     1
   3122   3137     1
   3124   3134     1
   3125   3134     1
   3128   3131     1
   3128   3132     1
   3129   3131     1
   3129   3132     1
   3132   3133     1
   3132   3134     1
   3134   3136     1

[ angles ]
;    ai     aj     ak funct         c0         c1         c2         c3
      1      2      3     1   114.2100488 537.225600
      1      7     13     1   114.2100488 537.225600
      1      8     15     1   114.2100488 537.225600
      2      1      7     1   109.6600471 523.836800
      2      1      8     1   109.6600471 523.836800
      2      3      4     1   114.2100488 537.225600
      3      4      5     1   109.6600471 523.836800
      3      4      6     1   109.6600471 523.836800
      4      5     11     1   114.2100488 537.225600
      4      6      9     1   114.2100488 537.225600
      5      4      6     1   109.6600471 523.836800
      5     11     12     1   111.0400475 529.694400
      6      9     10     1   111.0400475 529.694400
      7      1      8     1   109.6600471 523.836800
      7     13     14     1   111.0400475 529.694400
      8     15     16     1   111.0400475 529.694400
      9     10     18     1   123.2000528 564.003200
      9     10     52     1   115.1800491 558.982400
     10     52     51     1   120.6900519 530.531200
     11     12     17     1   123.2000528 564.003200
     11     12     78     1   115.1800491 558.982400
     12     78     77     1   120.6900519 530.531200
     13     14     20     1   123.2000528 564.003200
     13     14    104     1   115.1800491 558.982400
     14    104    103     1   120.6900519 530.531200
     15     16     19     1   123.2000528 564.003200
     15     16    130     1   115.1800491 558.982400
     16    130    129     1   120.6900519 530.531200
     17     12     78     1   123.0500530 620.905600
     18     10     52     1   123.0500530 620.905600
     19     16    130     1   123.0500530 620.905600
     20     14    104     1   123.0500530 620.905600
     43     44     46     1   114.2100488 537.225600
     43     45     48     1   114.2100488 537.225600
     43     50     51     1   114.2100488 537.225600
     44     43     45     1   109.6600471 523.836800
     44     43     50     1   109.6600471 523.836800
     44     46     47     1   111.0400475 529.694400
     45     43     50     1   109.6600471 523.836800
     45     48     49     1   111.0400475 529.694400
     46     47     53     1   123.2000528 564.003200
     46     47    156     1   115.1800491 558.982400
     47    156    155     1   120.6900519 530.531200
     48     49     54     1   123.2000528 564.003200
     48     49    182     1   115.1800491 558.982400
     49    182    181     1   120.6900519 530.531200
     50     51     52     1   111.6100477 551.451200
     53     47    156     1   123.0500530 620.905600
     54     49    182     1   123.0500530 620.905600
     69     70     72     1   114.2100488 537.225600
     69     71     74     1   114.2100488 537.225600
     69     76     77     1   114.2100488 537.225600
     70     69     71     1   109.6600471 523.836800
     70     69     76     1   109.6600471 523.836800
     70     72     73     1   111.0400475 529.694400
     71     69     76     1   109.6600471 523.836800
     71     74     75     1   111.0400475 529.694400
     72     73     79     1   123.2000528 564.003200
     72     73    208     1   115.1800491 558.982400
     73    208    207     1   120.6900519 530.531200
     74     75     80     1   123.2000528 564.003200
     74     75    234     1   115.1800491 558.982400
     75    234    233     1   120.6900519 530.531200
     76     77     78     1   111.6100477 551.451200
     79     73    208     1   123.0500530 620.905600
     80     75    234     1   123.0500530 620.905600
     95     96     98     1   114.2100488 537.225600
     95     97    100     1   114.2100488 537.225600
     95    102    103     1   114.2100488 537.225600
     96     95     97     1   109.6600471 523.836800
     96     95    102     1   109.6600471 523.836800
     96     98     99     1   111.0400475 529.694400
     97     95    102     1   109.6600471 523.836800
     97    100    101     1   111.0400475 529.694400
     98     99    105     1   123.2000528 564.003200
     98     99    260     1   115.1800491 558.982400
     99    260    259     1   120.6900519 530.531200
    100    101    106     1   123.2000528 564.003200
    100    101    286     1   115.1800491 558.982400
    101    286    285     1   120.6900519 530.531200
    102    103    104     1   111.6100477 551.451200
    105     99    260     1   123.0500530 620.905600
    106    101    286     1   123.0500530 620.905600
    121    122    124     1   114.2100488 537.225600
    121    123    126     1   114.2100488 537.225600
    121    128    129     1   114.2100488 537.225600
    122    121    123     1   109.6600471 523.836800
    122    121    128     1   109.6600471 523.836800
    122    124    125     1   111.0400475 529.694400
    123    121    128     1   109.6600471 523.836800
    123    126    127     1   111.0400475 529.694400
    124    125    131     1   123.2000528 564.003200
    124    125    312     1   115.1800491 558.982400
    125    312    311     1   120.6900519 530.531200
    126    127    132     1   123.2000528 564.003200
    126    127    338     1   115.1800491 558.982400
    127    338    337     1   120.6900519 530.531200
    128    129    130     1   111.6100477 551.451200
    131    125    312     1   123.0500530 620.905600
    132    127    338     1   123.0500530 620.905600
    147    148    150     1   114.2100488 537.225600
    147    149    152     1   114.2100488 537.225600
    147    154    155     1   114.2100488 537.225600
    148    147    149     1   109.6600471 523.836800
    148    147    154     1   109.6600471 523.836800
    148    150    151     1   111.0400475 529.694400
    149    147    154     1   109.6600471 523.836800
    149    152    153     1   111.0400475 529.694400
    150    151    157     1   123.2000528 564.003200
    150    151    364     1   115.1800491 558.982400
    151    364    363     1   120.6900519 530.531200
    152    153    158     1   123.2000528 564.003200
    152    153    390     1   115.1800491 558.982400
    153    390    389     1   120.6900519 530.531200
    154    155    156     1   111.6100477 551.451200
    157    151    364     1   123.0500530 620.905600
    158    153    390     1   123.0500530 620.905600
    173    174    176     1   114.2100488 537.225600
    173    175    178     1   114.2100488 537.225600
    173    180    181     1   114.2100488 537.225600
    174    173    175     1   109.6600471 523.836800
    174    173    180     1   109.6600471 523.836800
    174    176    177     1   111.0400475 529.694400
    175    173    180     1   109.6600471 523.836800
    175    178    179     1   111.0400475 529.694400
    176    177    183     1   123.2000528 564.003200
    176    177    416     1   115.1800491 558.982400
    177    416    415     1   120.6900519 530.531200
    178    179    184     1   123.2000528 564.003200
    178    179    442     1   115.1800491 558.982400
    179    442    441     1   120.6900519 530.531200
    180    181    182     1   111.6100477 551.451200
    183    177    416     1   123.0500530 620.905600
    184    179    442     1   123.0500530 620.905600
    199    200    202     1   114.2100488 537.225600
    199    201    204     1   114.2100488 537.225600
    199    206    207     1   114.2100488 537.225600
    200    199    201     1   109.6600471 523.836800
    200    199    206     1   109.6600471 523.836800
    200    202    203     1   111.0400475 529.694400
    201    199    206     1   109.6600471 523.836800
    201    204    205     1   111.0400475 529.694400
    202    203    209     1   123.2000528 564.003200
    202    203    468     1   115.1800491 558.982400
    203    468    467     1   120.6900519 530.531200
    204    205    210     1   123.2000528 564.003200
    204    205    494     1   115.1800491 558.982400
    205    494    493     1   120.6900519 530.531200
    206    207    208     1   111.6100477 551.451200
    209    203    468     1   123.0500530 620.905600
    210    205    494     1   123.0500530 620.905600
    225    226    228     1   114.2100488 537.225600
    225    227    230     1   114.2100488 537.225600
    225    232    233     1   114.2100488 537.225600
    226    225    227     1   109.6600471 523.836800
    226    225    232     1   109.6600471 523.836800
    226    228    229     1   111.0400475 529.694400
    227    225    232     1   109.6600471 523.836800
    227    230    231     1   111.0400475 529.694400
    228    229    235     1   123.2000528 564.003200
    228    229    520     1   115.1800491 558.982400
    229    520    519     1   120.6900519 530.531200
    230    231    236     1   123.2000528 564.003200
    230    231    546     1   115.1800491 558.982400
    231    546    545     1   120.6900519 530.531200
    232    233    234     1   111.6100477 551.451200
    235    229    520     1   123.0500530 620.905600
    236    231    546     1   123.0500530 620.905600
    251    252    254     1   114.2100488 537.225600
    251    253    256     1   114.2100488 537.225600
    251    258    259     1   114.2100488 537.225600
    252    251    253     1   109.6600471 523.836800
    252    251    258     1   109.6600471 523.836800
    252    254    255     1   111.0400475 529.694400
    253    251    258     1   109.6600471 523.836800
    253    256    257     1   111.0400475 529.694400
    254    255    261     1   123.2000528 564.003200
    254    255    572     1   115.1800491 558.982400
    255    572    571     1   120.6900519 530.531200
    256    257    262     1   123.2000528 564.003200
    256    257    598     1   115.1800491 558.982400
    257    598    597     1   120.6900519 530.531200
    258    259    260     1   111.6100477 551.451200
    261    255    572     1   123.0500530 620.905600
    262    257    598     1   123.0500530 620.905600
    277    278    280     1   114.2100488 537.225600
    277    279    282     1   114.2100488 537.225600
    277    284    285     1   114.2100488 537.225600
    278    277    279     1   109.6600471 523.836800
    278    277    284     1   109.6600471 523.836800
    278    280    281     1   111.0400475 529.694400
    279    277    284     1   109.6600471 523.836800
    279    282    283     1   111.0400475 529.694400
    280    281    287     1   123.2000528 564.003200
    280    281    624     1   115.1800491 558.982400
    281    624    623     1   120.6900519 530.531200
    282    283    288     1   123.2000528 564.003200
    282    283    650     1   115.1800491 558.982400
    283    650    649     1   120.6900519 530.531200
    284    285    286     1   111.6100477 551.451200
    287    281    624     1   123.0500530 620.905600
    288    283    650     1   123.0500530 620.905600
    303    304    306     1   114.2100488 537.225600
    303    305    308     1   114.2100488 537.225600
    303    310    311     1   114.2100488 537.225600
    304    303    305     1   109.6600471 523.836800
    304    303    310     1   109.6600471 523.836800
    304    306    307     1   111.0400475 529.694400
    305    303    310     1   109.6600471 523.836800
    305    308    309     1   111.0400475 529.694400
    306    307    313     1   123.2000528 564.003200
    306    307    676     1   115.1800491 558.982400
    307    676    675     1   120.6900519 530.531200
    308    309    314     1   123.2000528 564.003200
    308    309    702     1   115.1800491 558.982400
    309    702    701     1   120.6900519 530.531200
    310    311    312     1   111.6100477 551.451200
    313    307    676     1   123.0500530 620.905600
    314    309    702     1   123.0500530 620.905600
    329    330    332     1   114.2100488 537.225600
    329    331    334     1   114.2100488 537.225600
    329    336    337     1   114.2100488 537.225600
    330    329    331     1   109.6600471 523.836800
    330    329    336     1   109.6600471 523.836800
    330    332    333     1   111.0400475 529.694400
    331    329    336     1   109.6600471 523.836800
    331    334    335     1   111.0400475 529.694400
    332    333    339     1   123.2000528 564.003200
    332    333    728     1   115.1800491 558.982400
    333    728    727     1   120.6900519 530.531200
    334    335    340     1   123.2000528 564.003200
    334    335    754     1   115.1800491 558.982400
    335    754    753     1   120.6900519 530.531200
    336    337    338     1   111.6100477 551.451200
    339    333    728     1   123.0500530 620.905600
    340    335    754     1   123.0500530 620.905600
    355    356    358     1   114.2100488 537.225600
    355    357    360     1   114.2100488 537.225600
    355    362    363     1   114.2100488 537.225600
    356    355    357     1   109.6600471 523.836800
    356    355    362     1   109.6600471 523.836800
    356    358    359     1   111.0400475 529.694400
    357    355    362     1   109.6600471 523.836800
    357    360    361     1   111.0400475 529.694400
    358    359    771     1   115.1800491 558.982400
    358    359    365     1   123.2000528 564.003200
    359    771    773     1   120.6900519 530.531200
    360    361    366     1   123.2000528 564.003200
    360    361    845     1   115.1800491 558.982400
    361    845    847     1   120.6900519 530.531200
    362    363    364     1   111.6100477 551.451200
    365    359    771     1   123.0500530 620.905600
    366    361    845     1   123.0500530 620.905600
    381    382    384     1   114.2100488 537.225600
    381    383    386     1   114.2100488 537.225600
    381    388    389     1   114.2100488 537.225600
    382    381    383     1   109.6600471 523.836800
    382    381    388     1   109.6600471 523.836800
    382    384    385     1   111.0400475 529.694400
    383    381    388     1   109.6600471 523.836800
    383    386    387     1   111.0400475 529.694400
    384    385    919     1   115.1800491 558.982400
    384    385    391     1   123.2000528 564.003200
    385    919    921     1   120.6900519 530.531200
    386    387    392     1   123.2000528 564.003200
    386    387    993     1   115.1800491 558.982400
    387    993    995     1   120.6900519 530.531200
    388    389    390     1   111.6100477 551.451200
    391    385    919     1   123.0500530 620.905600
    392    387    993     1   123.0500530 620.905600
    407    408    410     1   114.2100488 537.225600
    407    409    412     1   114.2100488 537.225600
    407    414    415     1   114.2100488 537.225600
    408    407    409     1   109.6600471 523.836800
    408    407    414     1   109.6600471 523.836800
    408    410    411     1   111.0400475 529.694400
    409    407    414     1   109.6600471 523.836800
    409    412    413     1   111.0400475 529.694400
    410    411   1067     1   115.1800491 558.982400
    410    411    417     1   123.2000528 564.003200
    411   1067   1069     1   120.6900519 530.531200
    412    413    418     1   123.2000528 564.003200
    412    413   1141     1   115.1800491 558.982400
    413   1141   1143     1   120.6900519 530.531200
    414    415    416     1   111.6100477 551.451200
    417    411   1067     1   123.0500530 620.905600
    418    413   1141     1   123.0500530 620.905600
    433    434    436     1   114.2100488 537.225600
    433    435    438     1   114.2100488 537.225600
    433    440    441     1   114.2100488 537.225600
    434    433    435     1   109.6600471 523.836800
    434    433    440     1   109.6600471 523.836800
    434    436    437     1   111.0400475 529.694400
    435    433    440     1   109.6600471 523.836800
    435    438    439     1   111.0400475 529.694400
    436    437   1215     1   115.1800491 558.982400
    436    437    443     1   123.2000528 564.003200
    437   1215   1217     1   120.6900519 530.531200
    438    439    444     1   123.2000528 564.003200
    438    439   1289     1   115.1800491 558.982400
    439   1289   1291     1   120.6900519 530.531200
    440    441    442     1   111.6100477 551.451200
    443    437   1215     1   123.0500530 620.905600
    444    439   1289     1   123.0500530 620.905600
    459    460    462     1   114.2100488 537.225600
    459    461    464     1   114.2100488 537.225600
    459    466    467     1   114.2100488 537.225600
    460    459    461     1   109.6600471 523.836800
    460    459    466     1   109.6600471 523.836800
    460    462    463     1   111.0400475 529.694400
    461    459    466     1   109.6600471 523.836800
    461    464    465     1   111.0400475 529.694400
    462    463   1363     1   115.1800491 558.982400
    462    463    469     1   123.2000528 564.003200
    463   1363   1365     1   120.6900519 530.531200
    464    465    470     1   123.2000528 564.003200
    464    465   1437     1   115.1800491 558.982400
    465   1437   1439     1   120.6900519 530.531200
    466    467    468     1   111.6100477 551.451200
    469    463   1363     1   123.0500530 620.905600
    470    465   1437     1   123.0500530 620.905600
    485    486    488     1   114.2100488 537.225600
    485    487    490     1   114.2100488 537.225600
    485    492    493     1   114.2100488 537.225600
    486    485    487     1   109.6600471 523.836800
    486    485    492     1   109.6600471 523.836800
    486    488    489     1   111.0400475 529.694400
    487    485    492     1   109.6600471 523.836800
    487    490    491     1   111.0400475 529.694400
    488    489   1511     1   115.1800491 558.982400
    488    489    495     1   123.2000528 564.003200
    489   1511   1513     1   120.6900519 530.531200
    490    491    496     1   123.2000528 564.003200
    490    491   1585     1   115.1800491 558.982400
    491   1585   1587     1   120.6900519 530.531200
    492    493    494     1   111.6100477 551.451200
    495    489   1511     1   123.0500530 620.905600
    496    491   1585     1   123.0500530 620.905600
    511    512    514     1   114.2100488 537.225600
    511    513    516     1   114.2100488 537.225600
    511    518    519     1   114.2100488 537.225600
    512    511    513     1   109.6600471 523.836800
    512    511    518     1   109.6600471 523.836800
    512    514    515     1   111.0400475 529.694400
    513    511    518     1   109.6600471 523.836800
    513    516    517     1   111.0400475 529.694400
    514    515   1659     1   115.1800491 558.982400
    514    515    521     1   123.2000528 564.003200
    515   1659   1661     1   120.6900519 530.531200
    516    517    522     1   123.2000528 564.003200
    516    517   1733     1   115.1800491 558.982400
    517   1733   1735     1   120.6900519 530.531200
    518    519    520     1   111.6100477 551.451200
    521    515   1659     1   123.0500530 620.905600
    522    517   1733     1   123.0500530 620.905600
    537    538    540     1   114.2100488 537.225600
    537    539    542     1   114.2100488 537.225600
    537    544    545     1   114.2100488 537.225600
    538    537    539     1   109.6600471 523.836800
    538    537    544     1   109.6600471 523.836800
    538    540    541     1   111.0400475 529.694400
    539    537    544     1   109.6600471 523.836800
    539    542    543     1   111.0400475 529.694400
    540    541   1807     1   115.1800491 558.982400
    540    541    547     1   123.2000528 564.003200
    541   1807   1809     1   120.6900519 530.531200
    542    543    548     1   123.2000528 564.003200
    542    543   1881     1   115.1800491 558.982400
    543   1881   1883     1   120.6900519 530.531200
    544    545    546     1   111.6100477 551.451200
    547    541   1807     1   123.0500530 620.905600
    548    543   1881     1   123.0500530 620.905600
    563    564    566     1   114.2100488 537.225600
    563    565    568     1   114.2100488 537.225600
    563    570    571     1   114.2100488 537.225600
    564    563    565     1   109.6600471 523.836800
    564    563    570     1   109.6600471 523.836800
    564    566    567     1   111.0400475 529.694400
    565    563    570     1   109.6600471 523.836800
    565    568    569     1   111.0400475 529.694400
    566    567   1955     1   115.1800491 558.982400
    566    567    573     1   123.2000528 564.003200
    567   1955   1957     1   120.6900519 530.531200
    568    569    574     1   123.2000528 564.003200
    568    569   2029     1   115.1800491 558.982400
    569   2029   2031     1   120.6900519 530.531200
    570    571    572     1   111.6100477 551.451200
    573    567   1955     1   123.0500530 620.905600
    574    569   2029     1   123.0500530 620.905600
    589    590    592     1   114.2100488 537.225600
    589    591    594     1   114.2100488 537.225600
    589    596    597     1   114.2100488 537.225600
    590    589    591     1   109.6600471 523.836800
    590    589    596     1   109.6600471 523.836800
    590    592    593     1   111.0400475 529.694400
    591    589    596     1   109.6600471 523.836800
    591    594    595     1   111.0400475 529.694400
    592    593   2103     1   115.1800491 558.982400
    592    593    599     1   123.2000528 564.003200
    593   2103   2105     1   120.6900519 530.531200
    594    595    600     1   123.2000528 564.003200
    594    595   2177     1   115.1800491 558.982400
    595   2177   2179     1   120.6900519 530.531200
    596    597    598     1   111.6100477 551.451200
    599    593   2103     1   123.0500530 620.905600
    600    595   2177     1   123.0500530 620.905600
    615    616    618     1   114.2100488 537.225600
    615    617    620     1   114.2100488 537.225600
    615    622    623     1   114.2100488 537.225600
    616    615    617     1   109.6600471 523.836800
    616    615    622     1   109.6600471 523.836800
    616    618    619     1   111.0400475 529.694400
    617    615    622     1   109.6600471 523.836800
    617    620    621     1   111.0400475 529.694400
    618    619   2251     1   115.1800491 558.982400
    618    619    625     1   123.2000528 564.003200
    619   2251   2253     1   120.6900519 530.531200
    620    621    626     1   123.2000528 564.003200
    620    621   2325     1   115.1800491 558.982400
    621   2325   2327     1   120.6900519 530.531200
    622    623    624     1   111.6100477 551.451200
    625    619   2251     1   123.0500530 620.905600
    626    621   2325     1   123.0500530 620.905600
    641    642    644     1   114.2100488 537.225600
    641    643    646     1   114.2100488 537.225600
    641    648    649     1   114.2100488 537.225600
    642    641    643     1   109.6600471 523.836800
    642    641    648     1   109.6600471 523.836800
    642    644    645     1   111.0400475 529.694400
    643    641    648     1   109.6600471 523.836800
    643    646    647     1   111.0400475 529.694400
    644    645   2399     1   115.1800491 558.982400
    644    645    651     1   123.2000528 564.003200
    645   2399   2401     1   120.6900519 530.531200
    646    647    652     1   123.2000528 564.003200
    646    647   2473     1   115.1800491 558.982400
    647   2473   2475     1   120.6900519 530.531200
    648    649    650     1   111.6100477 551.451200
    651    645   2399     1   123.0500530 620.905600
    652    647   2473     1   123.0500530 620.905600
    667    668    670     1   114.2100488 537.225600
    667    669    672     1   114.2100488 537.225600
    667    674    675     1   114.2100488 537.225600
    668    667    669     1   109.6600471 523.836800
    668    667    674     1   109.6600471 523.836800
    668    670    671     1   111.0400475 529.694400
    669    667    674     1   109.6600471 523.836800
    669    672    673     1   111.0400475 529.694400
    670    671   2547     1   115.1800491 558.982400
    670    671    677     1   123.2000528 564.003200
    671   2547   2549     1   120.6900519 530.531200
    672    673    678     1   123.2000528 564.003200
    672    673   2621     1   115.1800491 558.982400
    673   2621   2623     1   120.6900519 530.531200
    674    675    676     1   111.6100477 551.451200
    677    671   2547     1   123.0500530 620.905600
    678    673   2621     1   123.0500530 620.905600
    693    694    696     1   114.2100488 537.225600
    693    695    698     1   114.2100488 537.225600
    693    700    701     1   114.2100488 537.225600
    694    693    695     1   109.6600471 523.836800
    694    693    700     1   109.6600471 523.836800
    694    696    697     1   111.0400475 529.694400
    695    693    700     1   109.6600471 523.836800
    695    698    699     1   111.0400475 529.694400
    696    697   2695     1   115.1800491 558.982400
    696    697    703     1   123.2000528 564.003200
    697   2695   2697     1   120.6900519 530.531200
    698    699    704     1   123.2000528 564.003200
    698    699   2769     1   115.1800491 558.982400
    699   2769   2771     1   120.6900519 530.531200
    700    701    702     1   111.6100477 551.451200
    703    697   2695     1   123.0500530 620.905600
    704    699   2769     1   123.0500530 620.905600
    719    720    722     1   114.2100488 537.225600
    719    721    724     1   114.2100488 537.225600
    719    726    727     1   114.2100488 537.225600
    720    719    721     1   109.6600471 523.836800
    720    719    726     1   109.6600471 523.836800
    720    722    723     1   111.0400475 529.694400
    721    719    726     1   109.6600471 523.836800
    721    724    725     1   111.0400475 529.694400
    722    723   2843     1   115.1800491 558.982400
    722    723    729     1   123.2000528 564.003200
    723   2843   2845     1   120.6900519 530.531200
    724    725    730     1   123.2000528 564.003200
    724    725   2917     1   115.1800491 558.982400
    725   2917   2919     1   120.6900519 530.531200
    726    727    728     1   111.6100477 551.451200
    729    723   2843     1   123.0500530 620.905600
    730    725   2917     1   123.0500530 620.905600
    745    746    748     1   114.2100488 537.225600
    745    747    750     1   114.2100488 537.225600
    745    752    753     1   114.2100488 537.225600
    746    745    747     1   109.6600471 523.836800
    746    745    752     1   109.6600471 523.836800
    746    748    749     1   111.0400475 529.694400
    747    745    752     1   109.6600471 523.836800
    747    750    751     1   111.0400475 529.694400
    748    749   2991     1   115.1800491 558.982400
    748    749    755     1   123.2000528 564.003200
    749   2991   2993     1   120.6900519 530.531200
    750    751   3065     1   115.1800491 558.982400
    750    751    756     1   123.2000528 564.003200
    751   3065   3067     1   120.6900519 530.531200
    752    753    754     1   111.6100477 551.451200
    755    749   2991     1   123.0500530 620.905600
    756    751   3065     1   123.0500530 620.905600
    771    773    775     1   111.6100477 551.451200
    773    775    779     1   114.2100488 537.225600
    775    779    780     1   109.6600471 523.836800
    775    779    781     1   109.6600471 523.836800
    779    780    791     1   114.2100488 537.225600
    779    781    783     1   114.2100488 537.225600
    780    779    781     1   109.6600471 523.836800
    780    791    794     1   111.0400475 529.694400
    781    783    787     1   111.0400475 529.694400
    783    787    788     1   123.2000528 564.003200
    783    787    819     1   112.2600482 538.062400
    787    819    800     1   118.5150508 540.957728
    788    787    819     1   118.8300510 581.576000
    791    794    795     1   123.2000528 564.003200
    791    794    843     1   112.2600482 538.062400
    794    843    824     1   118.5150508 540.957728
    795    794    843     1   118.8300510 581.576000
    796    797    799     1   111.5100476 526.347200
    796    797    817     1   110.1900474 564.840000
    796    807    812     1   110.1900474 564.840000
    796    814    801     1   112.4800480 524.673600
    797    796    807     1   111.5100476 526.347200
    797    796    814     1   107.9700462 569.024000
    797    799    800     1   111.5100476 526.347200
    797    799    806     1   110.1900474 564.840000
    799    797    817     1   110.1900474 564.840000
    799    800    801     1   111.5100476 526.347200
    799    800    819     1   111.0400475 552.288000
    800    799    806     1   110.1900474 564.840000
    800    801    805     1   110.1900474 564.840000
    800    801    814     1   107.9700462 569.024000
    801    800    819     1   111.0400475 552.288000
    805    801    814     1   109.3800466 607.516800
    807    796    814     1   107.9700462 569.024000
    820    821    823     1   111.5100476 526.347200
    820    821    841     1   110.1900474 564.840000
    820    831    836     1   110.1900474 564.840000
    820    838    825     1   112.4800480 524.673600
    821    820    831     1   111.5100476 526.347200
    821    820    838     1   107.9700462 569.024000
    821    823    824     1   111.5100476 526.347200
    821    823    830     1   110.1900474 564.840000
    823    821    841     1   110.1900474 564.840000
    823    824    825     1   111.5100476 526.347200
    823    824    843     1   111.0400475 552.288000
    824    823    830     1   110.1900474 564.840000
    824    825    829     1   110.1900474 564.840000
    824    825    838     1   107.9700462 569.024000
    825    824    843     1   111.0400475 552.288000
    829    825    838     1   109.3800466 607.516800
    831    820    838     1   107.9700462 569.024000
    845    847    849     1   111.6100477 551.451200
    847    849    853     1   114.2100488 537.225600
    849    853    854     1   109.6600471 523.836800
    849    853    855     1   109.6600471 523.836800
    853    854    865     1   114.2100488 537.225600
    853    855    857     1   114.2100488 537.225600
    854    865    868     1   111.0400475 529.694400
    854    853    855     1   109.6600471 523.836800
    855    857    861     1   111.0400475 529.694400
    857    861    862     1   123.2000528 564.003200
    857    861    893     1   112.2600482 538.062400
    861    893    874     1   118.5150508 540.957728
    862    861    893     1   118.8300510 581.576000
    865    868    869     1   123.2000528 564.003200
    865    868    917     1   112.2600482 538.062400
    868    917    898     1   118.5150508 540.957728
    869    868    917     1   118.8300510 581.576000
    870    871    873     1   111.5100476 526.347200
    870    871    891     1   110.1900474 564.840000
    870    881    886     1   110.1900474 564.840000
    870    888    875     1   112.4800480 524.673600
    871    873    874     1   111.5100476 526.347200
    871    873    880     1   110.1900474 564.840000
    871    870    881     1   111.5100476 526.347200
    871    870    888     1   107.9700462 569.024000
    873    874    875     1   111.5100476 526.347200
    873    874    893     1   111.0400475 552.288000
    873    871    891     1   110.1900474 564.840000
    874    875    879     1   110.1900474 564.840000
    874    875    888     1   107.9700462 569.024000
    874    873    880     1   110.1900474 564.840000
    875    874    893     1   111.0400475 552.288000
    879    875    888     1   109.3800466 607.516800
    881    870    888     1   107.9700462 569.024000
    894    895    897     1   111.5100476 526.347200
    894    895    915     1   110.1900474 564.840000
    894    905    910     1   110.1900474 564.840000
    894    912    899     1   112.4800480 524.673600
    895    897    898     1   111.5100476 526.347200
    895    897    904     1   110.1900474 564.840000
    895    894    905     1   111.5100476 526.347200
    895    894    912     1   107.9700462 569.024000
    897    898    899     1   111.5100476 526.347200
    897    898    917     1   111.0400475 552.288000
    897    895    915     1   110.1900474 564.840000
    898    899    903     1   110.1900474 564.840000
    898    899    912     1   107.9700462 569.024000
    898    897    904     1   110.1900474 564.840000
    899    898    917     1   111.0400475 552.288000
    903    899    912     1   109.3800466 607.516800
    905    894    912     1   107.9700462 569.024000
    919    921    923     1   111.6100477 551.451200
    921    923    927     1   114.2100488 537.225600
    923    927    928     1   109.6600471 523.836800
    923    927    929     1   109.6600471 523.836800
    927    928    939     1   114.2100488 537.225600
    927    929    931     1   114.2100488 537.225600
    928    927    929     1   109.6600471 523.836800
    928    939    942     1   111.0400475 529.694400
    929    931    935     1   111.0400475 529.694400
    931    935    936     1   123.2000528 564.003200
    931    935    967     1   112.2600482 538.062400
    935    967    948     1   118.5150508 540.957728
    936    935    967     1   118.8300510 581.576000
    939    942    943     1   123.2000528 564.003200
    939    942    991     1   112.2600482 538.062400
    942    991    972     1   118.5150508 540.957728
    943    942    991     1   118.8300510 581.576000
    944    945    947     1   111.5100476 526.347200
    944    945    965     1   110.1900474 564.840000
    944    955    960     1   110.1900474 564.840000
    944    962    949     1   112.4800480 524.673600
    945    944    955     1   111.5100476 526.347200
    945    944    962     1   107.9700462 569.024000
    945    947    948     1   111.5100476 526.347200
    945    947    954     1   110.1900474 564.840000
    947    945    965     1   110.1900474 564.840000
    947    948    949     1   111.5100476 526.347200
    947    948    967     1   111.0400475 552.288000
    948    947    954     1   110.1900474 564.840000
    948    949    953     1   110.1900474 564.840000
    948    949    962     1   107.9700462 569.024000
    949    948    967     1   111.0400475 552.288000
    953    949    962     1   109.3800466 607.516800
    955    944    962     1   107.9700462 569.024000
    968    969    971     1   111.5100476 526.347200
    968    969    989     1   110.1900474 564.840000
    968    979    984     1   110.1900474 564.840000
    968    986    973     1   112.4800480 524.673600
    969    968    979     1   111.5100476 526.347200
    969    968    986     1   107.9700462 569.024000
    969    971    972     1   111.5100476 526.347200
    969    971    978     1   110.1900474 564.840000
    971    969    989     1   110.1900474 564.840000
    971    972    973     1   111.5100476 526.347200
    971    972    991     1   111.0400475 552.288000
    972    971    978     1   110.1900474 564.840000
    972    973    977     1   110.1900474 564.840000
    972    973    986     1   107.9700462 569.024000
    973    972    991     1   111.0400475 552.288000
    977    973    986     1   109.3800466 607.516800
    979    968    986     1   107.9700462 569.024000
    993    995    997     1   111.6100477 551.451200
    995    997   1001     1   114.2100488 537.225600
    997   1001   1002     1   109.6600471 523.836800
    997   1001   1003     1   109.6600471 523.836800
   1001   1002   1013     1   114.2100488 537.225600
   1001   1003   1005     1   114.2100488 537.225600
   1002   1013   1016     1   111.0400475 529.694400
   1002   1001   1003     1   109.6600471 523.836800
   1003   1005   1009     1   111.0400475 529.694400
   1005   1009   1010     1   123.2000528 564.003200
   1005   1009   1041     1   112.2600482 538.062400
   1009   1041   1022     1   118.5150508 540.957728
   1010   1009   1041     1   118.8300510 581.576000
   1013   1016   1017     1   123.2000528 564.003200
   1013   1016   1065     1   112.2600482 538.062400
   1016   1065   1046     1   118.5150508 540.957728
   1017   1016   1065     1   118.8300510 581.576000
   1018   1019   1021     1   111.5100476 526.347200
   1018   1019   1039     1   110.1900474 564.840000
   1018   1029   1034     1   110.1900474 564.840000
   1018   1036   1023     1   112.4800480 524.673600
   1019   1021   1022     1   111.5100476 526.347200
   1019   1021   1028     1   110.1900474 564.840000
   1019   1018   1029     1   111.5100476 526.347200
   1019   1018   1036     1   107.9700462 569.024000
   1021   1022   1023     1   111.5100476 526.347200
   1021   1022   1041     1   111.0400475 552.288000
   1021   1019   1039     1   110.1900474 564.840000
   1022   1023   1027     1   110.1900474 564.840000
   1022   1023   1036     1   107.9700462 569.024000
   1022   1021   1028     1   110.1900474 564.840000
   1023   1022   1041     1   111.0400475 552.288000
   1027   1023   1036     1   109.3800466 607.516800
   1029   1018   1036     1   107.9700462 569.024000
   1042   1043   1045     1   111.5100476 526.347200
   1042   1043   1063     1   110.1900474 564.840000
   1042   1053   1058     1   110.1900474 564.840000
   1042   1060   1047     1   112.4800480 524.673600
   1043   1045   1046     1   111.5100476 526.347200
   1043   1045   1052     1   110.1900474 564.840000
   1043   1042   1053     1   111.5100476 526.347200
   1043   1042   1060     1   107.9700462 569.024000
   1045   1046   1047     1   111.5100476 526.347200
   1045   1046   1065     1   111.0400475 552.288000
   1045   1043   1063     1   110.1900474 564.840000
   1046   1047   1051     1   110.1900474 564.840000
   1046   1047   1060     1   107.9700462 569.024000
   1046   1045   1052     1   110.1900474 564.840000
   1047   1046   1065     1   111.0400475 552.288000
   1051   1047   1060     1   109.3800466 607.516800
   1053   1042   1060     1   107.9700462 569.024000
   1067   1069   1071     1   111.6100477 551.451200
   1069   1071   1075     1   114.2100488 537.225600
   1071   1075   1076     1   109.6600471 523.836800
   1071   1075   1077     1   109.6600471 523.836800
   1075   1076   1087     1   114.2100488 537.225600
   1075   1077   1079     1   114.2100488 537.225600
   1076   1075   1077     1   109.6600471 523.836800
   1076   1087   1090     1   111.0400475 529.694400
   1077   1079   1083     1   111.0400475 529.694400
   1079   1083   1084     1   123.2000528 564.003200
   1079   1083   1115     1   112.2600482 538.062400
   1083   1115   1096     1   118.5150508 540.957728
   1084   1083   1115     1   118.8300510 581.576000
   1087   1090   1091     1   123.2000528 564.003200
   1087   1090   1139     1   112.2600482 538.062400
   1090   1139   1120     1   118.5150508 540.957728
   1091   1090   1139     1   118.8300510 581.576000
   1092   1093   1095     1   111.5100476 526.347200
   1092   1093   1113     1   110.1900474 564.840000
   1092   1103   1108     1   110.1900474 564.840000
   1092   1110   1097     1   112.4800480 524.673600
   1093   1092   1103     1   111.5100476 526.347200
   1093   1092   1110     1   107.9700462 569.024000
   1093   1095   1096     1   111.5100476 526.347200
   1093   1095   1102     1   110.1900474 564.840000
   1095   1093   1113     1   110.1900474 564.840000
   1095   1096   1097     1   111.5100476 526.347200
   1095   1096   1115     1   111.0400475 552.288000
   1096   1095   1102     1   110.1900474 564.840000
   1096   1097   1101     1   110.1900474 564.840000
   1096   1097   1110     1   107.9700462 569.024000
   1097   1096   1115     1   111.0400475 552.288000
   1101   1097   1110     1   109.3800466 607.516800
   1103   1092   1110     1   107.9700462 569.024000
   1116   1117   1119     1   111.5100476 526.347200
   1116   1117   1137     1   110.1900474 564.840000
   1116   1127   1132     1   110.1900474 564.840000
   1116   1134   1121     1   112.4800480 524.673600
   1117   1116   1127     1   111.5100476 526.347200
   1117   1116   1134     1   107.9700462 569.024000
   1117   1119   1120     1   111.5100476 526.347200
   1117   1119   1126     1   110.1900474 564.840000
   1119   1117   1137     1   110.1900474 564.840000
   1119   1120   1121     1   111.5100476 526.347200
   1119   1120   1139     1   111.0400475 552.288000
   1120   1119   1126     1   110.1900474 564.840000
   1120   1121   1125     1   110.1900474 564.840000
   1120   1121   1134     1   107.9700462 569.024000
   1121   1120   1139     1   111.0400475 552.288000
   1125   1121   1134     1   109.3800466 607.516800
   1127   1116   1134     1   107.9700462 569.024000
   1141   1143   1145     1   111.6100477 551.451200
   1143   1145   1149     1   114.2100488 537.225600
   1145   1149   1150     1   109.6600471 523.836800
   1145   1149   1151     1   109.6600471 523.836800
   1149   1150   1161     1   114.2100488 537.225600
   1149   1151   1153     1   114.2100488 537.225600
   1150   1161   1164     1   111.0400475 529.694400
   1150   1149   1151     1   109.6600471 523.836800
   1151   1153   1157     1   111.0400475 529.694400
   1153   1157   1158     1   123.2000528 564.003200
   1153   1157   1189     1   112.2600482 538.062400
   1157   1189   1170     1   118.5150508 540.957728
   1158   1157   1189     1   118.8300510 581.576000
   1161   1164   1165     1   123.2000528 564.003200
   1161   1164   1213     1   112.2600482 538.062400
   1164   1213   1194     1   118.5150508 540.957728
   1165   1164   1213     1   118.8300510 581.576000
   1166   1167   1169     1   111.5100476 526.347200
   1166   1167   1187     1   110.1900474 564.840000
   1166   1177   1182     1   110.1900474 564.840000
   1166   1184   1171     1   112.4800480 524.673600
   1167   1169   1170     1   111.5100476 526.347200
   1167   1169   1176     1   110.1900474 564.840000
   1167   1166   1177     1   111.5100476 526.347200
   1167   1166   1184     1   107.9700462 569.024000
   1169   1170   1171     1   111.5100476 526.347200
   1169   1170   1189     1   111.0400475 552.288000
   1169   1167   1187     1   110.1900474 564.840000
   1170   1171   1175     1   110.1900474 564.840000
   1170   1171   1184     1   107.9700462 569.024000
   1170   1169   1176     1   110.1900474 564.840000
   1171   1170   1189     1   111.0400475 552.288000
   1175   1171   1184     1   109.3800466 607.516800
   1177   1166   1184     1   107.9700462 569.024000
   1190   1191   1193     1   111.5100476 526.347200
   1190   1191   1211     1   110.1900474 564.840000
   1190   1201   1206     1   110.1900474 564.840000
   1190   1208   1195     1   112.4800480 524.673600
   1191   1193   1194     1   111.5100476 526.347200
   1191   1193   1200     1   110.1900474 564.840000
   1191   1190   1201     1   111.5100476 526.347200
   1191   1190   1208     1   107.9700462 569.024000
   1193   1194   1195     1   111.5100476 526.347200
   1193   1194   1213     1   111.0400475 552.288000
   1193   1191   1211     1   110.1900474 564.840000
   1194   1195   1199     1   110.1900474 564.840000
   1194   1195   1208     1   107.9700462 569.024000
   1194   1193   1200     1   110.1900474 564.840000
   1195   1194   1213     1   111.0400475 552.288000
   1199   1195   1208     1   109.3800466 607.516800
   1201   1190   1208     1   107.9700462 569.024000
   1215   1217   1219     1   111.6100477 551.451200
   1217   1219   1223     1   114.2100488 537.225600
   1219   1223   1224     1   109.6600471 523.836800
   1219   1223   1225     1   109.6600471 523.836800
   1223   1224   1235     1   114.2100488 537.225600
   1223   1225   1227     1   114.2100488 537.225600
   1224   1223   1225     1   109.6600471 523.836800
   1224   1235   1238     1   111.0400475 529.694400
   1225   1227   1231     1   111.0400475 529.694400
   1227   1231   1232     1   123.2000528 564.003200
   1227   1231   1263     1   112.2600482 538.062400
   1231   1263   1244     1   118.5150508 540.957728
   1232   1231   1263     1   118.8300510 581.576000
   1235   1238   1239     1   123.2000528 564.003200
   1235   1238   1287     1   112.2600482 538.062400
   1238   1287   1268     1   118.5150508 540.957728
   1239   1238   1287     1   118.8300510 581.576000
   1240   1241   1243     1   111.5100476 526.347200
   1240   1241   1261     1   110.1900474 564.840000
   1240   1251   1256     1   110.1900474 564.840000
   1240   1258   1245     1   112.4800480 524.673600
   1241   1240   1251     1   111.5100476 526.347200
   1241   1240   1258     1   107.9700462 569.024000
   1241   1243   1244     1   111.5100476 526.347200
   1241   1243   1250     1   110.1900474 564.840000
   1243   1241   1261     1   110.1900474 564.840000
   1243   1244   1245     1   111.5100476 526.347200
   1243   1244   1263     1   111.0400475 552.288000
   1244   1243   1250     1   110.1900474 564.840000
   1244   1245   1249     1   110.1900474 564.840000
   1244   1245   1258     1   107.9700462 569.024000
   1245   1244   1263     1   111.0400475 552.288000
   1249   1245   1258     1   109.3800466 607.516800
   1251   1240   1258     1   107.9700462 569.024000
   1264   1265   1267     1   111.5100476 526.347200
   1264   1265   1285     1   110.1900474 564.840000
   1264   1275   1280     1   110.1900474 564.840000
   1264   1282   1269     1   112.4800480 524.673600
   1265   1264   1275     1   111.5100476 526.347200
   1265   1264   1282     1   107.9700462 569.024000
   1265   1267   1268     1   111.5100476 526.347200
   1265   1267   1274     1   110.1900474 564.840000
   1267   1265   1285     1   110.1900474 564.840000
   1267   1268   1269     1   111.5100476 526.347200
   1267   1268   1287     1   111.0400475 552.288000
   1268   1267   1274     1   110.1900474 564.840000
   1268   1269   1273     1   110.1900474 564.840000
   1268   1269   1282     1   107.9700462 569.024000
   1269   1268   1287     1   111.0400475 552.288000
   1273   1269   1282     1   109.3800466 607.516800
   1275   1264   1282     1   107.9700462 569.024000
   1289   1291   1293     1   111.6100477 551.451200
   1291   1293   1297     1   114.2100488 537.225600
   1293   1297   1298     1   109.6600471 523.836800
   1293   1297   1299     1   109.6600471 523.836800
   1297   1298   1309     1   114.2100488 537.225600
   1297   1299   1301     1   114.2100488 537.225600
   1298   1309   1312     1   111.0400475 529.694400
   1298   1297   1299     1   109.6600471 523.836800
   1299   1301   1305     1   111.0400475 529.694400
   1301   1305   1306     1   123.2000528 564.003200
   1301   1305   1337     1   112.2600482 538.062400
   1305   1337   1318     1   118.5150508 540.957728
   1306   1305   1337     1   118.8300510 581.576000
   1309   1312   1313     1   123.2000528 564.003200
   1309   1312   1361     1   112.2600482 538.062400
   1312   1361   1342     1   118.5150508 540.957728
   1313   1312   1361     1   118.8300510 581.576000
   1314   1315   1317     1   111.5100476 526.347200
   1314   1315   1335     1   110.1900474 564.840000
   1314   1325   1330     1   110.1900474 564.840000
   1314   1332   1319     1   112.4800480 524.673600
   1315   1317   1318     1   111.5100476 526.347200
   1315   1317   1324     1   110.1900474 564.840000
   1315   1314   1325     1   111.5100476 526.347200
   1315   1314   1332     1   107.9700462 569.024000
   1317   1318   1319     1   111.5100476 526.347200
   1317   1318   1337     1   111.0400475 552.288000
   1317   1315   1335     1   110.1900474 564.840000
   1318   1319   1323     1   110.1900474 564.840000
   1318   1319   1332     1   107.9700462 569.024000
   1318   1317   1324     1   110.1900474 564.840000
   1319   1318   1337     1   111.0400475 552.288000
   1323   1319   1332     1   109.3800466 607.516800
   1325   1314   1332     1   107.9700462 569.024000
   1338   1339   1341     1   111.5100476 526.347200
   1338   1339   1359     1   110.1900474 564.840000
   1338   1349   1354     1   110.1900474 564.840000
   1338   1356   1343     1   112.4800480 524.673600
   1339   1341   1342     1   111.5100476 526.347200
   1339   1341   1348     1   110.1900474 564.840000
   1339   1338   1349     1   111.5100476 526.347200
   1339   1338   1356     1   107.9700462 569.024000
   1341   1342   1343     1   111.5100476 526.347200
   1341   1342   1361     1   111.0400475 552.288000
   1341   1339   1359     1   110.1900474 564.840000
   1342   1343   1347     1   110.1900474 564.840000
   1342   1343   1356     1   107.9700462 569.024000
   1342   1341   1348     1   110.1900474 564.840000
   1343   1342   1361     1   111.0400475 552.288000
   1347   1343   1356     1   109.3800466 607.516800
   1349   1338   1356     1   107.9700462 569.024000
   1363   1365   1367     1   111.6100477 551.451200
   1365   1367   1371     1   114.2100488 537.225600
   1367   1371   1372     1   109.6600471 523.836800
   1367   1371   1373     1   109.6600471 523.836800
   1371   1372   1383     1   114.2100488 537.225600
   1371   1373   1375     1   114.2100488 537.225600
   1372   1371   1373     1   109.6600471 523.836800
   1372   1383   1386     1   111.0400475 529.694400
   1373   1375   1379     1   111.0400475 529.694400
   1375   1379   1380     1   123.2000528 564.003200
   1375   1379   1411     1   112.2600482 538.062400
   1379   1411   1392     1   118.5150508 540.957728
   1380   1379   1411     1   118.8300510 581.576000
   1383   1386   1387     1   123.2000528 564.003200
   1383   1386   1435     1   112.2600482 538.062400
   1386   1435   1416     1   118.5150508 540.957728
   1387   1386   1435     1   118.8300510 581.576000
   1388   1389   1391     1   111.5100476 526.347200
   1388   1389   1409     1   110.1900474 564.840000
   1388   1399   1404     1   110.1900474 564.840000
   1388   1406   1393     1   112.4800480 524.673600
   1389   1388   1399     1   111.5100476 526.347200
   1389   1388   1406     1   107.9700462 569.024000
   1389   1391   1392     1   111.5100476 526.347200
   1389   1391   1398     1   110.1900474 564.840000
   1391   1389   1409     1   110.1900474 564.840000
   1391   1392   1393     1   111.5100476 526.347200
   1391   1392   1411     1   111.0400475 552.288000
   1392   1391   1398     1   110.1900474 564.840000
   1392   1393   1397     1   110.1900474 564.840000
   1392   1393   1406     1   107.9700462 569.024000
   1393   1392   1411     1   111.0400475 552.288000
   1397   1393   1406     1   109.3800466 607.516800
   1399   1388   1406     1   107.9700462 569.024000
   1412   1413   1415     1   111.5100476 526.347200
   1412   1413   1433     1   110.1900474 564.840000
   1412   1423   1428     1   110.1900474 564.840000
   1412   1430   1417     1   112.4800480 524.673600
   1413   1412   1423     1   111.5100476 526.347200
   1413   1412   1430     1   107.9700462 569.024000
   1413   1415   1416     1   111.5100476 526.347200
   1413   1415   1422     1   110.1900474 564.840000
   1415   1413   1433     1   110.1900474 564.840000
   1415   1416   1417     1   111.5100476 526.347200
   1415   1416   1435     1   111.0400475 552.288000
   1416   1415   1422     1   110.1900474 564.840000
   1416   1417   1421     1   110.1900474 564.840000
   1416   1417   1430     1   107.9700462 569.024000
   1417   1416   1435     1   111.0400475 552.288000
   1421   1417   1430     1   109.3800466 607.516800
   1423   1412   1430     1   107.9700462 569.024000
   1437   1439   1441     1   111.6100477 551.451200
   1439   1441   1445     1   114.2100488 537.225600
   1441   1445   1446     1   109.6600471 523.836800
   1441   1445   1447     1   109.6600471 523.836800
   1445   1446   1457     1   114.2100488 537.225600
   1445   1447   1449     1   114.2100488 537.225600
   1446   1457   1460     1   111.0400475 529.694400
   1446   1445   1447     1   109.6600471 523.836800
   1447   1449   1453     1   111.0400475 529.694400
   1449   1453   1454     1   123.2000528 564.003200
   1449   1453   1485     1   112.2600482 538.062400
   1453   1485   1466     1   118.5150508 540.957728
   1454   1453   1485     1   118.8300510 581.576000
   1457   1460   1461     1   123.2000528 564.003200
   1457   1460   1509     1   112.2600482 538.062400
   1460   1509   1490     1   118.5150508 540.957728
   1461   1460   1509     1   118.8300510 581.576000
   1462   1463   1465     1   111.5100476 526.347200
   1462   1463   1483     1   110.1900474 564.840000
   1462   1473   1478     1   110.1900474 564.840000
   1462   1480   1467     1   112.4800480 524.673600
   1463   1465   1466     1   111.5100476 526.347200
   1463   1465   1472     1   110.1900474 564.840000
   1463   1462   1473     1   111.5100476 526.347200
   1463   1462   1480     1   107.9700462 569.024000
   1465   1466   1467     1   111.5100476 526.347200
   1465   1466   1485     1   111.0400475 552.288000
   1465   1463   1483     1   110.1900474 564.840000
   1466   1467   1471     1   110.1900474 564.840000
   1466   1467   1480     1   107.9700462 569.024000
   1466   1465   1472     1   110.1900474 564.840000
   1467   1466   1485     1   111.0400475 552.288000
   1471   1467   1480     1   109.3800466 607.516800
   1473   1462   1480     1   107.9700462 569.024000
   1486   1487   1489     1   111.5100476 526.347200
   1486   1487   1507     1   110.1900474 564.840000
   1486   1497   1502     1   110.1900474 564.840000
   1486   1504   1491     1   112.4800480 524.673600
   1487   1489   1490     1   111.5100476 526.347200
   1487   1489   1496     1   110.1900474 564.840000
   1487   1486   1497     1   111.5100476 526.347200
   1487   1486   1504     1   107.9700462 569.024000
   1489   1490   1491     1   111.5100476 526.347200
   1489   1490   1509     1   111.0400475 552.288000
   1489   1487   1507     1   110.1900474 564.840000
   1490   1491   1495     1   110.1900474 564.840000
   1490   1491   1504     1   107.9700462 569.024000
   1490   1489   1496     1   110.1900474 564.840000
   1491   1490   1509     1   111.0400475 552.288000
   1495   1491   1504     1   109.3800466 607.516800
   1497   1486   1504     1   107.9700462 569.024000
   1511   1513   1515     1   111.6100477 551.451200
   1513   1515   1519     1   114.2100488 537.225600
   1515   1519   1520     1   109.6600471 523.836800
   1515   1519   1521     1   109.6600471 523.836800
   1519   1520   1531     1   114.2100488 537.225600
   1519   1521   1523     1   114.2100488 537.225600
   1520   1519   1521     1   109.6600471 523.836800
   1520   1531   1534     1   111.0400475 529.694400
   1521   1523   1527     1   111.0400475 529.694400
   1523   1527   1528     1   123.2000528 564.003200
   1523   1527   1559     1   112.2600482 538.062400
   1527   1559   1540     1   118.5150508 540.957728
   1528   1527   1559     1   118.8300510 581.576000
   1531   1534   1535     1   123.2000528 564.003200
   1531   1534   1583     1   112.2600482 538.062400
   1534   1583   1564     1   118.5150508 540.957728
   1535   1534   1583     1   118.8300510 581.576000
   1536   1537   1539     1   111.5100476 526.347200
   1536   1537   1557     1   110.1900474 564.840000
   1536   1547   1552     1   110.1900474 564.840000
   1536   1554   1541     1   112.4800480 524.673600
   1537   1536   1547     1   111.5100476 526.347200
   1537   1536   1554     1   107.9700462 569.024000
   1537   1539   1540     1   111.5100476 526.347200
   1537   1539   1546     1   110.1900474 564.840000
   1539   1537   1557     1   110.1900474 564.840000
   1539   1540   1541     1   111.5100476 526.347200
   1539   1540   1559     1   111.0400475 552.288000
   1540   1539   1546     1   110.1900474 564.840000
   1540   1541   1545     1   110.1900474 564.840000
   1540   1541   1554     1   107.9700462 569.024000
   1541   1540   1559     1   111.0400475 552.288000
   1545   1541   1554     1   109.3800466 607.516800
   1547   1536   1554     1   107.9700462 569.024000
   1560   1561   1563     1   111.5100476 526.347200
   1560   1561   1581     1   110.1900474 564.840000
   1560   1571   1576     1   110.1900474 564.840000
   1560   1578   1565     1   112.4800480 524.673600
   1561   1560   1571     1   111.5100476 526.347200
   1561   1560   1578     1   107.9700462 569.024000
   1561   1563   1564     1   111.5100476 526.347200
   1561   1563   1570     1   110.1900474 564.840000
   1563   1561   1581     1   110.1900474 564.840000
   1563   1564   1565     1   111.5100476 526.347200
   1563   1564   1583     1   111.0400475 552.288000
   1564   1563   1570     1   110.1900474 564.840000
   1564   1565   1569     1   110.1900474 564.840000
   1564   1565   1578     1   107.9700462 569.024000
   1565   1564   1583     1   111.0400475 552.288000
   1569   1565   1578     1   109.3800466 607.516800
   1571   1560   1578     1   107.9700462 569.024000
   1585   1587   1589     1   111.6100477 551.451200
   1587   1589   1593     1   114.2100488 537.225600
   1589   1593   1594     1   109.6600471 523.836800
   1589   1593   1595     1   109.6600471 523.836800
   1593   1594   1605     1   114.2100488 537.225600
   1593   1595   1597     1   114.2100488 537.225600
   1594   1605   1608     1   111.0400475 529.694400
   1594   1593   1595     1   109.6600471 523.836800
   1595   1597   1601     1   111.0400475 529.694400
   1597   1601   1602     1   123.2000528 564.003200
   1597   1601   1633     1   112.2600482 538.062400
   1601   1633   1614     1   118.5150508 540.957728
   1602   1601   1633     1   118.8300510 581.576000
   1605   1608   1609     1   123.2000528 564.003200
   1605   1608   1657     1   112.2600482 538.062400
   1608   1657   1638     1   118.5150508 540.957728
   1609   1608   1657     1   118.8300510 581.576000
   1610   1611   1613     1   111.5100476 526.347200
   1610   1611   1631     1   110.1900474 564.840000
   1610   1621   1626     1   110.1900474 564.840000
   1610   1628   1615     1   112.4800480 524.673600
   1611   1613   1614     1   111.5100476 526.347200
   1611   1613   1620     1   110.1900474 564.840000
   1611   1610   1621     1   111.5100476 526.347200
   1611   1610   1628     1   107.9700462 569.024000
   1613   1614   1615     1   111.5100476 526.347200
   1613   1614   1633     1   111.0400475 552.288000
   1613   1611   1631     1   110.1900474 564.840000
   1614   1615   1619     1   110.1900474 564.840000
   1614   1615   1628     1   107.9700462 569.024000
   1614   1613   1620     1   110.1900474 564.840000
   1615   1614   1633     1   111.0400475 552.288000
   1619   1615   1628     1   109.3800466 607.516800
   1621   1610   1628     1   107.9700462 569.024000
   1634   1635   1637     1   111.5100476 526.347200
   1634   1635   1655     1   110.1900474 564.840000
   1634   1645   1650     1   110.1900474 564.840000
   1634   1652   1639     1   112.4800480 524.673600
   1635   1637   1638     1   111.5100476 526.347200
   1635   1637   1644     1   110.1900474 564.840000
   1635   1634   1645     1   111.5100476 526.347200
   1635   1634   1652     1   107.9700462 569.024000
   1637   1638   1639     1   111.5100476 526.347200
   1637   1638   1657     1   111.0400475 552.288000
   1637   1635   1655     1   110.1900474 564.840000
   1638   1639   1643     1   110.1900474 564.840000
   1638   1639   1652     1   107.9700462 569.024000
   1638   1637   1644     1   110.1900474 564.840000
   1639   1638   1657     1   111.0400475 552.288000
   1643   1639   1652     1   109.3800466 607.516800
   1645   1634   1652     1   107.9700462 569.024000
   1659   1661   1663     1   111.6100477 551.451200
   1661   1663   1667     1   114.2100488 537.225600
   1663   1667   1668     1   109.6600471 523.836800
   1663   1667   1669     1   109.6600471 523.836800
   1667   1668   1679     1   114.2100488 537.225600
   1667   1669   1671     1   114.2100488 537.225600
   1668   1667   1669     1   109.6600471 523.836800
   1668   1679   1682     1   111.0400475 529.694400
   1669   1671   1675     1   111.0400475 529.694400
   1671   1675   1676     1   123.2000528 564.003200
   1671   1675   1707     1   112.2600482 538.062400
   1675   1707   1688     1   118.5150508 540.957728
   1676   1675   1707     1   118.8300510 581.576000
   1679   1682   1683     1   123.2000528 564.003200
   1679   1682   1731     1   112.2600482 538.062400
   1682   1731   1712     1   118.5150508 540.957728
   1683   1682   1731     1   118.8300510 581.576000
   1684   1685   1687     1   111.5100476 526.347200
   1684   1685   1705     1   110.1900474 564.840000
   1684   1695   1700     1   110.1900474 564.840000
   1684   1702   1689     1   112.4800480 524.673600
   1685   1684   1695     1   111.5100476 526.347200
   1685   1684   1702     1   107.9700462 569.024000
   1685   1687   1688     1   111.5100476 526.347200
   1685   1687   1694     1   110.1900474 564.840000
   1687   1685   1705     1   110.1900474 564.840000
   1687   1688   1689     1   111.5100476 526.347200
   1687   1688   1707     1   111.0400475 552.288000
   1688   1687   1694     1   110.1900474 564.840000
   1688   1689   1693     1   110.1900474 564.840000
   1688   1689   1702     1   107.9700462 569.024000
   1689   1688   1707     1   111.0400475 552.288000
   1693   1689   1702     1   109.3800466 607.516800
   1695   1684   1702     1   107.9700462 569.024000
   1708   1709   1711     1   111.5100476 526.347200
   1708   1709   1729     1   110.1900474 564.840000
   1708   1719   1724     1   110.1900474 564.840000
   1708   1726   1713     1   112.4800480 524.673600
   1709   1708   1719     1   111.5100476 526.347200
   1709   1708   1726     1   107.9700462 569.024000
   1709   1711   1712     1   111.5100476 526.347200
   1709   1711   1718     1   110.1900474 564.840000
   1711   1709   1729     1   110.1900474 564.840000
   1711   1712   1713     1   111.5100476 526.347200
   1711   1712   1731     1   111.0400475 552.288000
   1712   1711   1718     1   110.1900474 564.840000
   1712   1713   1717     1   110.1900474 564.840000
   1712   1713   1726     1   107.9700462 569.024000
   1713   1712   1731     1   111.0400475 552.288000
   1717   1713   1726     1   109.3800466 607.516800
   1719   1708   1726     1   107.9700462 569.024000
   1733   1735   1737     1   111.6100477 551.451200
   1735   1737   1741     1   114.2100488 537.225600
   1737   1741   1742     1   109.6600471 523.836800
   1737   1741   1743     1   109.6600471 523.836800
   1741   1742   1753     1   114.2100488 537.225600
   1741   1743   1745     1   114.2100488 537.225600
   1742   1753   1756     1   111.0400475 529.694400
   1742   1741   1743     1   109.6600471 523.836800
   1743   1745   1749     1   111.0400475 529.694400
   1745   1749   1750     1   123.2000528 564.003200
   1745   1749   1781     1   112.2600482 538.062400
   1749   1781   1762     1   118.5150508 540.957728
   1750   1749   1781     1   118.8300510 581.576000
   1753   1756   1757     1   123.2000528 564.003200
   1753   1756   1805     1   112.2600482 538.062400
   1756   1805   1786     1   118.5150508 540.957728
   1757   1756   1805     1   118.8300510 581.576000
   1758   1759   1761     1   111.5100476 526.347200
   1758   1759   1779     1   110.1900474 564.840000
   1758   1769   1774     1   110.1900474 564.840000
   1758   1776   1763     1   112.4800480 524.673600
   1759   1761   1762     1   111.5100476 526.347200
   1759   1761   1768     1   110.1900474 564.840000
   1759   1758   1769     1   111.5100476 526.347200
   1759   1758   1776     1   107.9700462 569.024000
   1761   1762   1763     1   111.5100476 526.347200
   1761   1762   1781     1   111.0400475 552.288000
   1761   1759   1779     1   110.1900474 564.840000
   1762   1763   1767     1   110.1900474 564.840000
   1762   1763   1776     1   107.9700462 569.024000
   1762   1761   1768     1   110.1900474 564.840000
   1763   1762   1781     1   111.0400475 552.288000
   1767   1763   1776     1   109.3800466 607.516800
   1769   1758   1776     1   107.9700462 569.024000
   1782   1783   1785     1   111.5100476 526.347200
   1782   1783   1803     1   110.1900474 564.840000
   1782   1793   1798     1   110.1900474 564.840000
   1782   1800   1787     1   112.4800480 524.673600
   1783   1785   1786     1   111.5100476 526.347200
   1783   1785   1792     1   110.1900474 564.840000
   1783   1782   1793     1   111.5100476 526.347200
   1783   1782   1800     1   107.9700462 569.024000
   1785   1786   1787     1   111.5100476 526.347200
   1785   1786   1805     1   111.0400475 552.288000
   1785   1783   1803     1   110.1900474 564.840000
   1786   1787   1791     1   110.1900474 564.840000
   1786   1787   1800     1   107.9700462 569.024000
   1786   1785   1792     1   110.1900474 564.840000
   1787   1786   1805     1   111.0400475 552.288000
   1791   1787   1800     1   109.3800466 607.516800
   1793   1782   1800     1   107.9700462 569.024000
   1807   1809   1811     1   111.6100477 551.451200
   1809   1811   1815     1   114.2100488 537.225600
   1811   1815   1816     1   109.6600471 523.836800
   1811   1815   1817     1   109.6600471 523.836800
   1815   1816   1827     1   114.2100488 537.225600
   1815   1817   1819     1   114.2100488 537.225600
   1816   1815   1817     1   109.6600471 523.836800
   1816   1827   1830     1   111.0400475 529.694400
   1817   1819   1823     1   111.0400475 529.694400
   1819   1823   1824     1   123.2000528 564.003200
   1819   1823   1855     1   112.2600482 538.062400
   1823   1855   1836     1   118.5150508 540.957728
   1824   1823   1855     1   118.8300510 581.576000
   1827   1830   1831     1   123.2000528 564.003200
   1827   1830   1879     1   112.2600482 538.062400
   1830   1879   1860     1   118.5150508 540.957728
   1831   1830   1879     1   118.8300510 581.576000
   1832   1833   1835     1   111.5100476 526.347200
   1832   1833   1853     1   110.1900474 564.840000
   1832   1843   1848     1   110.1900474 564.840000
   1832   1850   1837     1   112.4800480 524.673600
   1833   1832   1843     1   111.5100476 526.347200
   1833   1832   1850     1   107.9700462 569.024000
   1833   1835   1836     1   111.5100476 526.347200
   1833   1835   1842     1   110.1900474 564.840000
   1835   1833   1853     1   110.1900474 564.840000
   1835   1836   1837     1   111.5100476 526.347200
   1835   1836   1855     1   111.0400475 552.288000
   1836   1835   1842     1   110.1900474 564.840000
   1836   1837   1841     1   110.1900474 564.840000
   1836   1837   1850     1   107.9700462 569.024000
   1837   1836   1855     1   111.0400475 552.288000
   1841   1837   1850     1   109.3800466 607.516800
   1843   1832   1850     1   107.9700462 569.024000
   1856   1857   1859     1   111.5100476 526.347200
   1856   1857   1877     1   110.1900474 564.840000
   1856   1867   1872     1   110.1900474 564.840000
   1856   1874   1861     1   112.4800480 524.673600
   1857   1856   1867     1   111.5100476 526.347200
   1857   1856   1874     1   107.9700462 569.024000
   1857   1859   1860     1   111.5100476 526.347200
   1857   1859   1866     1   110.1900474 564.840000
   1859   1857   1877     1   110.1900474 564.840000
   1859   1860   1861     1   111.5100476 526.347200
   1859   1860   1879     1   111.0400475 552.288000
   1860   1859   1866     1   110.1900474 564.840000
   1860   1861   1865     1   110.1900474 564.840000
   1860   1861   1874     1   107.9700462 569.024000
   1861   1860   1879     1   111.0400475 552.288000
   1865   1861   1874     1   109.3800466 607.516800
   1867   1856   1874     1   107.9700462 569.024000
   1881   1883   1885     1   111.6100477 551.451200
   1883   1885   1889     1   114.2100488 537.225600
   1885   1889   1890     1   109.6600471 523.836800
   1885   1889   1891     1   109.6600471 523.836800
   1889   1890   1901     1   114.2100488 537.225600
   1889   1891   1893     1   114.2100488 537.225600
   1890   1901   1904     1   111.0400475 529.694400
   1890   1889   1891     1   109.6600471 523.836800
   1891   1893   1897     1   111.0400475 529.694400
   1893   1897   1898     1   123.2000528 564.003200
   1893   1897   1929     1   112.2600482 538.062400
   1897   1929   1910     1   118.5150508 540.957728
   1898   1897   1929     1   118.8300510 581.576000
   1901   1904   1905     1   123.2000528 564.003200
   1901   1904   1953     1   112.2600482 538.062400
   1904   1953   1934     1   118.5150508 540.957728
   1905   1904   1953     1   118.8300510 581.576000
   1906   1907   1909     1   111.5100476 526.347200
   1906   1907   1927     1   110.1900474 564.840000
   1906   1917   1922     1   110.1900474 564.840000
   1906   1924   1911     1   112.4800480 524.673600
   1907   1909   1910     1   111.5100476 526.347200
   1907   1909   1916     1   110.1900474 564.840000
   1907   1906   1917     1   111.5100476 526.347200
   1907   1906   1924     1   107.9700462 569.024000
   1909   1910   1911     1   111.5100476 526.347200
   1909   1910   1929     1   111.0400475 552.288000
   1909   1907   1927     1   110.1900474 564.840000
   1910   1911   1915     1   110.1900474 564.840000
   1910   1911   1924     1   107.9700462 569.024000
   1910   1909   1916     1   110.1900474 564.840000
   1911   1910   1929     1   111.0400475 552.288000
   1915   1911   1924     1   109.3800466 607.516800
   1917   1906   1924     1   107.9700462 569.024000
   1930   1931   1933     1   111.5100476 526.347200
   1930   1931   1951     1   110.1900474 564.840000
   1930   1941   1946     1   110.1900474 564.840000
   1930   1948   1935     1   112.4800480 524.673600
   1931   1933   1934     1   111.5100476 526.347200
   1931   1933   1940     1   110.1900474 564.840000
   1931   1930   1941     1   111.5100476 526.347200
   1931   1930   1948     1   107.9700462 569.024000
   1933   1934   1935     1   111.5100476 526.347200
   1933   1934   1953     1   111.0400475 552.288000
   1933   1931   1951     1   110.1900474 564.840000
   1934   1935   1939     1   110.1900474 564.840000
   1934   1935   1948     1   107.9700462 569.024000
   1934   1933   1940     1   110.1900474 564.840000
   1935   1934   1953     1   111.0400475 552.288000
   1939   1935   1948     1   109.3800466 607.516800
   1941   1930   1948     1   107.9700462 569.024000
   1955   1957   1959     1   111.6100477 551.451200
   1957   1959   1963     1   114.2100488 537.225600
   1959   1963   1964     1   109.6600471 523.836800
   1959   1963   1965     1   109.6600471 523.836800
   1963   1964   1975     1   114.2100488 537.225600
   1963   1965   1967     1   114.2100488 537.225600
   1964   1963   1965     1   109.6600471 523.836800
   1964   1975   1978     1   111.0400475 529.694400
   1965   1967   1971     1   111.0400475 529.694400
   1967   1971   1972     1   123.2000528 564.003200
   1967   1971   2003     1   112.2600482 538.062400
   1971   2003   1984     1   118.5150508 540.957728
   1972   1971   2003     1   118.8300510 581.576000
   1975   1978   1979     1   123.2000528 564.003200
   1975   1978   2027     1   112.2600482 538.062400
   1978   2027   2008     1   118.5150508 540.957728
   1979   1978   2027     1   118.8300510 581.576000
   1980   1981   1983     1   111.5100476 526.347200
   1980   1981   2001     1   110.1900474 564.840000
   1980   1991   1996     1   110.1900474 564.840000
   1980   1998   1985     1   112.4800480 524.673600
   1981   1980   1991     1   111.5100476 526.347200
   1981   1980   1998     1   107.9700462 569.024000
   1981   1983   1984     1   111.5100476 526.347200
   1981   1983   1990     1   110.1900474 564.840000
   1983   1981   2001     1   110.1900474 564.840000
   1983   1984   1985     1   111.5100476 526.347200
   1983   1984   2003     1   111.0400475 552.288000
   1984   1983   1990     1   110.1900474 564.840000
   1984   1985   1989     1   110.1900474 564.840000
   1984   1985   1998     1   107.9700462 569.024000
   1985   1984   2003     1   111.0400475 552.288000
   1989   1985   1998     1   109.3800466 607.516800
   1991   1980   1998     1   107.9700462 569.024000
   2004   2005   2007     1   111.5100476 526.347200
   2004   2005   2025     1   110.1900474 564.840000
   2004   2015   2020     1   110.1900474 564.840000
   2004   2022   2009     1   112.4800480 524.673600
   2005   2004   2015     1   111.5100476 526.347200
   2005   2004   2022     1   107.9700462 569.024000
   2005   2007   2008     1   111.5100476 526.347200
   2005   2007   2014     1   110.1900474 564.840000
   2007   2005   2025     1   110.1900474 564.840000
   2007   2008   2009     1   111.5100476 526.347200
   2007   2008   2027     1   111.0400475 552.288000
   2008   2007   2014     1   110.1900474 564.840000
   2008   2009   2013     1   110.1900474 564.840000
   2008   2009   2022     1   107.9700462 569.024000
   2009   2008   2027     1   111.0400475 552.288000
   2013   2009   2022     1   109.3800466 607.516800
   2015   2004   2022     1   107.9700462 569.024000
   2029   2031   2033     1   111.6100477 551.451200
   2031   2033   2037     1   114.2100488 537.225600
   2033   2037   2038     1   109.6600471 523.836800
   2033   2037   2039     1   109.6600471 523.836800
   2037   2038   2049     1   114.2100488 537.225600
   2037   2039   2041     1   114.2100488 537.225600
   2038   2049   2052     1   111.0400475 529.694400
   2038   2037   2039     1   109.6600471 523.836800
   2039   2041   2045     1   111.0400475 529.694400
   2041   2045   2046     1   123.2000528 564.003200
   2041   2045   2077     1   112.2600482 538.062400
   2045   2077   2058     1   118.5150508 540.957728
   2046   2045   2077     1   118.8300510 581.576000
   2049   2052   2053     1   123.2000528 564.003200
   2049   2052   2101     1   112.2600482 538.062400
   2052   2101   2082     1   118.5150508 540.957728
   2053   2052   2101     1   118.8300510 581.576000
   2054   2055   2057     1   111.5100476 526.347200
   2054   2055   2075     1   110.1900474 564.840000
   2054   2065   2070     1   110.1900474 564.840000
   2054   2072   2059     1   112.4800480 524.673600
   2055   2057   2058     1   111.5100476 526.347200
   2055   2057   2064     1   110.1900474 564.840000
   2055   2054   2065     1   111.5100476 526.347200
   2055   2054   2072     1   107.9700462 569.024000
   2057   2058   2059     1   111.5100476 526.347200
   2057   2058   2077     1   111.0400475 552.288000
   2057   2055   2075     1   110.1900474 564.840000
   2058   2059   2063     1   110.1900474 564.840000
   2058   2059   2072     1   107.9700462 569.024000
   2058   2057   2064     1   110.1900474 564.840000
   2059   2058   2077     1   111.0400475 552.288000
   2063   2059   2072     1   109.3800466 607.516800
   2065   2054   2072     1   107.9700462 569.024000
   2078   2079   2081     1   111.5100476 526.347200
   2078   2079   2099     1   110.1900474 564.840000
   2078   2089   2094     1   110.1900474 564.840000
   2078   2096   2083     1   112.4800480 524.673600
   2079   2081   2082     1   111.5100476 526.347200
   2079   2081   2088     1   110.1900474 564.840000
   2079   2078   2089     1   111.5100476 526.347200
   2079   2078   2096     1   107.9700462 569.024000
   2081   2082   2083     1   111.5100476 526.347200
   2081   2082   2101     1   111.0400475 552.288000
   2081   2079   2099     1   110.1900474 564.840000
   2082   2083   2087     1   110.1900474 564.840000
   2082   2083   2096     1   107.9700462 569.024000
   2082   2081   2088     1   110.1900474 564.840000
   2083   2082   2101     1   111.0400475 552.288000
   2087   2083   2096     1   109.3800466 607.516800
   2089   2078   2096     1   107.9700462 569.024000
   2103   2105   2107     1   111.6100477 551.451200
   2105   2107   2111     1   114.2100488 537.225600
   2107   2111   2112     1   109.6600471 523.836800
   2107   2111   2113     1   109.6600471 523.836800
   2111   2112   2123     1   114.2100488 537.225600
   2111   2113   2115     1   114.2100488 537.225600
   2112   2111   2113     1   109.6600471 523.836800
   2112   2123   2126     1   111.0400475 529.694400
   2113   2115   2119     1   111.0400475 529.694400
   2115   2119   2120     1   123.2000528 564.003200
   2115   2119   2151     1   112.2600482 538.062400
   2119   2151   2132     1   118.5150508 540.957728
   2120   2119   2151     1   118.8300510 581.576000
   2123   2126   2127     1   123.2000528 564.003200
   2123   2126   2175     1   112.2600482 538.062400
   2126   2175   2156     1   118.5150508 540.957728
   2127   2126   2175     1   118.8300510 581.576000
   2128   2129   2131     1   111.5100476 526.347200
   2128   2129   2149     1   110.1900474 564.840000
   2128   2139   2144     1   110.1900474 564.840000
   2128   2146   2133     1   112.4800480 524.673600
   2129   2128   2139     1   111.5100476 526.347200
   2129   2128   2146     1   107.9700462 569.024000
   2129   2131   2132     1   111.5100476 526.347200
   2129   2131   2138     1   110.1900474 564.840000
   2131   2129   2149     1   110.1900474 564.840000
   2131   2132   2133     1   111.5100476 526.347200
   2131   2132   2151     1   111.0400475 552.288000
   2132   2131   2138     1   110.1900474 564.840000
   2132   2133   2137     1   110.1900474 564.840000
   2132   2133   2146     1   107.9700462 569.024000
   2133   2132   2151     1   111.0400475 552.288000
   2137   2133   2146     1   109.3800466 607.516800
   2139   2128   2146     1   107.9700462 569.024000
   2152   2153   2155     1   111.5100476 526.347200
   2152   2153   2173     1   110.1900474 564.840000
   2152   2163   2168     1   110.1900474 564.840000
   2152   2170   2157     1   112.4800480 524.673600
   2153   2152   2163     1   111.5100476 526.347200
   2153   2152   2170     1   107.9700462 569.024000
   2153   2155   2156     1   111.5100476 526.347200
   2153   2155   2162     1   110.1900474 564.840000
   2155   2153   2173     1   110.1900474 564.840000
   2155   2156   2157     1   111.5100476 526.347200
   2155   2156   2175     1   111.0400475 552.288000
   2156   2155   2162     1   110.1900474 564.840000
   2156   2157   2161     1   110.1900474 564.840000
   2156   2157   2170     1   107.9700462 569.024000
   2157   2156   2175     1   111.0400475 552.288000
   2161   2157   2170     1   109.3800466 607.516800
   2163   2152   2170     1   107.9700462 569.024000
   2177   2179   2181     1   111.6100477 551.451200
   2179   2181   2185     1   114.2100488 537.225600
   2181   2185   2186     1   109.6600471 523.836800
   2181   2185   2187     1   109.6600471 523.836800
   2185   2186   2197     1   114.2100488 537.225600
   2185   2187   2189     1   114.2100488 537.225600
   2186   2197   2200     1   111.0400475 529.694400
   2186   2185   2187     1   109.6600471 523.836800
   2187   2189   2193     1   111.0400475 529.694400
   2189   2193   2194     1   123.2000528 564.003200
   2189   2193   2225     1   112.2600482 538.062400
   2193   2225   2206     1   118.5150508 540.957728
   2194   2193   2225     1   118.8300510 581.576000
   2197   2200   2201     1   123.2000528 564.003200
   2197   2200   2249     1   112.2600482 538.062400
   2200   2249   2230     1   118.5150508 540.957728
   2201   2200   2249     1   118.8300510 581.576000
   2202   2203   2205     1   111.5100476 526.347200
   2202   2203   2223     1   110.1900474 564.840000
   2202   2213   2218     1   110.1900474 564.840000
   2202   2220   2207     1   112.4800480 524.673600
   2203   2205   2206     1   111.5100476 526.347200
   2203   2205   2212     1   110.1900474 564.840000
   2203   2202   2213     1   111.5100476 526.347200
   2203   2202   2220     1   107.9700462 569.024000
   2205   2206   2207     1   111.5100476 526.347200
   2205   2206   2225     1   111.0400475 552.288000
   2205   2203   2223     1   110.1900474 564.840000
   2206   2207   2211     1   110.1900474 564.840000
   2206   2207   2220     1   107.9700462 569.024000
   2206   2205   2212     1   110.1900474 564.840000
   2207   2206   2225     1   111.0400475 552.288000
   2211   2207   2220     1   109.3800466 607.516800
   2213   2202   2220     1   107.9700462 569.024000
   2226   2227   2229     1   111.5100476 526.347200
   2226   2227   2247     1   110.1900474 564.840000
   2226   2237   2242     1   110.1900474 564.840000
   2226   2244   2231     1   112.4800480 524.673600
   2227   2229   2230     1   111.5100476 526.347200
   2227   2229   2236     1   110.1900474 564.840000
   2227   2226   2237     1   111.5100476 526.347200
   2227   2226   2244     1   107.9700462 569.024000
   2229   2230   2231     1   111.5100476 526.347200
   2229   2230   2249     1   111.0400475 552.288000
   2229   2227   2247     1   110.1900474 564.840000
   2230   2231   2235     1   110.1900474 564.840000
   2230   2231   2244     1   107.9700462 569.024000
   2230   2229   2236     1   110.1900474 564.840000
   2231   2230   2249     1   111.0400475 552.288000
   2235   2231   2244     1   109.3800466 607.516800
   2237   2226   2244     1   107.9700462 569.024000
   2251   2253   2255     1   111.6100477 551.451200
   2253   2255   2259     1   114.2100488 537.225600
   2255   2259   2260     1   109.6600471 523.836800
   2255   2259   2261     1   109.6600471 523.836800
   2259   2260   2271     1   114.2100488 537.225600
   2259   2261   2263     1   114.2100488 537.225600
   2260   2259   2261     1   109.6600471 523.836800
   2260   2271   2274     1   111.0400475 529.694400
   2261   2263   2267     1   111.0400475 529.694400
   2263   2267   2268     1   123.2000528 564.003200
   2263   2267   2299     1   112.2600482 538.062400
   2267   2299   2280     1   118.5150508 540.957728
   2268   2267   2299     1   118.8300510 581.576000
   2271   2274   2275     1   123.2000528 564.003200
   2271   2274   2323     1   112.2600482 538.062400
   2274   2323   2304     1   118.5150508 540.957728
   2275   2274   2323     1   118.8300510 581.576000
   2276   2277   2279     1   111.5100476 526.347200
   2276   2277   2297     1   110.1900474 564.840000
   2276   2287   2292     1   110.1900474 564.840000
   2276   2294   2281     1   112.4800480 524.673600
   2277   2276   2287     1   111.5100476 526.347200
   2277   2276   2294     1   107.9700462 569.024000
   2277   2279   2280     1   111.5100476 526.347200
   2277   2279   2286     1   110.1900474 564.840000
   2279   2277   2297     1   110.1900474 564.840000
   2279   2280   2281     1   111.5100476 526.347200
   2279   2280   2299     1   111.0400475 552.288000
   2280   2279   2286     1   110.1900474 564.840000
   2280   2281   2285     1   110.1900474 564.840000
   2280   2281   2294     1   107.9700462 569.024000
   2281   2280   2299     1   111.0400475 552.288000
   2285   2281   2294     1   109.3800466 607.516800
   2287   2276   2294     1   107.9700462 569.024000
   2300   2301   2303     1   111.5100476 526.347200
   2300   2301   2321     1   110.1900474 564.840000
   2300   2311   2316     1   110.1900474 564.840000
   2300   2318   2305     1   112.4800480 524.673600
   2301   2300   2311     1   111.5100476 526.347200
   2301   2300   2318     1   107.9700462 569.024000
   2301   2303   2304     1   111.5100476 526.347200
   2301   2303   2310     1   110.1900474 564.840000
   2303   2301   2321     1   110.1900474 564.840000
   2303   2304   2305     1   111.5100476 526.347200
   2303   2304   2323     1   111.0400475 552.288000
   2304   2303   2310     1   110.1900474 564.840000
   2304   2305   2309     1   110.1900474 564.840000
   2304   2305   2318     1   107.9700462 569.024000
   2305   2304   2323     1   111.0400475 552.288000
   2309   2305   2318     1   109.3800466 607.516800
   2311   2300   2318     1   107.9700462 569.024000
   2325   2327   2329     1   111.6100477 551.451200
   2327   2329   2333     1   114.2100488 537.225600
   2329   2333   2334     1   109.6600471 523.836800
   2329   2333   2335     1   109.6600471 523.836800
   2333   2334   2345     1   114.2100488 537.225600
   2333   2335   2337     1   114.2100488 537.225600
   2334   2345   2348     1   111.0400475 529.694400
   2334   2333   2335     1   109.6600471 523.836800
   2335   2337   2341     1   111.0400475 529.694400
   2337   2341   2342     1   123.2000528 564.003200
   2337   2341   2373     1   112.2600482 538.062400
   2341   2373   2354     1   118.5150508 540.957728
   2342   2341   2373     1   118.8300510 581.576000
   2345   2348   2349     1   123.2000528 564.003200
   2345   2348   2397     1   112.2600482 538.062400
   2348   2397   2378     1   118.5150508 540.957728
   2349   2348   2397     1   118.8300510 581.576000
   2350   2351   2353     1   111.5100476 526.347200
   2350   2351   2371     1   110.1900474 564.840000
   2350   2361   2366     1   110.1900474 564.840000
   2350   2368   2355     1   112.4800480 524.673600
   2351   2353   2354     1   111.5100476 526.347200
   2351   2353   2360     1   110.1900474 564.840000
   2351   2350   2361     1   111.5100476 526.347200
   2351   2350   2368     1   107.9700462 569.024000
   2353   2354   2355     1   111.5100476 526.347200
   2353   2354   2373     1   111.0400475 552.288000
   2353   2351   2371     1   110.1900474 564.840000
   2354   2355   2359     1   110.1900474 564.840000
   2354   2355   2368     1   107.9700462 569.024000
   2354   2353   2360     1   110.1900474 564.840000
   2355   2354   2373     1   111.0400475 552.288000
   2359   2355   2368     1   109.3800466 607.516800
   2361   2350   2368     1   107.9700462 569.024000
   2374   2375   2377     1   111.5100476 526.347200
   2374   2375   2395     1   110.1900474 564.840000
   2374   2385   2390     1   110.1900474 564.840000
   2374   2392   2379     1   112.4800480 524.673600
   2375   2377   2378     1   111.5100476 526.347200
   2375   2377   2384     1   110.1900474 564.840000
   2375   2374   2385     1   111.5100476 526.347200
   2375   2374   2392     1   107.9700462 569.024000
   2377   2378   2379     1   111.5100476 526.347200
   2377   2378   2397     1   111.0400475 552.288000
   2377   2375   2395     1   110.1900474 564.840000
   2378   2379   2383     1   110.1900474 564.840000
   2378   2379   2392     1   107.9700462 569.024000
   2378   2377   2384     1   110.1900474 564.840000
   2379   2378   2397     1   111.0400475 552.288000
   2383   2379   2392     1   109.3800466 607.516800
   2385   2374   2392     1   107.9700462 569.024000
   2399   2401   2403     1   111.6100477 551.451200
   2401   2403   2407     1   114.2100488 537.225600
   2403   2407   2408     1   109.6600471 523.836800
   2403   2407   2409     1   109.6600471 523.836800
   2407   2408   2419     1   114.2100488 537.225600
   2407   2409   2411     1   114.2100488 537.225600
   2408   2407   2409     1   109.6600471 523.836800
   2408   2419   2422     1   111.0400475 529.694400
   2409   2411   2415     1   111.0400475 529.694400
   2411   2415   2416     1   123.2000528 564.003200
   2411   2415   2447     1   112.2600482 538.062400
   2415   2447   2428     1   118.5150508 540.957728
   2416   2415   2447     1   118.8300510 581.576000
   2419   2422   2423     1   123.2000528 564.003200
   2419   2422   2471     1   112.2600482 538.062400
   2422   2471   2452     1   118.5150508 540.957728
   2423   2422   2471     1   118.8300510 581.576000
   2424   2425   2427     1   111.5100476 526.347200
   2424   2425   2445     1   110.1900474 564.840000
   2424   2435   2440     1   110.1900474 564.840000
   2424   2442   2429     1   112.4800480 524.673600
   2425   2424   2435     1   111.5100476 526.347200
   2425   2424   2442     1   107.9700462 569.024000
   2425   2427   2428     1   111.5100476 526.347200
   2425   2427   2434     1   110.1900474 564.840000
   2427   2425   2445     1   110.1900474 564.840000
   2427   2428   2429     1   111.5100476 526.347200
   2427   2428   2447     1   111.0400475 552.288000
   2428   2427   2434     1   110.1900474 564.840000
   2428   2429   2433     1   110.1900474 564.840000
   2428   2429   2442     1   107.9700462 569.024000
   2429   2428   2447     1   111.0400475 552.288000
   2433   2429   2442     1   109.3800466 607.516800
   2435   2424   2442     1   107.9700462 569.024000
   2448   2449   2451     1   111.5100476 526.347200
   2448   2449   2469     1   110.1900474 564.840000
   2448   2459   2464     1   110.1900474 564.840000
   2448   2466   2453     1   112.4800480 524.673600
   2449   2448   2459     1   111.5100476 526.347200
   2449   2448   2466     1   107.9700462 569.024000
   2449   2451   2452     1   111.5100476 526.347200
   2449   2451   2458     1   110.1900474 564.840000
   2451   2449   2469     1   110.1900474 564.840000
   2451   2452   2453     1   111.5100476 526.347200
   2451   2452   2471     1   111.0400475 552.288000
   2452   2451   2458     1   110.1900474 564.840000
   2452   2453   2457     1   110.1900474 564.840000
   2452   2453   2466     1   107.9700462 569.024000
   2453   2452   2471     1   111.0400475 552.288000
   2457   2453   2466     1   109.3800466 607.516800
   2459   2448   2466     1   107.9700462 569.024000
   2473   2475   2477     1   111.6100477 551.451200
   2475   2477   2481     1   114.2100488 537.225600
   2477   2481   2482     1   109.6600471 523.836800
   2477   2481   2483     1   109.6600471 523.836800
   2481   2482   2493     1   114.2100488 537.225600
   2481   2483   2485     1   114.2100488 537.225600
   2482   2493   2496     1   111.0400475 529.694400
   2482   2481   2483     1   109.6600471 523.836800
   2483   2485   2489     1   111.0400475 529.694400
   2485   2489   2490     1   123.2000528 564.003200
   2485   2489   2521     1   112.2600482 538.062400
   2489   2521   2502     1   118.5150508 540.957728
   2490   2489   2521     1   118.8300510 581.576000
   2493   2496   2497     1   123.2000528 564.003200
   2493   2496   2545     1   112.2600482 538.062400
   2496   2545   2526     1   118.5150508 540.957728
   2497   2496   2545     1   118.8300510 581.576000
   2498   2499   2501     1   111.5100476 526.347200
   2498   2499   2519     1   110.1900474 564.840000
   2498   2509   2514     1   110.1900474 564.840000
   2498   2516   2503     1   112.4800480 524.673600
   2499   2501   2502     1   111.5100476 526.347200
   2499   2501   2508     1   110.1900474 564.840000
   2499   2498   2509     1   111.5100476 526.347200
   2499   2498   2516     1   107.9700462 569.024000
   2501   2502   2503     1   111.5100476 526.347200
   2501   2502   2521     1   111.0400475 552.288000
   2501   2499   2519     1   110.1900474 564.840000
   2502   2503   2507     1   110.1900474 564.840000
   2502   2503   2516     1   107.9700462 569.024000
   2502   2501   2508     1   110.1900474 564.840000
   2503   2502   2521     1   111.0400475 552.288000
   2507   2503   2516     1   109.3800466 607.516800
   2509   2498   2516     1   107.9700462 569.024000
   2522   2523   2525     1   111.5100476 526.347200
   2522   2523   2543     1   110.1900474 564.840000
   2522   2533   2538     1   110.1900474 564.840000
   2522   2540   2527     1   112.4800480 524.673600
   2523   2525   2526     1   111.5100476 526.347200
   2523   2525   2532     1   110.1900474 564.840000
   2523   2522   2533     1   111.5100476 526.347200
   2523   2522   2540     1   107.9700462 569.024000
   2525   2526   2527     1   111.5100476 526.347200
   2525   2526   2545     1   111.0400475 552.288000
   2525   2523   2543     1   110.1900474 564.840000
   2526   2527   2531     1   110.1900474 564.840000
   2526   2527   2540     1   107.9700462 569.024000
   2526   2525   2532     1   110.1900474 564.840000
   2527   2526   2545     1   111.0400475 552.288000
   2531   2527   2540     1   109.3800466 607.516800
   2533   2522   2540     1   107.9700462 569.024000
   2547   2549   2551     1   111.6100477 551.451200
   2549   2551   2555     1   114.2100488 537.225600
   2551   2555   2556     1   109.6600471 523.836800
   2551   2555   2557     1   109.6600471 523.836800
   2555   2556   2567     1   114.2100488 537.225600
   2555   2557   2559     1   114.2100488 537.225600
   2556   2555   2557     1   109.6600471 523.836800
   2556   2567   2570     1   111.0400475 529.694400
   2557   2559   2563     1   111.0400475 529.694400
   2559   2563   2564     1   123.2000528 564.003200
   2559   2563   2595     1   112.2600482 538.062400
   2563   2595   2576     1   118.5150508 540.957728
   2564   2563   2595     1   118.8300510 581.576000
   2567   2570   2571     1   123.2000528 564.003200
   2567   2570   2619     1   112.2600482 538.062400
   2570   2619   2600     1   118.5150508 540.957728
   2571   2570   2619     1   118.8300510 581.576000
   2572   2573   2575     1   111.5100476 526.347200
   2572   2573   2593     1   110.1900474 564.840000
   2572   2583   2588     1   110.1900474 564.840000
   2572   2590   2577     1   112.4800480 524.673600
   2573   2572   2583     1   111.5100476 526.347200
   2573   2572   2590     1   107.9700462 569.024000
   2573   2575   2576     1   111.5100476 526.347200
   2573   2575   2582     1   110.1900474 564.840000
   2575   2573   2593     1   110.1900474 564.840000
   2575   2576   2577     1   111.5100476 526.347200
   2575   2576   2595     1   111.0400475 552.288000
   2576   2575   2582     1   110.1900474 564.840000
   2576   2577   2581     1   110.1900474 564.840000
   2576   2577   2590     1   107.9700462 569.024000
   2577   2576   2595     1   111.0400475 552.288000
   2581   2577   2590     1   109.3800466 607.516800
   2583   2572   2590     1   107.9700462 569.024000
   2596   2597   2599     1   111.5100476 526.347200
   2596   2597   2617     1   110.1900474 564.840000
   2596   2607   2612     1   110.1900474 564.840000
   2596   2614   2601     1   112.4800480 524.673600
   2597   2596   2607     1   111.5100476 526.347200
   2597   2596   2614     1   107.9700462 569.024000
   2597   2599   2600     1   111.5100476 526.347200
   2597   2599   2606     1   110.1900474 564.840000
   2599   2597   2617     1   110.1900474 564.840000
   2599   2600   2601     1   111.5100476 526.347200
   2599   2600   2619     1   111.0400475 552.288000
   2600   2599   2606     1   110.1900474 564.840000
   2600   2601   2605     1   110.1900474 564.840000
   2600   2601   2614     1   107.9700462 569.024000
   2601   2600   2619     1   111.0400475 552.288000
   2605   2601   2614     1   109.3800466 607.516800
   2607   2596   2614     1   107.9700462 569.024000
   2621   2623   2625     1   111.6100477 551.451200
   2623   2625   2629     1   114.2100488 537.225600
   2625   2629   2630     1   109.6600471 523.836800
   2625   2629   2631     1   109.6600471 523.836800
   2629   2630   2641     1   114.2100488 537.225600
   2629   2631   2633     1   114.2100488 537.225600
   2630   2641   2644     1   111.0400475 529.694400
   2630   2629   2631     1   109.6600471 523.836800
   2631   2633   2637     1   111.0400475 529.694400
   2633   2637   2638     1   123.2000528 564.003200
   2633   2637   2669     1   112.2600482 538.062400
   2637   2669   2650     1   118.5150508 540.957728
   2638   2637   2669     1   118.8300510 581.576000
   2641   2644   2645     1   123.2000528 564.003200
   2641   2644   2693     1   112.2600482 538.062400
   2644   2693   2674     1   118.5150508 540.957728
   2645   2644   2693     1   118.8300510 581.576000
   2646   2647   2649     1   111.5100476 526.347200
   2646   2647   2667     1   110.1900474 564.840000
   2646   2657   2662     1   110.1900474 564.840000
   2646   2664   2651     1   112.4800480 524.673600
   2647   2649   2650     1   111.5100476 526.347200
   2647   2649   2656     1   110.1900474 564.840000
   2647   2646   2657     1   111.5100476 526.347200
   2647   2646   2664     1   107.9700462 569.024000
   2649   2650   2651     1   111.5100476 526.347200
   2649   2650   2669     1   111.0400475 552.288000
   2649   2647   2667     1   110.1900474 564.840000
   2650   2651   2655     1   110.1900474 564.840000
   2650   2651   2664     1   107.9700462 569.024000
   2650   2649   2656     1   110.1900474 564.840000
   2651   2650   2669     1   111.0400475 552.288000
   2655   2651   2664     1   109.3800466 607.516800
   2657   2646   2664     1   107.9700462 569.024000
   2670   2671   2673     1   111.5100476 526.347200
   2670   2671   2691     1   110.1900474 564.840000
   2670   2681   2686     1   110.1900474 564.840000
   2670   2688   2675     1   112.4800480 524.673600
   2671   2673   2674     1   111.5100476 526.347200
   2671   2673   2680     1   110.1900474 564.840000
   2671   2670   2681     1   111.5100476 526.347200
   2671   2670   2688     1   107.9700462 569.024000
   2673   2674   2675     1   111.5100476 526.347200
   2673   2674   2693     1   111.0400475 552.288000
   2673   2671   2691     1   110.1900474 564.840000
   2674   2675   2679     1   110.1900474 564.840000
   2674   2675   2688     1   107.9700462 569.024000
   2674   2673   2680     1   110.1900474 564.840000
   2675   2674   2693     1   111.0400475 552.288000
   2679   2675   2688     1   109.3800466 607.516800
   2681   2670   2688     1   107.9700462 569.024000
   2695   2697   2699     1   111.6100477 551.451200
   2697   2699   2703     1   114.2100488 537.225600
   2699   2703   2704     1   109.6600471 523.836800
   2699   2703   2705     1   109.6600471 523.836800
   2703   2704   2715     1   114.2100488 537.225600
   2703   2705   2707     1   114.2100488 537.225600
   2704   2703   2705     1   109.6600471 523.836800
   2704   2715   2718     1   111.0400475 529.694400
   2705   2707   2711     1   111.0400475 529.694400
   2707   2711   2712     1   123.2000528 564.003200
   2707   2711   2743     1   112.2600482 538.062400
   2711   2743   2724     1   118.5150508 540.957728
   2712   2711   2743     1   118.8300510 581.576000
   2715   2718   2719     1   123.2000528 564.003200
   2715   2718   2767     1   112.2600482 538.062400
   2718   2767   2748     1   118.5150508 540.957728
   2719   2718   2767     1   118.8300510 581.576000
   2720   2721   2723     1   111.5100476 526.347200
   2720   2721   2741     1   110.1900474 564.840000
   2720   2731   2736     1   110.1900474 564.840000
   2720   2738   2725     1   112.4800480 524.673600
   2721   2720   2731     1   111.5100476 526.347200
   2721   2720   2738     1   107.9700462 569.024000
   2721   2723   2724     1   111.5100476 526.347200
   2721   2723   2730     1   110.1900474 564.840000
   2723   2721   2741     1   110.1900474 564.840000
   2723   2724   2725     1   111.5100476 526.347200
   2723   2724   2743     1   111.0400475 552.288000
   2724   2723   2730     1   110.1900474 564.840000
   2724   2725   2729     1   110.1900474 564.840000
   2724   2725   2738     1   107.9700462 569.024000
   2725   2724   2743     1   111.0400475 552.288000
   2729   2725   2738     1   109.3800466 607.516800
   2731   2720   2738     1   107.9700462 569.024000
   2744   2745   2747     1   111.5100476 526.347200
   2744   2745   2765     1   110.1900474 564.840000
   2744   2755   2760     1   110.1900474 564.840000
   2744   2762   2749     1   112.4800480 524.673600
   2745   2744   2755     1   111.5100476 526.347200
   2745   2744   2762     1   107.9700462 569.024000
   2745   2747   2748     1   111.5100476 526.347200
   2745   2747   2754     1   110.1900474 564.840000
   2747   2745   2765     1   110.1900474 564.840000
   2747   2748   2749     1   111.5100476 526.347200
   2747   2748   2767     1   111.0400475 552.288000
   2748   2747   2754     1   110.1900474 564.840000
   2748   2749   2753     1   110.1900474 564.840000
   2748   2749   2762     1   107.9700462 569.024000
   2749   2748   2767     1   111.0400475 552.288000
   2753   2749   2762     1   109.3800466 607.516800
   2755   2744   2762     1   107.9700462 569.024000
   2769   2771   2773     1   111.6100477 551.451200
   2771   2773   2777     1   114.2100488 537.225600
   2773   2777   2778     1   109.6600471 523.836800
   2773   2777   2779     1   109.6600471 523.836800
   2777   2778   2789     1   114.2100488 537.225600
   2777   2779   2781     1   114.2100488 537.225600
   2778   2789   2792     1   111.0400475 529.694400
   2778   2777   2779     1   109.6600471 523.836800
   2779   2781   2785     1   111.0400475 529.694400
   2781   2785   2786     1   123.2000528 564.003200
   2781   2785   2817     1   112.2600482 538.062400
   2785   2817   2798     1   118.5150508 540.957728
   2786   2785   2817     1   118.8300510 581.576000
   2789   2792   2793     1   123.2000528 564.003200
   2789   2792   2841     1   112.2600482 538.062400
   2792   2841   2822     1   118.5150508 540.957728
   2793   2792   2841     1   118.8300510 581.576000
   2794   2795   2797     1   111.5100476 526.347200
   2794   2795   2815     1   110.1900474 564.840000
   2794   2805   2810     1   110.1900474 564.840000
   2794   2812   2799     1   112.4800480 524.673600
   2795   2797   2798     1   111.5100476 526.347200
   2795   2797   2804     1   110.1900474 564.840000
   2795   2794   2805     1   111.5100476 526.347200
   2795   2794   2812     1   107.9700462 569.024000
   2797   2798   2799     1   111.5100476 526.347200
   2797   2798   2817     1   111.0400475 552.288000
   2797   2795   2815     1   110.1900474 564.840000
   2798   2799   2803     1   110.1900474 564.840000
   2798   2799   2812     1   107.9700462 569.024000
   2798   2797   2804     1   110.1900474 564.840000
   2799   2798   2817     1   111.0400475 552.288000
   2803   2799   2812     1   109.3800466 607.516800
   2805   2794   2812     1   107.9700462 569.024000
   2818   2819   2821     1   111.5100476 526.347200
   2818   2819   2839     1   110.1900474 564.840000
   2818   2829   2834     1   110.1900474 564.840000
   2818   2836   2823     1   112.4800480 524.673600
   2819   2821   2822     1   111.5100476 526.347200
   2819   2821   2828     1   110.1900474 564.840000
   2819   2818   2829     1   111.5100476 526.347200
   2819   2818   2836     1   107.9700462 569.024000
   2821   2822   2823     1   111.5100476 526.347200
   2821   2822   2841     1   111.0400475 552.288000
   2821   2819   2839     1   110.1900474 564.840000
   2822   2823   2827     1   110.1900474 564.840000
   2822   2823   2836     1   107.9700462 569.024000
   2822   2821   2828     1   110.1900474 564.840000
   2823   2822   2841     1   111.0400475 552.288000
   2827   2823   2836     1   109.3800466 607.516800
   2829   2818   2836     1   107.9700462 569.024000
   2843   2845   2847     1   111.6100477 551.451200
   2845   2847   2851     1   114.2100488 537.225600
   2847   2851   2852     1   109.6600471 523.836800
   2847   2851   2853     1   109.6600471 523.836800
   2851   2852   2863     1   114.2100488 537.225600
   2851   2853   2855     1   114.2100488 537.225600
   2852   2851   2853     1   109.6600471 523.836800
   2852   2863   2866     1   111.0400475 529.694400
   2853   2855   2859     1   111.0400475 529.694400
   2855   2859   2860     1   123.2000528 564.003200
   2855   2859   2891     1   112.2600482 538.062400
   2859   2891   2872     1   118.5150508 540.957728
   2860   2859   2891     1   118.8300510 581.576000
   2863   2866   2867     1   123.2000528 564.003200
   2863   2866   2915     1   112.2600482 538.062400
   2866   2915   2896     1   118.5150508 540.957728
   2867   2866   2915     1   118.8300510 581.576000
   2868   2869   2871     1   111.5100476 526.347200
   2868   2869   2889     1   110.1900474 564.840000
   2868   2879   2884     1   110.1900474 564.840000
   2868   2886   2873     1   112.4800480 524.673600
   2869   2868   2879     1   111.5100476 526.347200
   2869   2868   2886     1   107.9700462 569.024000
   2869   2871   2872     1   111.5100476 526.347200
   2869   2871   2878     1   110.1900474 564.840000
   2871   2869   2889     1   110.1900474 564.840000
   2871   2872   2873     1   111.5100476 526.347200
   2871   2872   2891     1   111.0400475 552.288000
   2872   2871   2878     1   110.1900474 564.840000
   2872   2873   2877     1   110.1900474 564.840000
   2872   2873   2886     1   107.9700462 569.024000
   2873   2872   2891     1   111.0400475 552.288000
   2877   2873   2886     1   109.3800466 607.516800
   2879   2868   2886     1   107.9700462 569.024000
   2892   2893   2895     1   111.5100476 526.347200
   2892   2893   2913     1   110.1900474 564.840000
   2892   2903   2908     1   110.1900474 564.840000
   2892   2910   2897     1   112.4800480 524.673600
   2893   2892   2903     1   111.5100476 526.347200
   2893   2892   2910     1   107.9700462 569.024000
   2893   2895   2896     1   111.5100476 526.347200
   2893   2895   2902     1   110.1900474 564.840000
   2895   2893   2913     1   110.1900474 564.840000
   2895   2896   2897     1   111.5100476 526.347200
   2895   2896   2915     1   111.0400475 552.288000
   2896   2895   2902     1   110.1900474 564.840000
   2896   2897   2901     1   110.1900474 564.840000
   2896   2897   2910     1   107.9700462 569.024000
   2897   2896   2915     1   111.0400475 552.288000
   2901   2897   2910     1   109.3800466 607.516800
   2903   2892   2910     1   107.9700462 569.024000
   2917   2919   2921     1   111.6100477 551.451200
   2919   2921   2925     1   114.2100488 537.225600
   2921   2925   2926     1   109.6600471 523.836800
   2921   2925   2927     1   109.6600471 523.836800
   2925   2926   2937     1   114.2100488 537.225600
   2925   2927   2929     1   114.2100488 537.225600
   2926   2937   2940     1   111.0400475 529.694400
   2926   2925   2927     1   109.6600471 523.836800
   2927   2929   2933     1   111.0400475 529.694400
   2929   2933   2934     1   123.2000528 564.003200
   2929   2933   2965     1   112.2600482 538.062400
   2933   2965   2946     1   118.5150508 540.957728
   2934   2933   2965     1   118.8300510 581.576000
   2937   2940   2941     1   123.2000528 564.003200
   2937   2940   2989     1   112.2600482 538.062400
   2940   2989   2970     1   118.5150508 540.957728
   2941   2940   2989     1   118.8300510 581.576000
   2942   2943   2945     1   111.5100476 526.347200
   2942   2943   2963     1   110.1900474 564.840000
   2942   2953   2958     1   110.1900474 564.840000
   2942   2960   2947     1   112.4800480 524.673600
   2943   2945   2946     1   111.5100476 526.347200
   2943   2945   2952     1   110.1900474 564.840000
   2943   2942   2953     1   111.5100476 526.347200
   2943   2942   2960     1   107.9700462 569.024000
   2945   2946   2947     1   111.5100476 526.347200
   2945   2946   2965     1   111.0400475 552.288000
   2945   2943   2963     1   110.1900474 564.840000
   2946   2947   2951     1   110.1900474 564.840000
   2946   2947   2960     1   107.9700462 569.024000
   2946   2945   2952     1   110.1900474 564.840000
   2947   2946   2965     1   111.0400475 552.288000
   2951   2947   2960     1   109.3800466 607.516800
   2953   2942   2960     1   107.9700462 569.024000
   2966   2967   2969     1   111.5100476 526.347200
   2966   2967   2987     1   110.1900474 564.840000
   2966   2977   2982     1   110.1900474 564.840000
   2966   2984   2971     1   112.4800480 524.673600
   2967   2969   2970     1   111.5100476 526.347200
   2967   2969   2976     1   110.1900474 564.840000
   2967   2966   2977     1   111.5100476 526.347200
   2967   2966   2984     1   107.9700462 569.024000
   2969   2970   2971     1   111.5100476 526.347200
   2969   2970   2989     1   111.0400475 552.288000
   2969   2967   2987     1   110.1900474 564.840000
   2970   2971   2975     1   110.1900474 564.840000
   2970   2971   2984     1   107.9700462 569.024000
   2970   2969   2976     1   110.1900474 564.840000
   2971   2970   2989     1   111.0400475 552.288000
   2975   2971   2984     1   109.3800466 607.516800
   2977   2966   2984     1   107.9700462 569.024000
   2991   2993   2995     1   111.6100477 551.451200
   2993   2995   2999     1   114.2100488 537.225600
   2995   2999   3000     1   109.6600471 523.836800
   2995   2999   3001     1   109.6600471 523.836800
   2999   3000   3011     1   114.2100488 537.225600
   2999   3001   3003     1   114.2100488 537.225600
   3000   2999   3001     1   109.6600471 523.836800
   3000   3011   3014     1   111.0400475 529.694400
   3001   3003   3007     1   111.0400475 529.694400
   3003   3007   3008     1   123.2000528 564.003200
   3003   3007   3039     1   112.2600482 538.062400
   3007   3039   3020     1   118.5150508 540.957728
   3008   3007   3039     1   118.8300510 581.576000
   3011   3014   3015     1   123.2000528 564.003200
   3011   3014   3063     1   112.2600482 538.062400
   3014   3063   3044     1   118.5150508 540.957728
   3015   3014   3063     1   118.8300510 581.576000
   3016   3017   3019     1   111.5100476 526.347200
   3016   3017   3037     1   110.1900474 564.840000
   3016   3027   3032     1   110.1900474 564.840000
   3016   3034   3021     1   112.4800480 524.673600
   3017   3016   3027     1   111.5100476 526.347200
   3017   3016   3034     1   107.9700462 569.024000
   3017   3019   3020     1   111.5100476 526.347200
   3017   3019   3026     1   110.1900474 564.840000
   3019   3017   3037     1   110.1900474 564.840000
   3019   3020   3021     1   111.5100476 526.347200
   3019   3020   3039     1   111.0400475 552.288000
   3020   3019   3026     1   110.1900474 564.840000
   3020   3021   3025     1   110.1900474 564.840000
   3020   3021   3034     1   107.9700462 569.024000
   3021   3020   3039     1   111.0400475 552.288000
   3025   3021   3034     1   109.3800466 607.516800
   3027   3016   3034     1   107.9700462 569.024000
   3040   3041   3043     1   111.5100476 526.347200
   3040   3041   3061     1   110.1900474 564.840000
   3040   3051   3056     1   110.1900474 564.840000
   3040   3058   3045     1   112.4800480 524.673600
   3041   3040   3051     1   111.5100476 526.347200
   3041   3040   3058     1   107.9700462 569.024000
   3041   3043   3044     1   111.5100476 526.347200
   3041   3043   3050     1   110.1900474 564.840000
   3043   3041   3061     1   110.1900474 564.840000
   3043   3044   3045     1   111.5100476 526.347200
   3043   3044   3063     1   111.0400475 552.288000
   3044   3043   3050     1   110.1900474 564.840000
   3044   3045   3049     1   110.1900474 564.840000
   3044   3045   3058     1   107.9700462 569.024000
   3045   3044   3063     1   111.0400475 552.288000
   3049   3045   3058     1   109.3800466 607.516800
   3051   3040   3058     1   107.9700462 569.024000
   3065   3067   3069     1   111.6100477 551.451200
   3067   3069   3073     1   114.2100488 537.225600
   3069   3073   3074     1   109.6600471 523.836800
   3069   3073   3075     1   109.6600471 523.836800
   3073   3074   3085     1   114.2100488 537.225600
   3073   3075   3077     1   114.2100488 537.225600
   3074   3085   3088     1   111.0400475 529.694400
   3074   3073   3075     1   109.6600471 523.836800
   3075   3077   3081     1   111.0400475 529.694400
   3077   3081   3082     1   123.2000528 564.003200
   3077   3081   3113     1   112.2600482 538.062400
   3081   3113   3094     1   118.5150508 540.957728
   3082   3081   3113     1   118.8300510 581.576000
   3085   3088   3089     1   123.2000528 564.003200
   3085   3088   3137     1   112.2600482 538.062400
   3088   3137   3118     1   118.5150508 540.957728
   3089   3088   3137     1   118.8300510 581.576000
   3090   3091   3093     1   111.5100476 526.347200
   3090   3091   3111     1   110.1900474 564.840000
   3090   3101   3106     1   110.1900474 564.840000
   3090   3108   3095     1   112.4800480 524.673600
   3091   3093   3094     1   111.5100476 526.347200
   3091   3093   3100     1   110.1900474 564.840000
   3091   3090   3101     1   111.5100476 526.347200
   3091   3090   3108     1   107.9700462 569.024000
   3093   3094   3095     1   111.5100476 526.347200
   3093   3094   3113     1   111.0400475 552.288000
   3093   3091   3111     1   110.1900474 564.840000
   3094   3095   3099     1   110.1900474 564.840000
   3094   3095   3108     1   107.9700462 569.024000
   3094   3093   3100     1   110.1900474 564.840000
   3095   3094   3113     1   111.0400475 552.288000
   3099   3095   3108     1   109.3800466 607.516800
   3101   3090   3108     1   107.9700462 569.024000
   3114   3115   3117     1   111.5100476 526.347200
   3114   3115   3135     1   110.1900474 564.840000
   3114   3125   3130     1   110.1900474 564.840000
   3114   3132   3119     1   112.4800480 524.673600
   3115   3117   3118     1   111.5100476 526.347200
   3115   3117   3124     1   110.1900474 564.840000
   3115   3114   3125     1   111.5100476 526.347200
   3115   3114   3132     1   107.9700462 569.024000
   3117   3118   3119     1   111.5100476 526.347200
   3117   3118   3137     1   111.0400475 552.288000
   3117   3115   3135     1   110.1900474 564.840000
   3118   3119   3123     1   110.1900474 564.840000
   3118   3119   3132     1   107.9700462 569.024000
   3118   3117   3124     1   110.1900474 564.840000
   3119   3118   3137     1   111.0400475 552.288000
   3123   3119   3132     1   109.3800466 607.516800
   3125   3114   3132     1   107.9700462 569.024000
      1      2     21     1   108.0100461 406.684800
      1      2     22     1   108.0100461 406.684800
      1      7     29     1   108.0100461 406.684800
      1      7     30     1   108.0100461 406.684800
      1      8     31     1   108.0100461 406.684800
      1      8     32     1   108.0100461 406.684800
      2      1     41     1   110.1100470 384.091200
      2      3     23     1   110.5600475 386.601600
      2      3     24     1   110.5600475 386.601600
      3      2     21     1   110.5600475 386.601600
      3      2     22     1   110.5600475 386.601600
      3      4     42     1   110.1100470 384.091200
      4      3     23     1   108.0100461 406.684800
      4      3     24     1   108.0100461 406.684800
      4      5     25     1   108.0100461 406.684800
      4      5     26     1   108.0100461 406.684800
      4      6     27     1   108.0100461 406.684800
      4      6     28     1   108.0100461 406.684800
      5      4     42     1   110.1100470 384.091200
      5     11     35     1   109.8000471 387.438400
      5     11     36     1   109.8000471 387.438400
      6      4     42     1   110.1100470 384.091200
      6      9     33     1   109.8000471 387.438400
      6      9     34     1   109.8000471 387.438400
      7      1     41     1   110.1100470 384.091200
      7     13     37     1   109.8000471 387.438400
      7     13     38     1   109.8000471 387.438400
      8      1     41     1   110.1100470 384.091200
      8     15     39     1   109.8000471 387.438400
      8     15     40     1   109.8000471 387.438400
      9      6     27     1   110.5600475 386.601600
      9      6     28     1   110.5600475 386.601600
     10      9     33     1   108.7700466 392.459200
     10      9     34     1   108.7700466 392.459200
     10     52     67     1   117.5500507 404.174400
     11      5     25     1   110.5600475 386.601600
     11      5     26     1   110.5600475 386.601600
     12     11     35     1   108.7700466 392.459200
     12     11     36     1   108.7700466 392.459200
     12     78     93     1   117.5500507 404.174400
     13      7     29     1   110.5600475 386.601600
     13      7     30     1   110.5600475 386.601600
     14     13     37     1   108.7700466 392.459200
     14     13     38     1   108.7700466 392.459200
     14    104    119     1   117.5500507 404.174400
     15      8     31     1   110.5600475 386.601600
     15      8     32     1   110.5600475 386.601600
     16     15     39     1   108.7700466 392.459200
     16     15     40     1   108.7700466 392.459200
     16    130    145     1   117.5500507 404.174400
     21      2     22     1   109.7500473 328.025600
     23      3     24     1   109.7500473 328.025600
     25      5     26     1   109.7500473 328.025600
     27      6     28     1   109.7500473 328.025600
     29      7     30     1   109.7500473 328.025600
     31      8     32     1   109.7500473 328.025600
     33      9     34     1   107.5800459 329.699200
     35     11     36     1   107.5800459 329.699200
     37     13     38     1   107.5800459 329.699200
     39     15     40     1   107.5800459 329.699200
     43     44     55     1   108.0100461 406.684800
     43     44     56     1   108.0100461 406.684800
     43     45     57     1   108.0100461 406.684800
     43     45     58     1   108.0100461 406.684800
     43     50     63     1   108.0100461 406.684800
     43     50     64     1   108.0100461 406.684800
     44     43     68     1   110.1100470 384.091200
     44     46     59     1   109.8000471 387.438400
     44     46     60     1   109.8000471 387.438400
     45     43     68     1   110.1100470 384.091200
     45     48     61     1   109.8000471 387.438400
     45     48     62     1   109.8000471 387.438400
     46     44     55     1   110.5600475 386.601600
     46     44     56     1   110.5600475 386.601600
     47     46     59     1   108.7700466 392.459200
     47     46     60     1   108.7700466 392.459200
     47    156    171     1   117.5500507 404.174400
     48     45     57     1   110.5600475 386.601600
     48     45     58     1   110.5600475 386.601600
     49     48     61     1   108.7700466 392.459200
     49     48     62     1   108.7700466 392.459200
     49    182    197     1   117.5500507 404.174400
     50     43     68     1   110.1100470 384.091200
     50     51     65     1   109.5600471 388.275200
     50     51     66     1   109.5600471 388.275200
     51     50     63     1   110.5600475 386.601600
     51     50     64     1   110.5600475 386.601600
     51     52     67     1   117.6800502 383.254400
     52     51     65     1   108.8800464 416.726400
     52     51     66     1   108.8800464 416.726400
     55     44     56     1   109.7500473 328.025600
     57     45     58     1   109.7500473 328.025600
     59     46     60     1   107.5800459 329.699200
     61     48     62     1   107.5800459 329.699200
     63     50     64     1   109.7500473 328.025600
     65     51     66     1   108.4600466 328.025600
     69     70     81     1   108.0100461 406.684800
     69     70     82     1   108.0100461 406.684800
     69     71     83     1   108.0100461 406.684800
     69     71     84     1   108.0100461 406.684800
     69     76     89     1   108.0100461 406.684800
     69     76     90     1   108.0100461 406.684800
     70     69     94     1   110.1100470 384.091200
     70     72     85     1   109.8000471 387.438400
     70     72     86     1   109.8000471 387.438400
     71     69     94     1   110.1100470 384.091200
     71     74     87     1   109.8000471 387.438400
     71     74     88     1   109.8000471 387.438400
     72     70     81     1   110.5600475 386.601600
     72     70     82     1   110.5600475 386.601600
     73     72     85     1   108.7700466 392.459200
     73     72     86     1   108.7700466 392.459200
     73    208    223     1   117.5500507 404.174400
     74     71     83     1   110.5600475 386.601600
     74     71     84     1   110.5600475 386.601600
     75     74     87     1   108.7700466 392.459200
     75     74     88     1   108.7700466 392.459200
     75    234    249     1   117.5500507 404.174400
     76     69     94     1   110.1100470 384.091200
     76     77     91     1   109.5600471 388.275200
     76     77     92     1   109.5600471 388.275200
     77     76     89     1   110.5600475 386.601600
     77     76     90     1   110.5600475 386.601600
     77     78     93     1   117.6800502 383.254400
     78     77     91     1   108.8800464 416.726400
     78     77     92     1   108.8800464 416.726400
     81     70     82     1   109.7500473 328.025600
     83     71     84     1   109.7500473 328.025600
     85     72     86     1   107.5800459 329.699200
     87     74     88     1   107.5800459 329.699200
     89     76     90     1   109.7500473 328.025600
     91     77     92     1   108.4600466 328.025600
     95     96    107     1   108.0100461 406.684800
     95     96    108     1   108.0100461 406.684800
     95     97    109     1   108.0100461 406.684800
     95     97    110     1   108.0100461 406.684800
     95    102    115     1   108.0100461 406.684800
     95    102    116     1   108.0100461 406.684800
     96     95    120     1   110.1100470 384.091200
     96     98    111     1   109.8000471 387.438400
     96     98    112     1   109.8000471 387.438400
     97     95    120     1   110.1100470 384.091200
     97    100    113     1   109.8000471 387.438400
     97    100    114     1   109.8000471 387.438400
     98     96    107     1   110.5600475 386.601600
     98     96    108     1   110.5600475 386.601600
     99     98    111     1   108.7700466 392.459200
     99     98    112     1   108.7700466 392.459200
     99    260    275     1   117.5500507 404.174400
    100     97    109     1   110.5600475 386.601600
    100     97    110     1   110.5600475 386.601600
    101    100    113     1   108.7700466 392.459200
    101    100    114     1   108.7700466 392.459200
    101    286    301     1   117.5500507 404.174400
    102     95    120     1   110.1100470 384.091200
    102    103    117     1   109.5600471 388.275200
    102    103    118     1   109.5600471 388.275200
    103    102    115     1   110.5600475 386.601600
    103    102    116     1   110.5600475 386.601600
    103    104    119     1   117.6800502 383.254400
    104    103    117     1   108.8800464 416.726400
    104    103    118     1   108.8800464 416.726400
    107     96    108     1   109.7500473 328.025600
    109     97    110     1   109.7500473 328.025600
    111     98    112     1   107.5800459 329.699200
    113    100    114     1   107.5800459 329.699200
    115    102    116     1   109.7500473 328.025600
    117    103    118     1   108.4600466 328.025600
    121    122    133     1   108.0100461 406.684800
    121    122    134     1   108.0100461 406.684800
    121    123    135     1   108.0100461 406.684800
    121    123    136     1   108.0100461 406.684800
    121    128    141     1   108.0100461 406.684800
    121    128    142     1   108.0100461 406.684800
    122    121    146     1   110.1100470 384.091200
    122    124    137     1   109.8000471 387.438400
    122    124    138     1   109.8000471 387.438400
    123    121    146     1   110.1100470 384.091200
    123    126    139     1   109.8000471 387.438400
    123    126    140     1   109.8000471 387.438400
    124    122    133     1   110.5600475 386.601600
    124    122    134     1   110.5600475 386.601600
    125    124    137     1   108.7700466 392.459200
    125    124    138     1   108.7700466 392.459200
    125    312    327     1   117.5500507 404.174400
    126    123    135     1   110.5600475 386.601600
    126    123    136     1   110.5600475 386.601600
    127    126    139     1   108.7700466 392.459200
    127    126    140     1   108.7700466 392.459200
    127    338    353     1   117.5500507 404.174400
    128    121    146     1   110.1100470 384.091200
    128    129    143     1   109.5600471 388.275200
    128    129    144     1   109.5600471 388.275200
    129    128    141     1   110.5600475 386.601600
    129    128    142     1   110.5600475 386.601600
    129    130    145     1   117.6800502 383.254400
    130    129    143     1   108.8800464 416.726400
    130    129    144     1   108.8800464 416.726400
    133    122    134     1   109.7500473 328.025600
    135    123    136     1   109.7500473 328.025600
    137    124    138     1   107.5800459 329.699200
    139    126    140     1   107.5800459 329.699200
    141    128    142     1   109.7500473 328.025600
    143    129    144     1   108.4600466 328.025600
    147    148    159     1   108.0100461 406.684800
    147    148    160     1   108.0100461 406.684800
    147    149    161     1   108.0100461 406.684800
    147    149    162     1   108.0100461 406.684800
    147    154    167     1   108.0100461 406.684800
    147    154    168     1   108.0100461 406.684800
    148    147    172     1   110.1100470 384.091200
    148    150    163     1   109.8000471 387.438400
    148    150    164     1   109.8000471 387.438400
    149    147    172     1   110.1100470 384.091200
    149    152    165     1   109.8000471 387.438400
    149    152    166     1   109.8000471 387.438400
    150    148    159     1   110.5600475 386.601600
    150    148    160     1   110.5600475 386.601600
    151    150    163     1   108.7700466 392.459200
    151    150    164     1   108.7700466 392.459200
    151    364    379     1   117.5500507 404.174400
    152    149    161     1   110.5600475 386.601600
    152    149    162     1   110.5600475 386.601600
    153    152    165     1   108.7700466 392.459200
    153    152    166     1   108.7700466 392.459200
    153    390    405     1   117.5500507 404.174400
    154    147    172     1   110.1100470 384.091200
    154    155    169     1   109.5600471 388.275200
    154    155    170     1   109.5600471 388.275200
    155    154    167     1   110.5600475 386.601600
    155    154    168     1   110.5600475 386.601600
    155    156    171     1   117.6800502 383.254400
    156    155    169     1   108.8800464 416.726400
    156    155    170     1   108.8800464 416.726400
    159    148    160     1   109.7500473 328.025600
    161    149    162     1   109.7500473 328.025600
    163    150    164     1   107.5800459 329.699200
    165    152    166     1   107.5800459 329.699200
    167    154    168     1   109.7500473 328.025600
    169    155    170     1   108.4600466 328.025600
    173    174    185     1   108.0100461 406.684800
    173    174    186     1   108.0100461 406.684800
    173    175    187     1   108.0100461 406.684800
    173    175    188     1   108.0100461 406.684800
    173    180    193     1   108.0100461 406.684800
    173    180    194     1   108.0100461 406.684800
    174    173    198     1   110.1100470 384.091200
    174    176    189     1   109.8000471 387.438400
    174    176    190     1   109.8000471 387.438400
    175    173    198     1   110.1100470 384.091200
    175    178    191     1   109.8000471 387.438400
    175    178    192     1   109.8000471 387.438400
    176    174    185     1   110.5600475 386.601600
    176    174    186     1   110.5600475 386.601600
    177    176    189     1   108.7700466 392.459200
    177    176    190     1   108.7700466 392.459200
    177    416    431     1   117.5500507 404.174400
    178    175    187     1   110.5600475 386.601600
    178    175    188     1   110.5600475 386.601600
    179    178    191     1   108.7700466 392.459200
    179    178    192     1   108.7700466 392.459200
    179    442    457     1   117.5500507 404.174400
    180    173    198     1   110.1100470 384.091200
    180    181    195     1   109.5600471 388.275200
    180    181    196     1   109.5600471 388.275200
    181    180    193     1   110.5600475 386.601600
    181    180    194     1   110.5600475 386.601600
    181    182    197     1   117.6800502 383.254400
    182    181    195     1   108.8800464 416.726400
    182    181    196     1   108.8800464 416.726400
    185    174    186     1   109.7500473 328.025600
    187    175    188     1   109.7500473 328.025600
    189    176    190     1   107.5800459 329.699200
    191    178    192     1   107.5800459 329.699200
    193    180    194     1   109.7500473 328.025600
    195    181    196     1   108.4600466 328.025600
    199    200    211     1   108.0100461 406.684800
    199    200    212     1   108.0100461 406.684800
    199    201    213     1   108.0100461 406.684800
    199    201    214     1   108.0100461 406.684800
    199    206    219     1   108.0100461 406.684800
    199    206    220     1   108.0100461 406.684800
    200    199    224     1   110.1100470 384.091200
    200    202    215     1   109.8000471 387.438400
    200    202    216     1   109.8000471 387.438400
    201    199    224     1   110.1100470 384.091200
    201    204    217     1   109.8000471 387.438400
    201    204    218     1   109.8000471 387.438400
    202    200    211     1   110.5600475 386.601600
    202    200    212     1   110.5600475 386.601600
    203    202    215     1   108.7700466 392.459200
    203    202    216     1   108.7700466 392.459200
    203    468    483     1   117.5500507 404.174400
    204    201    213     1   110.5600475 386.601600
    204    201    214     1   110.5600475 386.601600
    205    204    217     1   108.7700466 392.459200
    205    204    218     1   108.7700466 392.459200
    205    494    509     1   117.5500507 404.174400
    206    199    224     1   110.1100470 384.091200
    206    207    221     1   109.5600471 388.275200
    206    207    222     1   109.5600471 388.275200
    207    206    219     1   110.5600475 386.601600
    207    206    220     1   110.5600475 386.601600
    207    208    223     1   117.6800502 383.254400
    208    207    221     1   108.8800464 416.726400
    208    207    222     1   108.8800464 416.726400
    211    200    212     1   109.7500473 328.025600
    213    201    214     1   109.7500473 328.025600
    215    202    216     1   107.5800459 329.699200
    217    204    218     1   107.5800459 329.699200
    219    206    220     1   109.7500473 328.025600
    221    207    222     1   108.4600466 328.025600
    225    226    237     1   108.0100461 406.684800
    225    226    238     1   108.0100461 406.684800
    225    227    239     1   108.0100461 406.684800
    225    227    240     1   108.0100461 406.684800
    225    232    245     1   108.0100461 406.684800
    225    232    246     1   108.0100461 406.684800
    226    225    250     1   110.1100470 384.091200
    226    228    241     1   109.8000471 387.438400
    226    228    242     1   109.8000471 387.438400
    227    225    250     1   110.1100470 384.091200
    227    230    243     1   109.8000471 387.438400
    227    230    244     1   109.8000471 387.438400
    228    226    237     1   110.5600475 386.601600
    228    226    238     1   110.5600475 386.601600
    229    228    241     1   108.7700466 392.459200
    229    228    242     1   108.7700466 392.459200
    229    520    535     1   117.5500507 404.174400
    230    227    239     1   110.5600475 386.601600
    230    227    240     1   110.5600475 386.601600
    231    230    243     1   108.7700466 392.459200
    231    230    244     1   108.7700466 392.459200
    231    546    561     1   117.5500507 404.174400
    232    225    250     1   110.1100470 384.091200
    232    233    247     1   109.5600471 388.275200
    232    233    248     1   109.5600471 388.275200
    233    232    245     1   110.5600475 386.601600
    233    232    246     1   110.5600475 386.601600
    233    234    249     1   117.6800502 383.254400
    234    233    247     1   108.8800464 416.726400
    234    233    248     1   108.8800464 416.726400
    237    226    238     1   109.7500473 328.025600
    239    227    240     1   109.7500473 328.025600
    241    228    242     1   107.5800459 329.699200
    243    230    244     1   107.5800459 329.699200
    245    232    246     1   109.7500473 328.025600
    247    233    248     1   108.4600466 328.025600
    251    252    263     1   108.0100461 406.684800
    251    252    264     1   108.0100461 406.684800
    251    253    265     1   108.0100461 406.684800
    251    253    266     1   108.0100461 406.684800
    251    258    271     1   108.0100461 406.684800
    251    258    272     1   108.0100461 406.684800
    252    251    276     1   110.1100470 384.091200
    252    254    267     1   109.8000471 387.438400
    252    254    268     1   109.8000471 387.438400
    253    251    276     1   110.1100470 384.091200
    253    256    269     1   109.8000471 387.438400
    253    256    270     1   109.8000471 387.438400
    254    252    263     1   110.5600475 386.601600
    254    252    264     1   110.5600475 386.601600
    255    254    267     1   108.7700466 392.459200
    255    254    268     1   108.7700466 392.459200
    255    572    587     1   117.5500507 404.174400
    256    253    265     1   110.5600475 386.601600
    256    253    266     1   110.5600475 386.601600
    257    256    269     1   108.7700466 392.459200
    257    256    270     1   108.7700466 392.459200
    257    598    613     1   117.5500507 404.174400
    258    251    276     1   110.1100470 384.091200
    258    259    273     1   109.5600471 388.275200
    258    259    274     1   109.5600471 388.275200
    259    258    271     1   110.5600475 386.601600
    259    258    272     1   110.5600475 386.601600
    259    260    275     1   117.6800502 383.254400
    260    259    273     1   108.8800464 416.726400
    260    259    274     1   108.8800464 416.726400
    263    252    264     1   109.7500473 328.025600
    265    253    266     1   109.7500473 328.025600
    267    254    268     1   107.5800459 329.699200
    269    256    270     1   107.5800459 329.699200
    271    258    272     1   109.7500473 328.025600
    273    259    274     1   108.4600466 328.025600
    277    278    289     1   108.0100461 406.684800
    277    278    290     1   108.0100461 406.684800
    277    279    291     1   108.0100461 406.684800
    277    279    292     1   108.0100461 406.684800
    277    284    297     1   108.0100461 406.684800
    277    284    298     1   108.0100461 406.684800
    278    277    302     1   110.1100470 384.091200
    278    280    293     1   109.8000471 387.438400
    278    280    294     1   109.8000471 387.438400
    279    277    302     1   110.1100470 384.091200
    279    282    295     1   109.8000471 387.438400
    279    282    296     1   109.8000471 387.438400
    280    278    289     1   110.5600475 386.601600
    280    278    290     1   110.5600475 386.601600
    281    280    293     1   108.7700466 392.459200
    281    280    294     1   108.7700466 392.459200
    281    624    639     1   117.5500507 404.174400
    282    279    291     1   110.5600475 386.601600
    282    279    292     1   110.5600475 386.601600
    283    282    295     1   108.7700466 392.459200
    283    282    296     1   108.7700466 392.459200
    283    650    665     1   117.5500507 404.174400
    284    277    302     1   110.1100470 384.091200
    284    285    299     1   109.5600471 388.275200
    284    285    300     1   109.5600471 388.275200
    285    284    297     1   110.5600475 386.601600
    285    284    298     1   110.5600475 386.601600
    285    286    301     1   117.6800502 383.254400
    286    285    299     1   108.8800464 416.726400
    286    285    300     1   108.8800464 416.726400
    289    278    290     1   109.7500473 328.025600
    291    279    292     1   109.7500473 328.025600
    293    280    294     1   107.5800459 329.699200
    295    282    296     1   107.5800459 329.699200
    297    284    298     1   109.7500473 328.025600
    299    285    300     1   108.4600466 328.025600
    303    304    315     1   108.0100461 406.684800
    303    304    316     1   108.0100461 406.684800
    303    305    317     1   108.0100461 406.684800
    303    305    318     1   108.0100461 406.684800
    303    310    323     1   108.0100461 406.684800
    303    310    324     1   108.0100461 406.684800
    304    303    328     1   110.1100470 384.091200
    304    306    319     1   109.8000471 387.438400
    304    306    320     1   109.8000471 387.438400
    305    303    328     1   110.1100470 384.091200
    305    308    321     1   109.8000471 387.438400
    305    308    322     1   109.8000471 387.438400
    306    304    315     1   110.5600475 386.601600
    306    304    316     1   110.5600475 386.601600
    307    306    319     1   108.7700466 392.459200
    307    306    320     1   108.7700466 392.459200
    307    676    691     1   117.5500507 404.174400
    308    305    317     1   110.5600475 386.601600
    308    305    318     1   110.5600475 386.601600
    309    308    321     1   108.7700466 392.459200
    309    308    322     1   108.7700466 392.459200
    309    702    717     1   117.5500507 404.174400
    310    303    328     1   110.1100470 384.091200
    310    311    325     1   109.5600471 388.275200
    310    311    326     1   109.5600471 388.275200
    311    310    323     1   110.5600475 386.601600
    311    310    324     1   110.5600475 386.601600
    311    312    327     1   117.6800502 383.254400
    312    311    325     1   108.8800464 416.726400
    312    311    326     1   108.8800464 416.726400
    315    304    316     1   109.7500473 328.025600
    317    305    318     1   109.7500473 328.025600
    319    306    320     1   107.5800459 329.699200
    321    308    322     1   107.5800459 329.699200
    323    310    324     1   109.7500473 328.025600
    325    311    326     1   108.4600466 328.025600
    329    330    341     1   108.0100461 406.684800
    329    330    342     1   108.0100461 406.684800
    329    331    343     1   108.0100461 406.684800
    329    331    344     1   108.0100461 406.684800
    329    336    349     1   108.0100461 406.684800
    329    336    350     1   108.0100461 406.684800
    330    329    354     1   110.1100470 384.091200
    330    332    345     1   109.8000471 387.438400
    330    332    346     1   109.8000471 387.438400
    331    329    354     1   110.1100470 384.091200
    331    334    347     1   109.8000471 387.438400
    331    334    348     1   109.8000471 387.438400
    332    330    341     1   110.5600475 386.601600
    332    330    342     1   110.5600475 386.601600
    333    332    345     1   108.7700466 392.459200
    333    332    346     1   108.7700466 392.459200
    333    728    743     1   117.5500507 404.174400
    334    331    343     1   110.5600475 386.601600
    334    331    344     1   110.5600475 386.601600
    335    334    347     1   108.7700466 392.459200
    335    334    348     1   108.7700466 392.459200
    335    754    769     1   117.5500507 404.174400
    336    329    354     1   110.1100470 384.091200
    336    337    351     1   109.5600471 388.275200
    336    337    352     1   109.5600471 388.275200
    337    336    349     1   110.5600475 386.601600
    337    336    350     1   110.5600475 386.601600
    337    338    353     1   117.6800502 383.254400
    338    337    351     1   108.8800464 416.726400
    338    337    352     1   108.8800464 416.726400
    341    330    342     1   109.7500473 328.025600
    343    331    344     1   109.7500473 328.025600
    345    332    346     1   107.5800459 329.699200
    347    334    348     1   107.5800459 329.699200
    349    336    350     1   109.7500473 328.025600
    351    337    352     1   108.4600466 328.025600
    355    356    367     1   108.0100461 406.684800
    355    356    368     1   108.0100461 406.684800
    355    357    369     1   108.0100461 406.684800
    355    357    370     1   108.0100461 406.684800
    355    362    375     1   108.0100461 406.684800
    355    362    376     1   108.0100461 406.684800
    356    355    380     1   110.1100470 384.091200
    356    358    371     1   109.8000471 387.438400
    356    358    372     1   109.8000471 387.438400
    357    355    380     1   110.1100470 384.091200
    357    360    373     1   109.8000471 387.438400
    357    360    374     1   109.8000471 387.438400
    358    356    367     1   110.5600475 386.601600
    358    356    368     1   110.5600475 386.601600
    359    358    371     1   108.7700466 392.459200
    359    358    372     1   108.7700466 392.459200
    359    771    772     1   117.5500507 404.174400
    360    357    369     1   110.5600475 386.601600
    360    357    370     1   110.5600475 386.601600
    361    360    373     1   108.7700466 392.459200
    361    360    374     1   108.7700466 392.459200
    361    845    846     1   117.5500507 404.174400
    362    355    380     1   110.1100470 384.091200
    362    363    377     1   109.5600471 388.275200
    362    363    378     1   109.5600471 388.275200
    363    362    375     1   110.5600475 386.601600
    363    362    376     1   110.5600475 386.601600
    363    364    379     1   117.6800502 383.254400
    364    363    377     1   108.8800464 416.726400
    364    363    378     1   108.8800464 416.726400
    367    356    368     1   109.7500473 328.025600
    369    357    370     1   109.7500473 328.025600
    371    358    372     1   107.5800459 329.699200
    373    360    374     1   107.5800459 329.699200
    375    362    376     1   109.7500473 328.025600
    377    363    378     1   108.4600466 328.025600
    381    382    393     1   108.0100461 406.684800
    381    382    394     1   108.0100461 406.684800
    381    383    395     1   108.0100461 406.684800
    381    383    396     1   108.0100461 406.684800
    381    388    401     1   108.0100461 406.684800
    381    388    402     1   108.0100461 406.684800
    382    381    406     1   110.1100470 384.091200
    382    384    397     1   109.8000471 387.438400
    382    384    398     1   109.8000471 387.438400
    383    381    406     1   110.1100470 384.091200
    383    386    399     1   109.8000471 387.438400
    383    386    400     1   109.8000471 387.438400
    384    382    393     1   110.5600475 386.601600
    384    382    394     1   110.5600475 386.601600
    385    384    397     1   108.7700466 392.459200
    385    384    398     1   108.7700466 392.459200
    385    919    920     1   117.5500507 404.174400
    386    383    395     1   110.5600475 386.601600
    386    383    396     1   110.5600475 386.601600
    387    386    399     1   108.7700466 392.459200
    387    386    400     1   108.7700466 392.459200
    387    993    994     1   117.5500507 404.174400
    388    381    406     1   110.1100470 384.091200
    388    389    403     1   109.5600471 388.275200
    388    389    404     1   109.5600471 388.275200
    389    388    401     1   110.5600475 386.601600
    389    388    402     1   110.5600475 386.601600
    389    390    405     1   117.6800502 383.254400
    390    389    403     1   108.8800464 416.726400
    390    389    404     1   108.8800464 416.726400
    393    382    394     1   109.7500473 328.025600
    395    383    396     1   109.7500473 328.025600
    397    384    398     1   107.5800459 329.699200
    399    386    400     1   107.5800459 329.699200
    401    388    402     1   109.7500473 328.025600
    403    389    404     1   108.4600466 328.025600
    407    408    419     1   108.0100461 406.684800
    407    408    420     1   108.0100461 406.684800
    407    409    421     1   108.0100461 406.684800
    407    409    422     1   108.0100461 406.684800
    407    414    427     1   108.0100461 406.684800
    407    414    428     1   108.0100461 406.684800
    408    407    432     1   110.1100470 384.091200
    408    410    423     1   109.8000471 387.438400
    408    410    424     1   109.8000471 387.438400
    409    407    432     1   110.1100470 384.091200
    409    412    425     1   109.8000471 387.438400
    409    412    426     1   109.8000471 387.438400
    410    408    419     1   110.5600475 386.601600
    410    408    420     1   110.5600475 386.601600
    411    410    423     1   108.7700466 392.459200
    411    410    424     1   108.7700466 392.459200
    411   1067   1068     1   117.5500507 404.174400
    412    409    421     1   110.5600475 386.601600
    412    409    422     1   110.5600475 386.601600
    413    412    425     1   108.7700466 392.459200
    413    412    426     1   108.7700466 392.459200
    413   1141   1142     1   117.5500507 404.174400
    414    407    432     1   110.1100470 384.091200
    414    415    429     1   109.5600471 388.275200
    414    415    430     1   109.5600471 388.275200
    415    414    427     1   110.5600475 386.601600
    415    414    428     1   110.5600475 386.601600
    415    416    431     1   117.6800502 383.254400
    416    415    429     1   108.8800464 416.726400
    416    415    430     1   108.8800464 416.726400
    419    408    420     1   109.7500473 328.025600
    421    409    422     1   109.7500473 328.025600
    423    410    424     1   107.5800459 329.699200
    425    412    426     1   107.5800459 329.699200
    427    414    428     1   109.7500473 328.025600
    429    415    430     1   108.4600466 328.025600
    433    434    445     1   108.0100461 406.684800
    433    434    446     1   108.0100461 406.684800
    433    435    447     1   108.0100461 406.684800
    433    435    448     1   108.0100461 406.684800
    433    440    453     1   108.0100461 406.684800
    433    440    454     1   108.0100461 406.684800
    434    433    458     1   110.1100470 384.091200
    434    436    449     1   109.8000471 387.438400
    434    436    450     1   109.8000471 387.438400
    435    433    458     1   110.1100470 384.091200
    435    438    451     1   109.8000471 387.438400
    435    438    452     1   109.8000471 387.438400
    436    434    445     1   110.5600475 386.601600
    436    434    446     1   110.5600475 386.601600
    437    436    449     1   108.7700466 392.459200
    437    436    450     1   108.7700466 392.459200
    437   1215   1216     1   117.5500507 404.174400
    438    435    447     1   110.5600475 386.601600
    438    435    448     1   110.5600475 386.601600
    439    438    451     1   108.7700466 392.459200
    439    438    452     1   108.7700466 392.459200
    439   1289   1290     1   117.5500507 404.174400
    440    433    458     1   110.1100470 384.091200
    440    441    455     1   109.5600471 388.275200
    440    441    456     1   109.5600471 388.275200
    441    440    453     1   110.5600475 386.601600
    441    440    454     1   110.5600475 386.601600
    441    442    457     1   117.6800502 383.254400
    442    441    455     1   108.8800464 416.726400
    442    441    456     1   108.8800464 416.726400
    445    434    446     1   109.7500473 328.025600
    447    435    448     1   109.7500473 328.025600
    449    436    450     1   107.5800459 329.699200
    451    438    452     1   107.5800459 329.699200
    453    440    454     1   109.7500473 328.025600
    455    441    456     1   108.4600466 328.025600
    459    460    471     1   108.0100461 406.684800
    459    460    472     1   108.0100461 406.684800
    459    461    473     1   108.0100461 406.684800
    459    461    474     1   108.0100461 406.684800
    459    466    479     1   108.0100461 406.684800
    459    466    480     1   108.0100461 406.684800
    460    459    484     1   110.1100470 384.091200
    460    462    475     1   109.8000471 387.438400
    460    462    476     1   109.8000471 387.438400
    461    459    484     1   110.1100470 384.091200
    461    464    477     1   109.8000471 387.438400
    461    464    478     1   109.8000471 387.438400
    462    460    471     1   110.5600475 386.601600
    462    460    472     1   110.5600475 386.601600
    463    462    475     1   108.7700466 392.459200
    463    462    476     1   108.7700466 392.459200
    463   1363   1364     1   117.5500507 404.174400
    464    461    473     1   110.5600475 386.601600
    464    461    474     1   110.5600475 386.601600
    465    464    477     1   108.7700466 392.459200
    465    464    478     1   108.7700466 392.459200
    465   1437   1438     1   117.5500507 404.174400
    466    459    484     1   110.1100470 384.091200
    466    467    481     1   109.5600471 388.275200
    466    467    482     1   109.5600471 388.275200
    467    466    479     1   110.5600475 386.601600
    467    466    480     1   110.5600475 386.601600
    467    468    483     1   117.6800502 383.254400
    468    467    481     1   108.8800464 416.726400
    468    467    482     1   108.8800464 416.726400
    471    460    472     1   109.7500473 328.025600
    473    461    474     1   109.7500473 328.025600
    475    462    476     1   107.5800459 329.699200
    477    464    478     1   107.5800459 329.699200
    479    466    480     1   109.7500473 328.025600
    481    467    482     1   108.4600466 328.025600
    485    486    497     1   108.0100461 406.684800
    485    486    498     1   108.0100461 406.684800
    485    487    499     1   108.0100461 406.684800
    485    487    500     1   108.0100461 406.684800
    485    492    505     1   108.0100461 406.684800
    485    492    506     1   108.0100461 406.684800
    486    485    510     1   110.1100470 384.091200
    486    488    501     1   109.8000471 387.438400
    486    488    502     1   109.8000471 387.438400
    487    485    510     1   110.1100470 384.091200
    487    490    503     1   109.8000471 387.438400
    487    490    504     1   109.8000471 387.438400
    488    486    497     1   110.5600475 386.601600
    488    486    498     1   110.5600475 386.601600
    489    488    501     1   108.7700466 392.459200
    489    488    502     1   108.7700466 392.459200
    489   1511   1512     1   117.5500507 404.174400
    490    487    499     1   110.5600475 386.601600
    490    487    500     1   110.5600475 386.601600
    491    490    503     1   108.7700466 392.459200
    491    490    504     1   108.7700466 392.459200
    491   1585   1586     1   117.5500507 404.174400
    492    485    510     1   110.1100470 384.091200
    492    493    507     1   109.5600471 388.275200
    492    493    508     1   109.5600471 388.275200
    493    492    505     1   110.5600475 386.601600
    493    492    506     1   110.5600475 386.601600
    493    494    509     1   117.6800502 383.254400
    494    493    507     1   108.8800464 416.726400
    494    493    508     1   108.8800464 416.726400
    497    486    498     1   109.7500473 328.025600
    499    487    500     1   109.7500473 328.025600
    501    488    502     1   107.5800459 329.699200
    503    490    504     1   107.5800459 329.699200
    505    492    506     1   109.7500473 328.025600
    507    493    508     1   108.4600466 328.025600
    511    512    523     1   108.0100461 406.684800
    511    512    524     1   108.0100461 406.684800
    511    513    525     1   108.0100461 406.684800
    511    513    526     1   108.0100461 406.684800
    511    518    531     1   108.0100461 406.684800
    511    518    532     1   108.0100461 406.684800
    512    511    536     1   110.1100470 384.091200
    512    514    527     1   109.8000471 387.438400
    512    514    528     1   109.8000471 387.438400
    513    511    536     1   110.1100470 384.091200
    513    516    529     1   109.8000471 387.438400
    513    516    530     1   109.8000471 387.438400
    514    512    523     1   110.5600475 386.601600
    514    512    524     1   110.5600475 386.601600
    515    514    527     1   108.7700466 392.459200
    515    514    528     1   108.7700466 392.459200
    515   1659   1660     1   117.5500507 404.174400
    516    513    525     1   110.5600475 386.601600
    516    513    526     1   110.5600475 386.601600
    517    516    529     1   108.7700466 392.459200
    517    516    530     1   108.7700466 392.459200
    517   1733   1734     1   117.5500507 404.174400
    518    511    536     1   110.1100470 384.091200
    518    519    533     1   109.5600471 388.275200
    518    519    534     1   109.5600471 388.275200
    519    518    531     1   110.5600475 386.601600
    519    518    532     1   110.5600475 386.601600
    519    520    535     1   117.6800502 383.254400
    520    519    533     1   108.8800464 416.726400
    520    519    534     1   108.8800464 416.726400
    523    512    524     1   109.7500473 328.025600
    525    513    526     1   109.7500473 328.025600
    527    514    528     1   107.5800459 329.699200
    529    516    530     1   107.5800459 329.699200
    531    518    532     1   109.7500473 328.025600
    533    519    534     1   108.4600466 328.025600
    537    538    549     1   108.0100461 406.684800
    537    538    550     1   108.0100461 406.684800
    537    539    551     1   108.0100461 406.684800
    537    539    552     1   108.0100461 406.684800
    537    544    557     1   108.0100461 406.684800
    537    544    558     1   108.0100461 406.684800
    538    537    562     1   110.1100470 384.091200
    538    540    553     1   109.8000471 387.438400
    538    540    554     1   109.8000471 387.438400
    539    537    562     1   110.1100470 384.091200
    539    542    555     1   109.8000471 387.438400
    539    542    556     1   109.8000471 387.438400
    540    538    549     1   110.5600475 386.601600
    540    538    550     1   110.5600475 386.601600
    541    540    553     1   108.7700466 392.459200
    541    540    554     1   108.7700466 392.459200
    541   1807   1808     1   117.5500507 404.174400
    542    539    551     1   110.5600475 386.601600
    542    539    552     1   110.5600475 386.601600
    543    542    555     1   108.7700466 392.459200
    543    542    556     1   108.7700466 392.459200
    543   1881   1882     1   117.5500507 404.174400
    544    537    562     1   110.1100470 384.091200
    544    545    559     1   109.5600471 388.275200
    544    545    560     1   109.5600471 388.275200
    545    544    557     1   110.5600475 386.601600
    545    544    558     1   110.5600475 386.601600
    545    546    561     1   117.6800502 383.254400
    546    545    559     1   108.8800464 416.726400
    546    545    560     1   108.8800464 416.726400
    549    538    550     1   109.7500473 328.025600
    551    539    552     1   109.7500473 328.025600
    553    540    554     1   107.5800459 329.699200
    555    542    556     1   107.5800459 329.699200
    557    544    558     1   109.7500473 328.025600
    559    545    560     1   108.4600466 328.025600
    563    564    575     1   108.0100461 406.684800
    563    564    576     1   108.0100461 406.684800
    563    565    577     1   108.0100461 406.684800
    563    565    578     1   108.0100461 406.684800
    563    570    583     1   108.0100461 406.684800
    563    570    584     1   108.0100461 406.684800
    564    563    588     1   110.1100470 384.091200
    564    566    579     1   109.8000471 387.438400
    564    566    580     1   109.8000471 387.438400
    565    563    588     1   110.1100470 384.091200
    565    568    581     1   109.8000471 387.438400
    565    568    582     1   109.8000471 387.438400
    566    564    575     1   110.5600475 386.601600
    566    564    576     1   110.5600475 386.601600
    567    566    579     1   108.7700466 392.459200
    567    566    580     1   108.7700466 392.459200
    567   1955   1956     1   117.5500507 404.174400
    568    565    577     1   110.5600475 386.601600
    568    565    578     1   110.5600475 386.601600
    569    568    581     1   108.7700466 392.459200
    569    568    582     1   108.7700466 392.459200
    569   2029   2030     1   117.5500507 404.174400
    570    563    588     1   110.1100470 384.091200
    570    571    585     1   109.5600471 388.275200
    570    571    586     1   109.5600471 388.275200
    571    570    583     1   110.5600475 386.601600
    571    570    584     1   110.5600475 386.601600
    571    572    587     1   117.6800502 383.254400
    572    571    585     1   108.8800464 416.726400
    572    571    586     1   108.8800464 416.726400
    575    564    576     1   109.7500473 328.025600
    577    565    578     1   109.7500473 328.025600
    579    566    580     1   107.5800459 329.699200
    581    568    582     1   107.5800459 329.699200
    583    570    584     1   109.7500473 328.025600
    585    571    586     1   108.4600466 328.025600
    589    590    601     1   108.0100461 406.684800
    589    590    602     1   108.0100461 406.684800
    589    591    603     1   108.0100461 406.684800
    589    591    604     1   108.0100461 406.684800
    589    596    609     1   108.0100461 406.684800
    589    596    610     1   108.0100461 406.684800
    590    589    614     1   110.1100470 384.091200
    590    592    605     1   109.8000471 387.438400
    590    592    606     1   109.8000471 387.438400
    591    589    614     1   110.1100470 384.091200
    591    594    607     1   109.8000471 387.438400
    591    594    608     1   109.8000471 387.438400
    592    590    601     1   110.5600475 386.601600
    592    590    602     1   110.5600475 386.601600
    593    592    605     1   108.7700466 392.459200
    593    592    606     1   108.7700466 392.459200
    593   2103   2104     1   117.5500507 404.174400
    594    591    603     1   110.5600475 386.601600
    594    591    604     1   110.5600475 386.601600
    595    594    607     1   108.7700466 392.459200
    595    594    608     1   108.7700466 392.459200
    595   2177   2178     1   117.5500507 404.174400
    596    589    614     1   110.1100470 384.091200
    596    597    611     1   109.5600471 388.275200
    596    597    612     1   109.5600471 388.275200
    597    596    609     1   110.5600475 386.601600
    597    596    610     1   110.5600475 386.601600
    597    598    613     1   117.6800502 383.254400
    598    597    611     1   108.8800464 416.726400
    598    597    612     1   108.8800464 416.726400
    601    590    602     1   109.7500473 328.025600
    603    591    604     1   109.7500473 328.025600
    605    592    606     1   107.5800459 329.699200
    607    594    608     1   107.5800459 329.699200
    609    596    610     1   109.7500473 328.025600
    611    597    612     1   108.4600466 328.025600
    615    616    627     1   108.0100461 406.684800
    615    616    628     1   108.0100461 406.684800
    615    617    629     1   108.0100461 406.684800
    615    617    630     1   108.0100461 406.684800
    615    622    635     1   108.0100461 406.684800
    615    622    636     1   108.0100461 406.684800
    616    615    640     1   110.1100470 384.091200
    616    618    631     1   109.8000471 387.438400
    616    618    632     1   109.8000471 387.438400
    617    615    640     1   110.1100470 384.091200
    617    620    633     1   109.8000471 387.438400
    617    620    634     1   109.8000471 387.438400
    618    616    627     1   110.5600475 386.601600
    618    616    628     1   110.5600475 386.601600
    619    618    631     1   108.7700466 392.459200
    619    618    632     1   108.7700466 392.459200
    619   2251   2252     1   117.5500507 404.174400
    620    617    629     1   110.5600475 386.601600
    620    617    630     1   110.5600475 386.601600
    621    620    633     1   108.7700466 392.459200
    621    620    634     1   108.7700466 392.459200
    621   2325   2326     1   117.5500507 404.174400
    622    615    640     1   110.1100470 384.091200
    622    623    637     1   109.5600471 388.275200
    622    623    638     1   109.5600471 388.275200
    623    622    635     1   110.5600475 386.601600
    623    622    636     1   110.5600475 386.601600
    623    624    639     1   117.6800502 383.254400
    624    623    637     1   108.8800464 416.726400
    624    623    638     1   108.8800464 416.726400
    627    616    628     1   109.7500473 328.025600
    629    617    630     1   109.7500473 328.025600
    631    618    632     1   107.5800459 329.699200
    633    620    634     1   107.5800459 329.699200
    635    622    636     1   109.7500473 328.025600
    637    623    638     1   108.4600466 328.025600
    641    642    653     1   108.0100461 406.684800
    641    642    654     1   108.0100461 406.684800
    641    643    655     1   108.0100461 406.684800
    641    643    656     1   108.0100461 406.684800
    641    648    661     1   108.0100461 406.684800
    641    648    662     1   108.0100461 406.684800
    642    641    666     1   110.1100470 384.091200
    642    644    657     1   109.8000471 387.438400
    642    644    658     1   109.8000471 387.438400
    643    641    666     1   110.1100470 384.091200
    643    646    659     1   109.8000471 387.438400
    643    646    660     1   109.8000471 387.438400
    644    642    653     1   110.5600475 386.601600
    644    642    654     1   110.5600475 386.601600
    645    644    657     1   108.7700466 392.459200
    645    644    658     1   108.7700466 392.459200
    645   2399   2400     1   117.5500507 404.174400
    646    643    655     1   110.5600475 386.601600
    646    643    656     1   110.5600475 386.601600
    647    646    659     1   108.7700466 392.459200
    647    646    660     1   108.7700466 392.459200
    647   2473   2474     1   117.5500507 404.174400
    648    641    666     1   110.1100470 384.091200
    648    649    663     1   109.5600471 388.275200
    648    649    664     1   109.5600471 388.275200
    649    648    661     1   110.5600475 386.601600
    649    648    662     1   110.5600475 386.601600
    649    650    665     1   117.6800502 383.254400
    650    649    663     1   108.8800464 416.726400
    650    649    664     1   108.8800464 416.726400
    653    642    654     1   109.7500473 328.025600
    655    643    656     1   109.7500473 328.025600
    657    644    658     1   107.5800459 329.699200
    659    646    660     1   107.5800459 329.699200
    661    648    662     1   109.7500473 328.025600
    663    649    664     1   108.4600466 328.025600
    667    668    679     1   108.0100461 406.684800
    667    668    680     1   108.0100461 406.684800
    667    669    681     1   108.0100461 406.684800
    667    669    682     1   108.0100461 406.684800
    667    674    687     1   108.0100461 406.684800
    667    674    688     1   108.0100461 406.684800
    668    667    692     1   110.1100470 384.091200
    668    670    683     1   109.8000471 387.438400
    668    670    684     1   109.8000471 387.438400
    669    667    692     1   110.1100470 384.091200
    669    672    685     1   109.8000471 387.438400
    669    672    686     1   109.8000471 387.438400
    670    668    679     1   110.5600475 386.601600
    670    668    680     1   110.5600475 386.601600
    671    670    683     1   108.7700466 392.459200
    671    670    684     1   108.7700466 392.459200
    671   2547   2548     1   117.5500507 404.174400
    672    669    681     1   110.5600475 386.601600
    672    669    682     1   110.5600475 386.601600
    673    672    685     1   108.7700466 392.459200
    673    672    686     1   108.7700466 392.459200
    673   2621   2622     1   117.5500507 404.174400
    674    667    692     1   110.1100470 384.091200
    674    675    689     1   109.5600471 388.275200
    674    675    690     1   109.5600471 388.275200
    675    674    687     1   110.5600475 386.601600
    675    674    688     1   110.5600475 386.601600
    675    676    691     1   117.6800502 383.254400
    676    675    689     1   108.8800464 416.726400
    676    675    690     1   108.8800464 416.726400
    679    668    680     1   109.7500473 328.025600
    681    669    682     1   109.7500473 328.025600
    683    670    684     1   107.5800459 329.699200
    685    672    686     1   107.5800459 329.699200
    687    674    688     1   109.7500473 328.025600
    689    675    690     1   108.4600466 328.025600
    693    694    705     1   108.0100461 406.684800
    693    694    706     1   108.0100461 406.684800
    693    695    707     1   108.0100461 406.684800
    693    695    708     1   108.0100461 406.684800
    693    700    713     1   108.0100461 406.684800
    693    700    714     1   108.0100461 406.684800
    694    693    718     1   110.1100470 384.091200
    694    696    709     1   109.8000471 387.438400
    694    696    710     1   109.8000471 387.438400
    695    693    718     1   110.1100470 384.091200
    695    698    711     1   109.8000471 387.438400
    695    698    712     1   109.8000471 387.438400
    696    694    705     1   110.5600475 386.601600
    696    694    706     1   110.5600475 386.601600
    697    696    709     1   108.7700466 392.459200
    697    696    710     1   108.7700466 392.459200
    697   2695   2696     1   117.5500507 404.174400
    698    695    707     1   110.5600475 386.601600
    698    695    708     1   110.5600475 386.601600
    699    698    711     1   108.7700466 392.459200
    699    698    712     1   108.7700466 392.459200
    699   2769   2770     1   117.5500507 404.174400
    700    693    718     1   110.1100470 384.091200
    700    701    715     1   109.5600471 388.275200
    700    701    716     1   109.5600471 388.275200
    701    700    713     1   110.5600475 386.601600
    701    700    714     1   110.5600475 386.601600
    701    702    717     1   117.6800502 383.254400
    702    701    715     1   108.8800464 416.726400
    702    701    716     1   108.8800464 416.726400
    705    694    706     1   109.7500473 328.025600
    707    695    708     1   109.7500473 328.025600
    709    696    710     1   107.5800459 329.699200
    711    698    712     1   107.5800459 329.699200
    713    700    714     1   109.7500473 328.025600
    715    701    716     1   108.4600466 328.025600
    719    720    731     1   108.0100461 406.684800
    719    720    732     1   108.0100461 406.684800
    719    721    733     1   108.0100461 406.684800
    719    721    734     1   108.0100461 406.684800
    719    726    739     1   108.0100461 406.684800
    719    726    740     1   108.0100461 406.684800
    720    719    744     1   110.1100470 384.091200
    720    722    735     1   109.8000471 387.438400
    720    722    736     1   109.8000471 387.438400
    721    719    744     1   110.1100470 384.091200
    721    724    737     1   109.8000471 387.438400
    721    724    738     1   109.8000471 387.438400
    722    720    731     1   110.5600475 386.601600
    722    720    732     1   110.5600475 386.601600
    723    722    735     1   108.7700466 392.459200
    723    722    736     1   108.7700466 392.459200
    723   2843   2844     1   117.5500507 404.174400
    724    721    733     1   110.5600475 386.601600
    724    721    734     1   110.5600475 386.601600
    725    724    737     1   108.7700466 392.459200
    725    724    738     1   108.7700466 392.459200
    725   2917   2918     1   117.5500507 404.174400
    726    719    744     1   110.1100470 384.091200
    726    727    741     1   109.5600471 388.275200
    726    727    742     1   109.5600471 388.275200
    727    726    739     1   110.5600475 386.601600
    727    726    740     1   110.5600475 386.601600
    727    728    743     1   117.6800502 383.254400
    728    727    741     1   108.8800464 416.726400
    728    727    742     1   108.8800464 416.726400
    731    720    732     1   109.7500473 328.025600
    733    721    734     1   109.7500473 328.025600
    735    722    736     1   107.5800459 329.699200
    737    724    738     1   107.5800459 329.699200
    739    726    740     1   109.7500473 328.025600
    741    727    742     1   108.4600466 328.025600
    745    746    757     1   108.0100461 406.684800
    745    746    758     1   108.0100461 406.684800
    745    747    759     1   108.0100461 406.684800
    745    747    760     1   108.0100461 406.684800
    745    752    765     1   108.0100461 406.684800
    745    752    766     1   108.0100461 406.684800
    746    745    770     1   110.1100470 384.091200
    746    748    761     1   109.8000471 387.438400
    746    748    762     1   109.8000471 387.438400
    747    745    770     1   110.1100470 384.091200
    747    750    763     1   109.8000471 387.438400
    747    750    764     1   109.8000471 387.438400
    748    746    757     1   110.5600475 386.601600
    748    746    758     1   110.5600475 386.601600
    749    748    761     1   108.7700466 392.459200
    749    748    762     1   108.7700466 392.459200
    749   2991   2992     1   117.5500507 404.174400
    750    747    759     1   110.5600475 386.601600
    750    747    760     1   110.5600475 386.601600
    751    750    763     1   108.7700466 392.459200
    751    750    764     1   108.7700466 392.459200
    751   3065   3066     1   117.5500507 404.174400
    752    745    770     1   110.1100470 384.091200
    752    753    767     1   109.5600471 388.275200
    752    753    768     1   109.5600471 388.275200
    753    752    765     1   110.5600475 386.601600
    753    752    766     1   110.5600475 386.601600
    753    754    769     1   117.6800502 383.254400
    754    753    767     1   108.8800464 416.726400
    754    753    768     1   108.8800464 416.726400
    757    746    758     1   109.7500473 328.025600
    759    747    760     1   109.7500473 328.025600
    761    748    762     1   107.5800459 329.699200
    763    750    764     1   107.5800459 329.699200
    765    752    766     1   109.7500473 328.025600
    767    753    768     1   108.4600466 328.025600
    771    773    774     1   108.8800464 416.726400
    771    773    776     1   108.8800464 416.726400
    772    771    773     1   117.6800502 383.254400
    773    775    777     1   109.5600471 388.275200
    773    775    778     1   109.5600471 388.275200
    774    773    775     1   109.5600471 388.275200
    774    773    776     1   108.4600466 328.025600
    775    773    776     1   109.5600471 388.275200
    775    779    844     1   110.1100470 384.091200
    777    775    779     1   107.9000462 406.684800
    777    775    778     1   108.4600466 328.025600
    778    775    779     1   107.9000462 406.684800
    779    780    789     1   107.9000462 406.684800
    779    780    790     1   107.9000462 406.684800
    779    781    782     1   107.9000462 406.684800
    779    781    784     1   107.9000462 406.684800
    780    779    844     1   110.1100470 384.091200
    780    791    792     1   109.8000471 387.438400
    780    791    793     1   109.8000471 387.438400
    781    779    844     1   110.1100470 384.091200
    781    783    785     1   109.8000471 387.438400
    781    783    786     1   109.8000471 387.438400
    782    781    783     1   109.5600471 388.275200
    782    781    784     1   108.4600466 328.025600
    783    781    784     1   109.5600471 388.275200
    785    783    787     1   108.7700466 392.459200
    785    783    786     1   107.5800459 329.699200
    786    783    787     1   108.7700466 392.459200
    787    819    809     1   119.3800509 410.868800
    789    780    791     1   109.5600471 388.275200
    789    780    790     1   108.4600466 328.025600
    790    780    791     1   109.5600471 388.275200
    792    791    794     1   108.7700466 392.459200
    792    791    793     1   107.5800459 329.699200
    793    791    794     1   108.7700466 392.459200
    794    843    833     1   119.3800509 410.868800
    796    797    816     1   109.5600471 388.275200
    796    807    810     1   109.5600471 388.275200
    796    807    811     1   109.5600471 388.275200
    797    796    798     1   109.5600471 388.275200
    797    799    803     1   109.5600471 388.275200
    797    817    818     1   107.2600461 396.643200
    798    796    807     1   109.5600471 388.275200
    798    796    814     1   109.7800468 425.094400
    799    797    816     1   109.5600471 388.275200
    799    800    802     1   109.5600471 388.275200
    799    806    808     1   107.2600461 396.643200
    800    799    803     1   109.5600471 388.275200
    800    801    804     1   110.2200475 386.601600
    800    819    809     1   109.2900470 396.643200
    801    800    802     1   109.5600471 388.275200
    801    805    815     1   107.2600461 396.643200
    802    800    819     1   109.8800469 414.216000
    803    799    806     1   110.2600474 425.931200
    804    801    805     1   109.4300470 427.604800
    804    801    814     1   109.5800467 425.931200
    807    812    813     1   107.2600461 396.643200
    810    807    812     1   110.2600474 425.931200
    810    807    811     1   108.4600466 328.025600
    811    807    812     1   110.2600474 425.931200
    816    797    817     1   110.2600474 425.931200
    820    821    840     1   109.5600471 388.275200
    820    831    834     1   109.5600471 388.275200
    820    831    835     1   109.5600471 388.275200
    821    820    822     1   109.5600471 388.275200
    821    823    827     1   109.5600471 388.275200
    821    841    842     1   107.2600461 396.643200
    822    820    831     1   109.5600471 388.275200
    822    820    838     1   109.7800468 425.094400
    823    821    840     1   109.5600471 388.275200
    823    824    826     1   109.5600471 388.275200
    823    830    832     1   107.2600461 396.643200
    824    823    827     1   109.5600471 388.275200
    824    825    828     1   110.2200475 386.601600
    824    843    833     1   109.2900470 396.643200
    825    824    826     1   109.5600471 388.275200
    825    829    839     1   107.2600461 396.643200
    826    824    843     1   109.8800469 414.216000
    827    823    830     1   110.2600474 425.931200
    828    825    829     1   109.4300470 427.604800
    828    825    838     1   109.5800467 425.931200
    831    836    837     1   107.2600461 396.643200
    834    831    836     1   110.2600474 425.931200
    834    831    835     1   108.4600466 328.025600
    835    831    836     1   110.2600474 425.931200
    840    821    841     1   110.2600474 425.931200
    845    847    848     1   108.8800464 416.726400
    845    847    850     1   108.8800464 416.726400
    846    845    847     1   117.6800502 383.254400
    847    849    851     1   109.5600471 388.275200
    847    849    852     1   109.5600471 388.275200
    848    847    849     1   109.5600471 388.275200
    848    847    850     1   108.4600466 328.025600
    849    853    918     1   110.1100470 384.091200
    849    847    850     1   109.5600471 388.275200
    851    849    853     1   107.9000462 406.684800
    851    849    852     1   108.4600466 328.025600
    852    849    853     1   107.9000462 406.684800
    853    854    863     1   107.9000462 406.684800
    853    854    864     1   107.9000462 406.684800
    853    855    856     1   107.9000462 406.684800
    853    855    858     1   107.9000462 406.684800
    854    865    866     1   109.8000471 387.438400
    854    865    867     1   109.8000471 387.438400
    854    853    918     1   110.1100470 384.091200
    855    857    859     1   109.8000471 387.438400
    855    857    860     1   109.8000471 387.438400
    855    853    918     1   110.1100470 384.091200
    856    855    857     1   109.5600471 388.275200
    856    855    858     1   108.4600466 328.025600
    857    855    858     1   109.5600471 388.275200
    859    857    861     1   108.7700466 392.459200
    859    857    860     1   107.5800459 329.699200
    860    857    861     1   108.7700466 392.459200
    861    893    883     1   119.3800509 410.868800
    863    854    865     1   109.5600471 388.275200
    863    854    864     1   108.4600466 328.025600
    864    854    865     1   109.5600471 388.275200
    866    865    868     1   108.7700466 392.459200
    866    865    867     1   107.5800459 329.699200
    867    865    868     1   108.7700466 392.459200
    868    917    907     1   119.3800509 410.868800
    870    871    890     1   109.5600471 388.275200
    870    881    884     1   109.5600471 388.275200
    870    881    885     1   109.5600471 388.275200
    871    873    877     1   109.5600471 388.275200
    871    891    892     1   107.2600461 396.643200
    871    870    872     1   109.5600471 388.275200
    872    870    881     1   109.5600471 388.275200
    872    870    888     1   109.7800468 425.094400
    873    874    876     1   109.5600471 388.275200
    873    880    882     1   107.2600461 396.643200
    873    871    890     1   109.5600471 388.275200
    874    875    878     1   110.2200475 386.601600
    874    893    883     1   109.2900470 396.643200
    874    873    877     1   109.5600471 388.275200
    875    879    889     1   107.2600461 396.643200
    875    874    876     1   109.5600471 388.275200
    876    874    893     1   109.8800469 414.216000
    877    873    880     1   110.2600474 425.931200
    878    875    879     1   109.4300470 427.604800
    878    875    888     1   109.5800467 425.931200
    881    886    887     1   107.2600461 396.643200
    884    881    886     1   110.2600474 425.931200
    884    881    885     1   108.4600466 328.025600
    885    881    886     1   110.2600474 425.931200
    890    871    891     1   110.2600474 425.931200
    894    895    914     1   109.5600471 388.275200
    894    905    908     1   109.5600471 388.275200
    894    905    909     1   109.5600471 388.275200
    895    897    901     1   109.5600471 388.275200
    895    915    916     1   107.2600461 396.643200
    895    894    896     1   109.5600471 388.275200
    896    894    905     1   109.5600471 388.275200
    896    894    912     1   109.7800468 425.094400
    897    898    900     1   109.5600471 388.275200
    897    904    906     1   107.2600461 396.643200
    897    895    914     1   109.5600471 388.275200
    898    899    902     1   110.2200475 386.601600
    898    917    907     1   109.2900470 396.643200
    898    897    901     1   109.5600471 388.275200
    899    903    913     1   107.2600461 396.643200
    899    898    900     1   109.5600471 388.275200
    900    898    917     1   109.8800469 414.216000
    901    897    904     1   110.2600474 425.931200
    902    899    903     1   109.4300470 427.604800
    902    899    912     1   109.5800467 425.931200
    905    910    911     1   107.2600461 396.643200
    908    905    910     1   110.2600474 425.931200
    908    905    909     1   108.4600466 328.025600
    909    905    910     1   110.2600474 425.931200
    914    895    915     1   110.2600474 425.931200
    919    921    922     1   108.8800464 416.726400
    919    921    924     1   108.8800464 416.726400
    920    919    921     1   117.6800502 383.254400
    921    923    925     1   109.5600471 388.275200
    921    923    926     1   109.5600471 388.275200
    922    921    923     1   109.5600471 388.275200
    922    921    924     1   108.4600466 328.025600
    923    921    924     1   109.5600471 388.275200
    923    927    992     1   110.1100470 384.091200
    925    923    927     1   107.9000462 406.684800
    925    923    926     1   108.4600466 328.025600
    926    923    927     1   107.9000462 406.684800
    927    928    937     1   107.9000462 406.684800
    927    928    938     1   107.9000462 406.684800
    927    929    930     1   107.9000462 406.684800
    927    929    932     1   107.9000462 406.684800
    928    927    992     1   110.1100470 384.091200
    928    939    940     1   109.8000471 387.438400
    928    939    941     1   109.8000471 387.438400
    929    927    992     1   110.1100470 384.091200
    929    931    933     1   109.8000471 387.438400
    929    931    934     1   109.8000471 387.438400
    930    929    931     1   109.5600471 388.275200
    930    929    932     1   108.4600466 328.025600
    931    929    932     1   109.5600471 388.275200
    933    931    935     1   108.7700466 392.459200
    933    931    934     1   107.5800459 329.699200
    934    931    935     1   108.7700466 392.459200
    935    967    957     1   119.3800509 410.868800
    937    928    939     1   109.5600471 388.275200
    937    928    938     1   108.4600466 328.025600
    938    928    939     1   109.5600471 388.275200
    940    939    942     1   108.7700466 392.459200
    940    939    941     1   107.5800459 329.699200
    941    939    942     1   108.7700466 392.459200
    942    991    981     1   119.3800509 410.868800
    944    945    964     1   109.5600471 388.275200
    944    955    958     1   109.5600471 388.275200
    944    955    959     1   109.5600471 388.275200
    945    944    946     1   109.5600471 388.275200
    945    947    951     1   109.5600471 388.275200
    945    965    966     1   107.2600461 396.643200
    946    944    955     1   109.5600471 388.275200
    946    944    962     1   109.7800468 425.094400
    947    945    964     1   109.5600471 388.275200
    947    948    950     1   109.5600471 388.275200
    947    954    956     1   107.2600461 396.643200
    948    947    951     1   109.5600471 388.275200
    948    949    952     1   110.2200475 386.601600
    948    967    957     1   109.2900470 396.643200
    949    948    950     1   109.5600471 388.275200
    949    953    963     1   107.2600461 396.643200
    950    948    967     1   109.8800469 414.216000
    951    947    954     1   110.2600474 425.931200
    952    949    953     1   109.4300470 427.604800
    952    949    962     1   109.5800467 425.931200
    955    960    961     1   107.2600461 396.643200
    958    955    960     1   110.2600474 425.931200
    958    955    959     1   108.4600466 328.025600
    959    955    960     1   110.2600474 425.931200
    964    945    965     1   110.2600474 425.931200
    968    969    988     1   109.5600471 388.275200
    968    979    982     1   109.5600471 388.275200
    968    979    983     1   109.5600471 388.275200
    969    968    970     1   109.5600471 388.275200
    969    971    975     1   109.5600471 388.275200
    969    989    990     1   107.2600461 396.643200
    970    968    979     1   109.5600471 388.275200
    970    968    986     1   109.7800468 425.094400
    971    969    988     1   109.5600471 388.275200
    971    972    974     1   109.5600471 388.275200
    971    978    980     1   107.2600461 396.643200
    972    971    975     1   109.5600471 388.275200
    972    973    976     1   110.2200475 386.601600
    972    991    981     1   109.2900470 396.643200
    973    972    974     1   109.5600471 388.275200
    973    977    987     1   107.2600461 396.643200
    974    972    991     1   109.8800469 414.216000
    975    971    978     1   110.2600474 425.931200
    976    973    977     1   109.4300470 427.604800
    976    973    986     1   109.5800467 425.931200
    979    984    985     1   107.2600461 396.643200
    982    979    984     1   110.2600474 425.931200
    982    979    983     1   108.4600466 328.025600
    983    979    984     1   110.2600474 425.931200
    988    969    989     1   110.2600474 425.931200
    993    995    996     1   108.8800464 416.726400
    993    995    998     1   108.8800464 416.726400
    994    993    995     1   117.6800502 383.254400
    995    997    999     1   109.5600471 388.275200
    995    997   1000     1   109.5600471 388.275200
    996    995    997     1   109.5600471 388.275200
    996    995    998     1   108.4600466 328.025600
    997   1001   1066     1   110.1100470 384.091200
    997    995    998     1   109.5600471 388.275200
    999    997   1001     1   107.9000462 406.684800
    999    997   1000     1   108.4600466 328.025600
   1000    997   1001     1   107.9000462 406.684800
   1001   1002   1011     1   107.9000462 406.684800
   1001   1002   1012     1   107.9000462 406.684800
   1001   1003   1004     1   107.9000462 406.684800
   1001   1003   1006     1   107.9000462 406.684800
   1002   1013   1014     1   109.8000471 387.438400
   1002   1013   1015     1   109.8000471 387.438400
   1002   1001   1066     1   110.1100470 384.091200
   1003   1005   1007     1   109.8000471 387.438400
   1003   1005   1008     1   109.8000471 387.438400
   1003   1001   1066     1   110.1100470 384.091200
   1004   1003   1005     1   109.5600471 388.275200
   1004   1003   1006     1   108.4600466 328.025600
   1005   1003   1006     1   109.5600471 388.275200
   1007   1005   1009     1   108.7700466 392.459200
   1007   1005   1008     1   107.5800459 329.699200
   1008   1005   1009     1   108.7700466 392.459200
   1009   1041   1031     1   119.3800509 410.868800
   1011   1002   1013     1   109.5600471 388.275200
   1011   1002   1012     1   108.4600466 328.025600
   1012   1002   1013     1   109.5600471 388.275200
   1014   1013   1016     1   108.7700466 392.459200
   1014   1013   1015     1   107.5800459 329.699200
   1015   1013   1016     1   108.7700466 392.459200
   1016   1065   1055     1   119.3800509 410.868800
   1018   1019   1038     1   109.5600471 388.275200
   1018   1029   1032     1   109.5600471 388.275200
   1018   1029   1033     1   109.5600471 388.275200
   1019   1021   1025     1   109.5600471 388.275200
   1019   1039   1040     1   107.2600461 396.643200
   1019   1018   1020     1   109.5600471 388.275200
   1020   1018   1029     1   109.5600471 388.275200
   1020   1018   1036     1   109.7800468 425.094400
   1021   1022   1024     1   109.5600471 388.275200
   1021   1028   1030     1   107.2600461 396.643200
   1021   1019   1038     1   109.5600471 388.275200
   1022   1023   1026     1   110.2200475 386.601600
   1022   1041   1031     1   109.2900470 396.643200
   1022   1021   1025     1   109.5600471 388.275200
   1023   1027   1037     1   107.2600461 396.643200
   1023   1022   1024     1   109.5600471 388.275200
   1024   1022   1041     1   109.8800469 414.216000
   1025   1021   1028     1   110.2600474 425.931200
   1026   1023   1027     1   109.4300470 427.604800
   1026   1023   1036     1   109.5800467 425.931200
   1029   1034   1035     1   107.2600461 396.643200
   1032   1029   1034     1   110.2600474 425.931200
   1032   1029   1033     1   108.4600466 328.025600
   1033   1029   1034     1   110.2600474 425.931200
   1038   1019   1039     1   110.2600474 425.931200
   1042   1043   1062     1   109.5600471 388.275200
   1042   1053   1056     1   109.5600471 388.275200
   1042   1053   1057     1   109.5600471 388.275200
   1043   1045   1049     1   109.5600471 388.275200
   1043   1063   1064     1   107.2600461 396.643200
   1043   1042   1044     1   109.5600471 388.275200
   1044   1042   1053     1   109.5600471 388.275200
   1044   1042   1060     1   109.7800468 425.094400
   1045   1046   1048     1   109.5600471 388.275200
   1045   1052   1054     1   107.2600461 396.643200
   1045   1043   1062     1   109.5600471 388.275200
   1046   1047   1050     1   110.2200475 386.601600
   1046   1065   1055     1   109.2900470 396.643200
   1046   1045   1049     1   109.5600471 388.275200
   1047   1051   1061     1   107.2600461 396.643200
   1047   1046   1048     1   109.5600471 388.275200
   1048   1046   1065     1   109.8800469 414.216000
   1049   1045   1052     1   110.2600474 425.931200
   1050   1047   1051     1   109.4300470 427.604800
   1050   1047   1060     1   109.5800467 425.931200
   1053   1058   1059     1   107.2600461 396.643200
   1056   1053   1058     1   110.2600474 425.931200
   1056   1053   1057     1   108.4600466 328.025600
   1057   1053   1058     1   110.2600474 425.931200
   1062   1043   1063     1   110.2600474 425.931200
   1067   1069   1070     1   108.8800464 416.726400
   1067   1069   1072     1   108.8800464 416.726400
   1068   1067   1069     1   117.6800502 383.254400
   1069   1071   1073     1   109.5600471 388.275200
   1069   1071   1074     1   109.5600471 388.275200
   1070   1069   1071     1   109.5600471 388.275200
   1070   1069   1072     1   108.4600466 328.025600
   1071   1069   1072     1   109.5600471 388.275200
   1071   1075   1140     1   110.1100470 384.091200
   1073   1071   1075     1   107.9000462 406.684800
   1073   1071   1074     1   108.4600466 328.025600
   1074   1071   1075     1   107.9000462 406.684800
   1075   1076   1085     1   107.9000462 406.684800
   1075   1076   1086     1   107.9000462 406.684800
   1075   1077   1078     1   107.9000462 406.684800
   1075   1077   1080     1   107.9000462 406.684800
   1076   1075   1140     1   110.1100470 384.091200
   1076   1087   1088     1   109.8000471 387.438400
   1076   1087   1089     1   109.8000471 387.438400
   1077   1075   1140     1   110.1100470 384.091200
   1077   1079   1081     1   109.8000471 387.438400
   1077   1079   1082     1   109.8000471 387.438400
   1078   1077   1079     1   109.5600471 388.275200
   1078   1077   1080     1   108.4600466 328.025600
   1079   1077   1080     1   109.5600471 388.275200
   1081   1079   1083     1   108.7700466 392.459200
   1081   1079   1082     1   107.5800459 329.699200
   1082   1079   1083     1   108.7700466 392.459200
   1083   1115   1105     1   119.3800509 410.868800
   1085   1076   1087     1   109.5600471 388.275200
   1085   1076   1086     1   108.4600466 328.025600
   1086   1076   1087     1   109.5600471 388.275200
   1088   1087   1090     1   108.7700466 392.459200
   1088   1087   1089     1   107.5800459 329.699200
   1089   1087   1090     1   108.7700466 392.459200
   1090   1139   1129     1   119.3800509 410.868800
   1092   1093   1112     1   109.5600471 388.275200
   1092   1103   1106     1   109.5600471 388.275200
   1092   1103   1107     1   109.5600471 388.275200
   1093   1092   1094     1   109.5600471 388.275200
   1093   1095   1099     1   109.5600471 388.275200
   1093   1113   1114     1   107.2600461 396.643200
   1094   1092   1103     1   109.5600471 388.275200
   1094   1092   1110     1   109.7800468 425.094400
   1095   1093   1112     1   109.5600471 388.275200
   1095   1096   1098     1   109.5600471 388.275200
   1095   1102   1104     1   107.2600461 396.643200
   1096   1095   1099     1   109.5600471 388.275200
   1096   1097   1100     1   110.2200475 386.601600
   1096   1115   1105     1   109.2900470 396.643200
   1097   1096   1098     1   109.5600471 388.275200
   1097   1101   1111     1   107.2600461 396.643200
   1098   1096   1115     1   109.8800469 414.216000
   1099   1095   1102     1   110.2600474 425.931200
   1100   1097   1101     1   109.4300470 427.604800
   1100   1097   1110     1   109.5800467 425.931200
   1103   1108   1109     1   107.2600461 396.643200
   1106   1103   1108     1   110.2600474 425.931200
   1106   1103   1107     1   108.4600466 328.025600
   1107   1103   1108     1   110.2600474 425.931200
   1112   1093   1113     1   110.2600474 425.931200
   1116   1117   1136     1   109.5600471 388.275200
   1116   1127   1130     1   109.5600471 388.275200
   1116   1127   1131     1   109.5600471 388.275200
   1117   1116   1118     1   109.5600471 388.275200
   1117   1119   1123     1   109.5600471 388.275200
   1117   1137   1138     1   107.2600461 396.643200
   1118   1116   1127     1   109.5600471 388.275200
   1118   1116   1134     1   109.7800468 425.094400
   1119   1117   1136     1   109.5600471 388.275200
   1119   1120   1122     1   109.5600471 388.275200
   1119   1126   1128     1   107.2600461 396.643200
   1120   1119   1123     1   109.5600471 388.275200
   1120   1121   1124     1   110.2200475 386.601600
   1120   1139   1129     1   109.2900470 396.643200
   1121   1120   1122     1   109.5600471 388.275200
   1121   1125   1135     1   107.2600461 396.643200
   1122   1120   1139     1   109.8800469 414.216000
   1123   1119   1126     1   110.2600474 425.931200
   1124   1121   1125     1   109.4300470 427.604800
   1124   1121   1134     1   109.5800467 425.931200
   1127   1132   1133     1   107.2600461 396.643200
   1130   1127   1132     1   110.2600474 425.931200
   1130   1127   1131     1   108.4600466 328.025600
   1131   1127   1132     1   110.2600474 425.931200
   1136   1117   1137     1   110.2600474 425.931200
   1141   1143   1144     1   108.8800464 416.726400
   1141   1143   1146     1   108.8800464 416.726400
   1142   1141   1143     1   117.6800502 383.254400
   1143   1145   1147     1   109.5600471 388.275200
   1143   1145   1148     1   109.5600471 388.275200
   1144   1143   1145     1   109.5600471 388.275200
   1144   1143   1146     1   108.4600466 328.025600
   1145   1149   1214     1   110.1100470 384.091200
   1145   1143   1146     1   109.5600471 388.275200
   1147   1145   1149     1   107.9000462 406.684800
   1147   1145   1148     1   108.4600466 328.025600
   1148   1145   1149     1   107.9000462 406.684800
   1149   1150   1159     1   107.9000462 406.684800
   1149   1150   1160     1   107.9000462 406.684800
   1149   1151   1152     1   107.9000462 406.684800
   1149   1151   1154     1   107.9000462 406.684800
   1150   1161   1162     1   109.8000471 387.438400
   1150   1161   1163     1   109.8000471 387.438400
   1150   1149   1214     1   110.1100470 384.091200
   1151   1153   1155     1   109.8000471 387.438400
   1151   1153   1156     1   109.8000471 387.438400
   1151   1149   1214     1   110.1100470 384.091200
   1152   1151   1153     1   109.5600471 388.275200
   1152   1151   1154     1   108.4600466 328.025600
   1153   1151   1154     1   109.5600471 388.275200
   1155   1153   1157     1   108.7700466 392.459200
   1155   1153   1156     1   107.5800459 329.699200
   1156   1153   1157     1   108.7700466 392.459200
   1157   1189   1179     1   119.3800509 410.868800
   1159   1150   1161     1   109.5600471 388.275200
   1159   1150   1160     1   108.4600466 328.025600
   1160   1150   1161     1   109.5600471 388.275200
   1162   1161   1164     1   108.7700466 392.459200
   1162   1161   1163     1   107.5800459 329.699200
   1163   1161   1164     1   108.7700466 392.459200
   1164   1213   1203     1   119.3800509 410.868800
   1166   1167   1186     1   109.5600471 388.275200
   1166   1177   1180     1   109.5600471 388.275200
   1166   1177   1181     1   109.5600471 388.275200
   1167   1169   1173     1   109.5600471 388.275200
   1167   1187   1188     1   107.2600461 396.643200
   1167   1166   1168     1   109.5600471 388.275200
   1168   1166   1177     1   109.5600471 388.275200
   1168   1166   1184     1   109.7800468 425.094400
   1169   1170   1172     1   109.5600471 388.275200
   1169   1176   1178     1   107.2600461 396.643200
   1169   1167   1186     1   109.5600471 388.275200
   1170   1171   1174     1   110.2200475 386.601600
   1170   1189   1179     1   109.2900470 396.643200
   1170   1169   1173     1   109.5600471 388.275200
   1171   1175   1185     1   107.2600461 396.643200
   1171   1170   1172     1   109.5600471 388.275200
   1172   1170   1189     1   109.8800469 414.216000
   1173   1169   1176     1   110.2600474 425.931200
   1174   1171   1175     1   109.4300470 427.604800
   1174   1171   1184     1   109.5800467 425.931200
   1177   1182   1183     1   107.2600461 396.643200
   1180   1177   1182     1   110.2600474 425.931200
   1180   1177   1181     1   108.4600466 328.025600
   1181   1177   1182     1   110.2600474 425.931200
   1186   1167   1187     1   110.2600474 425.931200
   1190   1191   1210     1   109.5600471 388.275200
   1190   1201   1204     1   109.5600471 388.275200
   1190   1201   1205     1   109.5600471 388.275200
   1191   1193   1197     1   109.5600471 388.275200
   1191   1211   1212     1   107.2600461 396.643200
   1191   1190   1192     1   109.5600471 388.275200
   1192   1190   1201     1   109.5600471 388.275200
   1192   1190   1208     1   109.7800468 425.094400
   1193   1194   1196     1   109.5600471 388.275200
   1193   1200   1202     1   107.2600461 396.643200
   1193   1191   1210     1   109.5600471 388.275200
   1194   1195   1198     1   110.2200475 386.601600
   1194   1213   1203     1   109.2900470 396.643200
   1194   1193   1197     1   109.5600471 388.275200
   1195   1199   1209     1   107.2600461 396.643200
   1195   1194   1196     1   109.5600471 388.275200
   1196   1194   1213     1   109.8800469 414.216000
   1197   1193   1200     1   110.2600474 425.931200
   1198   1195   1199     1   109.4300470 427.604800
   1198   1195   1208     1   109.5800467 425.931200
   1201   1206   1207     1   107.2600461 396.643200
   1204   1201   1206     1   110.2600474 425.931200
   1204   1201   1205     1   108.4600466 328.025600
   1205   1201   1206     1   110.2600474 425.931200
   1210   1191   1211     1   110.2600474 425.931200
   1215   1217   1218     1   108.8800464 416.726400
   1215   1217   1220     1   108.8800464 416.726400
   1216   1215   1217     1   117.6800502 383.254400
   1217   1219   1221     1   109.5600471 388.275200
   1217   1219   1222     1   109.5600471 388.275200
   1218   1217   1219     1   109.5600471 388.275200
   1218   1217   1220     1   108.4600466 328.025600
   1219   1217   1220     1   109.5600471 388.275200
   1219   1223   1288     1   110.1100470 384.091200
   1221   1219   1223     1   107.9000462 406.684800
   1221   1219   1222     1   108.4600466 328.025600
   1222   1219   1223     1   107.9000462 406.684800
   1223   1224   1233     1   107.9000462 406.684800
   1223   1224   1234     1   107.9000462 406.684800
   1223   1225   1226     1   107.9000462 406.684800
   1223   1225   1228     1   107.9000462 406.684800
   1224   1223   1288     1   110.1100470 384.091200
   1224   1235   1236     1   109.8000471 387.438400
   1224   1235   1237     1   109.8000471 387.438400
   1225   1223   1288     1   110.1100470 384.091200
   1225   1227   1229     1   109.8000471 387.438400
   1225   1227   1230     1   109.8000471 387.438400
   1226   1225   1227     1   109.5600471 388.275200
   1226   1225   1228     1   108.4600466 328.025600
   1227   1225   1228     1   109.5600471 388.275200
   1229   1227   1231     1   108.7700466 392.459200
   1229   1227   1230     1   107.5800459 329.699200
   1230   1227   1231     1   108.7700466 392.459200
   1231   1263   1253     1   119.3800509 410.868800
   1233   1224   1235     1   109.5600471 388.275200
   1233   1224   1234     1   108.4600466 328.025600
   1234   1224   1235     1   109.5600471 388.275200
   1236   1235   1238     1   108.7700466 392.459200
   1236   1235   1237     1   107.5800459 329.699200
   1237   1235   1238     1   108.7700466 392.459200
   1238   1287   1277     1   119.3800509 410.868800
   1240   1241   1260     1   109.5600471 388.275200
   1240   1251   1254     1   109.5600471 388.275200
   1240   1251   1255     1   109.5600471 388.275200
   1241   1240   1242     1   109.5600471 388.275200
   1241   1243   1247     1   109.5600471 388.275200
   1241   1261   1262     1   107.2600461 396.643200
   1242   1240   1251     1   109.5600471 388.275200
   1242   1240   1258     1   109.7800468 425.094400
   1243   1241   1260     1   109.5600471 388.275200
   1243   1244   1246     1   109.5600471 388.275200
   1243   1250   1252     1   107.2600461 396.643200
   1244   1243   1247     1   109.5600471 388.275200
   1244   1245   1248     1   110.2200475 386.601600
   1244   1263   1253     1   109.2900470 396.643200
   1245   1244   1246     1   109.5600471 388.275200
   1245   1249   1259     1   107.2600461 396.643200
   1246   1244   1263     1   109.8800469 414.216000
   1247   1243   1250     1   110.2600474 425.931200
   1248   1245   1249     1   109.4300470 427.604800
   1248   1245   1258     1   109.5800467 425.931200
   1251   1256   1257     1   107.2600461 396.643200
   1254   1251   1256     1   110.2600474 425.931200
   1254   1251   1255     1   108.4600466 328.025600
   1255   1251   1256     1   110.2600474 425.931200
   1260   1241   1261     1   110.2600474 425.931200
   1264   1265   1284     1   109.5600471 388.275200
   1264   1275   1278     1   109.5600471 388.275200
   1264   1275   1279     1   109.5600471 388.275200
   1265   1264   1266     1   109.5600471 388.275200
   1265   1267   1271     1   109.5600471 388.275200
   1265   1285   1286     1   107.2600461 396.643200
   1266   1264   1275     1   109.5600471 388.275200
   1266   1264   1282     1   109.7800468 425.094400
   1267   1265   1284     1   109.5600471 388.275200
   1267   1268   1270     1   109.5600471 388.275200
   1267   1274   1276     1   107.2600461 396.643200
   1268   1267   1271     1   109.5600471 388.275200
   1268   1269   1272     1   110.2200475 386.601600
   1268   1287   1277     1   109.2900470 396.643200
   1269   1268   1270     1   109.5600471 388.275200
   1269   1273   1283     1   107.2600461 396.643200
   1270   1268   1287     1   109.8800469 414.216000
   1271   1267   1274     1   110.2600474 425.931200
   1272   1269   1273     1   109.4300470 427.604800
   1272   1269   1282     1   109.5800467 425.931200
   1275   1280   1281     1   107.2600461 396.643200
   1278   1275   1280     1   110.2600474 425.931200
   1278   1275   1279     1   108.4600466 328.025600
   1279   1275   1280     1   110.2600474 425.931200
   1284   1265   1285     1   110.2600474 425.931200
   1289   1291   1292     1   108.8800464 416.726400
   1289   1291   1294     1   108.8800464 416.726400
   1290   1289   1291     1   117.6800502 383.254400
   1291   1293   1295     1   109.5600471 388.275200
   1291   1293   1296     1   109.5600471 388.275200
   1292   1291   1293     1   109.5600471 388.275200
   1292   1291   1294     1   108.4600466 328.025600
   1293   1297   1362     1   110.1100470 384.091200
   1293   1291   1294     1   109.5600471 388.275200
   1295   1293   1297     1   107.9000462 406.684800
   1295   1293   1296     1   108.4600466 328.025600
   1296   1293   1297     1   107.9000462 406.684800
   1297   1298   1307     1   107.9000462 406.684800
   1297   1298   1308     1   107.9000462 406.684800
   1297   1299   1300     1   107.9000462 406.684800
   1297   1299   1302     1   107.9000462 406.684800
   1298   1309   1310     1   109.8000471 387.438400
   1298   1309   1311     1   109.8000471 387.438400
   1298   1297   1362     1   110.1100470 384.091200
   1299   1301   1303     1   109.8000471 387.438400
   1299   1301   1304     1   109.8000471 387.438400
   1299   1297   1362     1   110.1100470 384.091200
   1300   1299   1301     1   109.5600471 388.275200
   1300   1299   1302     1   108.4600466 328.025600
   1301   1299   1302     1   109.5600471 388.275200
   1303   1301   1305     1   108.7700466 392.459200
   1303   1301   1304     1   107.5800459 329.699200
   1304   1301   1305     1   108.7700466 392.459200
   1305   1337   1327     1   119.3800509 410.868800
   1307   1298   1309     1   109.5600471 388.275200
   1307   1298   1308     1   108.4600466 328.025600
   1308   1298   1309     1   109.5600471 388.275200
   1310   1309   1312     1   108.7700466 392.459200
   1310   1309   1311     1   107.5800459 329.699200
   1311   1309   1312     1   108.7700466 392.459200
   1312   1361   1351     1   119.3800509 410.868800
   1314   1315   1334     1   109.5600471 388.275200
   1314   1325   1328     1   109.5600471 388.275200
   1314   1325   1329     1   109.5600471 388.275200
   1315   1317   1321     1   109.5600471 388.275200
   1315   1335   1336     1   107.2600461 396.643200
   1315   1314   1316     1   109.5600471 388.275200
   1316   1314   1325     1   109.5600471 388.275200
   1316   1314   1332     1   109.7800468 425.094400
   1317   1318   1320     1   109.5600471 388.275200
   1317   1324   1326     1   107.2600461 396.643200
   1317   1315   1334     1   109.5600471 388.275200
   1318   1319   1322     1   110.2200475 386.601600
   1318   1337   1327     1   109.2900470 396.643200
   1318   1317   1321     1   109.5600471 388.275200
   1319   1323   1333     1   107.2600461 396.643200
   1319   1318   1320     1   109.5600471 388.275200
   1320   1318   1337     1   109.8800469 414.216000
   1321   1317   1324     1   110.2600474 425.931200
   1322   1319   1323     1   109.4300470 427.604800
   1322   1319   1332     1   109.5800467 425.931200
   1325   1330   1331     1   107.2600461 396.643200
   1328   1325   1330     1   110.2600474 425.931200
   1328   1325   1329     1   108.4600466 328.025600
   1329   1325   1330     1   110.2600474 425.931200
   1334   1315   1335     1   110.2600474 425.931200
   1338   1339   1358     1   109.5600471 388.275200
   1338   1349   1352     1   109.5600471 388.275200
   1338   1349   1353     1   109.5600471 388.275200
   1339   1341   1345     1   109.5600471 388.275200
   1339   1359   1360     1   107.2600461 396.643200
   1339   1338   1340     1   109.5600471 388.275200
   1340   1338   1349     1   109.5600471 388.275200
   1340   1338   1356     1   109.7800468 425.094400
   1341   1342   1344     1   109.5600471 388.275200
   1341   1348   1350     1   107.2600461 396.643200
   1341   1339   1358     1   109.5600471 388.275200
   1342   1343   1346     1   110.2200475 386.601600
   1342   1361   1351     1   109.2900470 396.643200
   1342   1341   1345     1   109.5600471 388.275200
   1343   1347   1357     1   107.2600461 396.643200
   1343   1342   1344     1   109.5600471 388.275200
   1344   1342   1361     1   109.8800469 414.216000
   1345   1341   1348     1   110.2600474 425.931200
   1346   1343   1347     1   109.4300470 427.604800
   1346   1343   1356     1   109.5800467 425.931200
   1349   1354   1355     1   107.2600461 396.643200
   1352   1349   1354     1   110.2600474 425.931200
   1352   1349   1353     1   108.4600466 328.025600
   1353   1349   1354     1   110.2600474 425.931200
   1358   1339   1359     1   110.2600474 425.931200
   1363   1365   1366     1   108.8800464 416.726400
   1363   1365   1368     1   108.8800464 416.726400
   1364   1363   1365     1   117.6800502 383.254400
   1365   1367   1369     1   109.5600471 388.275200
   1365   1367   1370     1   109.5600471 388.275200
   1366   1365   1367     1   109.5600471 388.275200
   1366   1365   1368     1   108.4600466 328.025600
   1367   1365   1368     1   109.5600471 388.275200
   1367   1371   1436     1   110.1100470 384.091200
   1369   1367   1371     1   107.9000462 406.684800
   1369   1367   1370     1   108.4600466 328.025600
   1370   1367   1371     1   107.9000462 406.684800
   1371   1372   1381     1   107.9000462 406.684800
   1371   1372   1382     1   107.9000462 406.684800
   1371   1373   1374     1   107.9000462 406.684800
   1371   1373   1376     1   107.9000462 406.684800
   1372   1371   1436     1   110.1100470 384.091200
   1372   1383   1384     1   109.8000471 387.438400
   1372   1383   1385     1   109.8000471 387.438400
   1373   1371   1436     1   110.1100470 384.091200
   1373   1375   1377     1   109.8000471 387.438400
   1373   1375   1378     1   109.8000471 387.438400
   1374   1373   1375     1   109.5600471 388.275200
   1374   1373   1376     1   108.4600466 328.025600
   1375   1373   1376     1   109.5600471 388.275200
   1377   1375   1379     1   108.7700466 392.459200
   1377   1375   1378     1   107.5800459 329.699200
   1378   1375   1379     1   108.7700466 392.459200
   1379   1411   1401     1   119.3800509 410.868800
   1381   1372   1383     1   109.5600471 388.275200
   1381   1372   1382     1   108.4600466 328.025600
   1382   1372   1383     1   109.5600471 388.275200
   1384   1383   1386     1   108.7700466 392.459200
   1384   1383   1385     1   107.5800459 329.699200
   1385   1383   1386     1   108.7700466 392.459200
   1386   1435   1425     1   119.3800509 410.868800
   1388   1389   1408     1   109.5600471 388.275200
   1388   1399   1402     1   109.5600471 388.275200
   1388   1399   1403     1   109.5600471 388.275200
   1389   1388   1390     1   109.5600471 388.275200
   1389   1391   1395     1   109.5600471 388.275200
   1389   1409   1410     1   107.2600461 396.643200
   1390   1388   1399     1   109.5600471 388.275200
   1390   1388   1406     1   109.7800468 425.094400
   1391   1389   1408     1   109.5600471 388.275200
   1391   1392   1394     1   109.5600471 388.275200
   1391   1398   1400     1   107.2600461 396.643200
   1392   1391   1395     1   109.5600471 388.275200
   1392   1393   1396     1   110.2200475 386.601600
   1392   1411   1401     1   109.2900470 396.643200
   1393   1392   1394     1   109.5600471 388.275200
   1393   1397   1407     1   107.2600461 396.643200
   1394   1392   1411     1   109.8800469 414.216000
   1395   1391   1398     1   110.2600474 425.931200
   1396   1393   1397     1   109.4300470 427.604800
   1396   1393   1406     1   109.5800467 425.931200
   1399   1404   1405     1   107.2600461 396.643200
   1402   1399   1404     1   110.2600474 425.931200
   1402   1399   1403     1   108.4600466 328.025600
   1403   1399   1404     1   110.2600474 425.931200
   1408   1389   1409     1   110.2600474 425.931200
   1412   1413   1432     1   109.5600471 388.275200
   1412   1423   1426     1   109.5600471 388.275200
   1412   1423   1427     1   109.5600471 388.275200
   1413   1412   1414     1   109.5600471 388.275200
   1413   1415   1419     1   109.5600471 388.275200
   1413   1433   1434     1   107.2600461 396.643200
   1414   1412   1423     1   109.5600471 388.275200
   1414   1412   1430     1   109.7800468 425.094400
   1415   1413   1432     1   109.5600471 388.275200
   1415   1416   1418     1   109.5600471 388.275200
   1415   1422   1424     1   107.2600461 396.643200
   1416   1415   1419     1   109.5600471 388.275200
   1416   1417   1420     1   110.2200475 386.601600
   1416   1435   1425     1   109.2900470 396.643200
   1417   1416   1418     1   109.5600471 388.275200
   1417   1421   1431     1   107.2600461 396.643200
   1418   1416   1435     1   109.8800469 414.216000
   1419   1415   1422     1   110.2600474 425.931200
   1420   1417   1421     1   109.4300470 427.604800
   1420   1417   1430     1   109.5800467 425.931200
   1423   1428   1429     1   107.2600461 396.643200
   1426   1423   1428     1   110.2600474 425.931200
   1426   1423   1427     1   108.4600466 328.025600
   1427   1423   1428     1   110.2600474 425.931200
   1432   1413   1433     1   110.2600474 425.931200
   1437   1439   1440     1   108.8800464 416.726400
   1437   1439   1442     1   108.8800464 416.726400
   1438   1437   1439     1   117.6800502 383.254400
   1439   1441   1443     1   109.5600471 388.275200
   1439   1441   1444     1   109.5600471 388.275200
   1440   1439   1441     1   109.5600471 388.275200
   1440   1439   1442     1   108.4600466 328.025600
   1441   1445   1510     1   110.1100470 384.091200
   1441   1439   1442     1   109.5600471 388.275200
   1443   1441   1445     1   107.9000462 406.684800
   1443   1441   1444     1   108.4600466 328.025600
   1444   1441   1445     1   107.9000462 406.684800
   1445   1446   1455     1   107.9000462 406.684800
   1445   1446   1456     1   107.9000462 406.684800
   1445   1447   1448     1   107.9000462 406.684800
   1445   1447   1450     1   107.9000462 406.684800
   1446   1457   1458     1   109.8000471 387.438400
   1446   1457   1459     1   109.8000471 387.438400
   1446   1445   1510     1   110.1100470 384.091200
   1447   1449   1451     1   109.8000471 387.438400
   1447   1449   1452     1   109.8000471 387.438400
   1447   1445   1510     1   110.1100470 384.091200
   1448   1447   1449     1   109.5600471 388.275200
   1448   1447   1450     1   108.4600466 328.025600
   1449   1447   1450     1   109.5600471 388.275200
   1451   1449   1453     1   108.7700466 392.459200
   1451   1449   1452     1   107.5800459 329.699200
   1452   1449   1453     1   108.7700466 392.459200
   1453   1485   1475     1   119.3800509 410.868800
   1455   1446   1457     1   109.5600471 388.275200
   1455   1446   1456     1   108.4600466 328.025600
   1456   1446   1457     1   109.5600471 388.275200
   1458   1457   1460     1   108.7700466 392.459200
   1458   1457   1459     1   107.5800459 329.699200
   1459   1457   1460     1   108.7700466 392.459200
   1460   1509   1499     1   119.3800509 410.868800
   1462   1463   1482     1   109.5600471 388.275200
   1462   1473   1476     1   109.5600471 388.275200
   1462   1473   1477     1   109.5600471 388.275200
   1463   1465   1469     1   109.5600471 388.275200
   1463   1483   1484     1   107.2600461 396.643200
   1463   1462   1464     1   109.5600471 388.275200
   1464   1462   1473     1   109.5600471 388.275200
   1464   1462   1480     1   109.7800468 425.094400
   1465   1466   1468     1   109.5600471 388.275200
   1465   1472   1474     1   107.2600461 396.643200
   1465   1463   1482     1   109.5600471 388.275200
   1466   1467   1470     1   110.2200475 386.601600
   1466   1485   1475     1   109.2900470 396.643200
   1466   1465   1469     1   109.5600471 388.275200
   1467   1471   1481     1   107.2600461 396.643200
   1467   1466   1468     1   109.5600471 388.275200
   1468   1466   1485     1   109.8800469 414.216000
   1469   1465   1472     1   110.2600474 425.931200
   1470   1467   1471     1   109.4300470 427.604800
   1470   1467   1480     1   109.5800467 425.931200
   1473   1478   1479     1   107.2600461 396.643200
   1476   1473   1478     1   110.2600474 425.931200
   1476   1473   1477     1   108.4600466 328.025600
   1477   1473   1478     1   110.2600474 425.931200
   1482   1463   1483     1   110.2600474 425.931200
   1486   1487   1506     1   109.5600471 388.275200
   1486   1497   1500     1   109.5600471 388.275200
   1486   1497   1501     1   109.5600471 388.275200
   1487   1489   1493     1   109.5600471 388.275200
   1487   1507   1508     1   107.2600461 396.643200
   1487   1486   1488     1   109.5600471 388.275200
   1488   1486   1497     1   109.5600471 388.275200
   1488   1486   1504     1   109.7800468 425.094400
   1489   1490   1492     1   109.5600471 388.275200
   1489   1496   1498     1   107.2600461 396.643200
   1489   1487   1506     1   109.5600471 388.275200
   1490   1491   1494     1   110.2200475 386.601600
   1490   1509   1499     1   109.2900470 396.643200
   1490   1489   1493     1   109.5600471 388.275200
   1491   1495   1505     1   107.2600461 396.643200
   1491   1490   1492     1   109.5600471 388.275200
   1492   1490   1509     1   109.8800469 414.216000
   1493   1489   1496     1   110.2600474 425.931200
   1494   1491   1495     1   109.4300470 427.604800
   1494   1491   1504     1   109.5800467 425.931200
   1497   1502   1503     1   107.2600461 396.643200
   1500   1497   1502     1   110.2600474 425.931200
   1500   1497   1501     1   108.4600466 328.025600
   1501   1497   1502     1   110.2600474 425.931200
   1506   1487   1507     1   110.2600474 425.931200
   1511   1513   1514     1   108.8800464 416.726400
   1511   1513   1516     1   108.8800464 416.726400
   1512   1511   1513     1   117.6800502 383.254400
   1513   1515   1517     1   109.5600471 388.275200
   1513   1515   1518     1   109.5600471 388.275200
   1514   1513   1515     1   109.5600471 388.275200
   1514   1513   1516     1   108.4600466 328.025600
   1515   1513   1516     1   109.5600471 388.275200
   1515   1519   1584     1   110.1100470 384.091200
   1517   1515   1519     1   107.9000462 406.684800
   1517   1515   1518     1   108.4600466 328.025600
   1518   1515   1519     1   107.9000462 406.684800
   1519   1520   1529     1   107.9000462 406.684800
   1519   1520   1530     1   107.9000462 406.684800
   1519   1521   1522     1   107.9000462 406.684800
   1519   1521   1524     1   107.9000462 406.684800
   1520   1519   1584     1   110.1100470 384.091200
   1520   1531   1532     1   109.8000471 387.438400
   1520   1531   1533     1   109.8000471 387.438400
   1521   1519   1584     1   110.1100470 384.091200
   1521   1523   1525     1   109.8000471 387.438400
   1521   1523   1526     1   109.8000471 387.438400
   1522   1521   1523     1   109.5600471 388.275200
   1522   1521   1524     1   108.4600466 328.025600
   1523   1521   1524     1   109.5600471 388.275200
   1525   1523   1527     1   108.7700466 392.459200
   1525   1523   1526     1   107.5800459 329.699200
   1526   1523   1527     1   108.7700466 392.459200
   1527   1559   1549     1   119.3800509 410.868800
   1529   1520   1531     1   109.5600471 388.275200
   1529   1520   1530     1   108.4600466 328.025600
   1530   1520   1531     1   109.5600471 388.275200
   1532   1531   1534     1   108.7700466 392.459200
   1532   1531   1533     1   107.5800459 329.699200
   1533   1531   1534     1   108.7700466 392.459200
   1534   1583   1573     1   119.3800509 410.868800
   1536   1537   1556     1   109.5600471 388.275200
   1536   1547   1550     1   109.5600471 388.275200
   1536   1547   1551     1   109.5600471 388.275200
   1537   1536   1538     1   109.5600471 388.275200
   1537   1539   1543     1   109.5600471 388.275200
   1537   1557   1558     1   107.2600461 396.643200
   1538   1536   1547     1   109.5600471 388.275200
   1538   1536   1554     1   109.7800468 425.094400
   1539   1537   1556     1   109.5600471 388.275200
   1539   1540   1542     1   109.5600471 388.275200
   1539   1546   1548     1   107.2600461 396.643200
   1540   1539   1543     1   109.5600471 388.275200
   1540   1541   1544     1   110.2200475 386.601600
   1540   1559   1549     1   109.2900470 396.643200
   1541   1540   1542     1   109.5600471 388.275200
   1541   1545   1555     1   107.2600461 396.643200
   1542   1540   1559     1   109.8800469 414.216000
   1543   1539   1546     1   110.2600474 425.931200
   1544   1541   1545     1   109.4300470 427.604800
   1544   1541   1554     1   109.5800467 425.931200
   1547   1552   1553     1   107.2600461 396.643200
   1550   1547   1552     1   110.2600474 425.931200
   1550   1547   1551     1   108.4600466 328.025600
   1551   1547   1552     1   110.2600474 425.931200
   1556   1537   1557     1   110.2600474 425.931200
   1560   1561   1580     1   109.5600471 388.275200
   1560   1571   1574     1   109.5600471 388.275200
   1560   1571   1575     1   109.5600471 388.275200
   1561   1560   1562     1   109.5600471 388.275200
   1561   1563   1567     1   109.5600471 388.275200
   1561   1581   1582     1   107.2600461 396.643200
   1562   1560   1571     1   109.5600471 388.275200
   1562   1560   1578     1   109.7800468 425.094400
   1563   1561   1580     1   109.5600471 388.275200
   1563   1564   1566     1   109.5600471 388.275200
   1563   1570   1572     1   107.2600461 396.643200
   1564   1563   1567     1   109.5600471 388.275200
   1564   1565   1568     1   110.2200475 386.601600
   1564   1583   1573     1   109.2900470 396.643200
   1565   1564   1566     1   109.5600471 388.275200
   1565   1569   1579     1   107.2600461 396.643200
   1566   1564   1583     1   109.8800469 414.216000
   1567   1563   1570     1   110.2600474 425.931200
   1568   1565   1569     1   109.4300470 427.604800
   1568   1565   1578     1   109.5800467 425.931200
   1571   1576   1577     1   107.2600461 396.643200
   1574   1571   1576     1   110.2600474 425.931200
   1574   1571   1575     1   108.4600466 328.025600
   1575   1571   1576     1   110.2600474 425.931200
   1580   1561   1581     1   110.2600474 425.931200
   1585   1587   1588     1   108.8800464 416.726400
   1585   1587   1590     1   108.8800464 416.726400
   1586   1585   1587     1   117.6800502 383.254400
   1587   1589   1591     1   109.5600471 388.275200
   1587   1589   1592     1   109.5600471 388.275200
   1588   1587   1589     1   109.5600471 388.275200
   1588   1587   1590     1   108.4600466 328.025600
   1589   1593   1658     1   110.1100470 384.091200
   1589   1587   1590     1   109.5600471 388.275200
   1591   1589   1593     1   107.9000462 406.684800
   1591   1589   1592     1   108.4600466 328.025600
   1592   1589   1593     1   107.9000462 406.684800
   1593   1594   1603     1   107.9000462 406.684800
   1593   1594   1604     1   107.9000462 406.684800
   1593   1595   1596     1   107.9000462 406.684800
   1593   1595   1598     1   107.9000462 406.684800
   1594   1605   1606     1   109.8000471 387.438400
   1594   1605   1607     1   109.8000471 387.438400
   1594   1593   1658     1   110.1100470 384.091200
   1595   1597   1599     1   109.8000471 387.438400
   1595   1597   1600     1   109.8000471 387.438400
   1595   1593   1658     1   110.1100470 384.091200
   1596   1595   1597     1   109.5600471 388.275200
   1596   1595   1598     1   108.4600466 328.025600
   1597   1595   1598     1   109.5600471 388.275200
   1599   1597   1601     1   108.7700466 392.459200
   1599   1597   1600     1   107.5800459 329.699200
   1600   1597   1601     1   108.7700466 392.459200
   1601   1633   1623     1   119.3800509 410.868800
   1603   1594   1605     1   109.5600471 388.275200
   1603   1594   1604     1   108.4600466 328.025600
   1604   1594   1605     1   109.5600471 388.275200
   1606   1605   1608     1   108.7700466 392.459200
   1606   1605   1607     1   107.5800459 329.699200
   1607   1605   1608     1   108.7700466 392.459200
   1608   1657   1647     1   119.3800509 410.868800
   1610   1611   1630     1   109.5600471 388.275200
   1610   1621   1624     1   109.5600471 388.275200
   1610   1621   1625     1   109.5600471 388.275200
   1611   1613   1617     1   109.5600471 388.275200
   1611   1631   1632     1   107.2600461 396.643200
   1611   1610   1612     1   109.5600471 388.275200
   1612   1610   1621     1   109.5600471 388.275200
   1612   1610   1628     1   109.7800468 425.094400
   1613   1614   1616     1   109.5600471 388.275200
   1613   1620   1622     1   107.2600461 396.643200
   1613   1611   1630     1   109.5600471 388.275200
   1614   1615   1618     1   110.2200475 386.601600
   1614   1633   1623     1   109.2900470 396.643200
   1614   1613   1617     1   109.5600471 388.275200
   1615   1619   1629     1   107.2600461 396.643200
   1615   1614   1616     1   109.5600471 388.275200
   1616   1614   1633     1   109.8800469 414.216000
   1617   1613   1620     1   110.2600474 425.931200
   1618   1615   1619     1   109.4300470 427.604800
   1618   1615   1628     1   109.5800467 425.931200
   1621   1626   1627     1   107.2600461 396.643200
   1624   1621   1626     1   110.2600474 425.931200
   1624   1621   1625     1   108.4600466 328.025600
   1625   1621   1626     1   110.2600474 425.931200
   1630   1611   1631     1   110.2600474 425.931200
   1634   1635   1654     1   109.5600471 388.275200
   1634   1645   1648     1   109.5600471 388.275200
   1634   1645   1649     1   109.5600471 388.275200
   1635   1637   1641     1   109.5600471 388.275200
   1635   1655   1656     1   107.2600461 396.643200
   1635   1634   1636     1   109.5600471 388.275200
   1636   1634   1645     1   109.5600471 388.275200
   1636   1634   1652     1   109.7800468 425.094400
   1637   1638   1640     1   109.5600471 388.275200
   1637   1644   1646     1   107.2600461 396.643200
   1637   1635   1654     1   109.5600471 388.275200
   1638   1639   1642     1   110.2200475 386.601600
   1638   1657   1647     1   109.2900470 396.643200
   1638   1637   1641     1   109.5600471 388.275200
   1639   1643   1653     1   107.2600461 396.643200
   1639   1638   1640     1   109.5600471 388.275200
   1640   1638   1657     1   109.8800469 414.216000
   1641   1637   1644     1   110.2600474 425.931200
   1642   1639   1643     1   109.4300470 427.604800
   1642   1639   1652     1   109.5800467 425.931200
   1645   1650   1651     1   107.2600461 396.643200
   1648   1645   1650     1   110.2600474 425.931200
   1648   1645   1649     1   108.4600466 328.025600
   1649   1645   1650     1   110.2600474 425.931200
   1654   1635   1655     1   110.2600474 425.931200
   1659   1661   1662     1   108.8800464 416.726400
   1659   1661   1664     1   108.8800464 416.726400
   1660   1659   1661     1   117.6800502 383.254400
   1661   1663   1665     1   109.5600471 388.275200
   1661   1663   1666     1   109.5600471 388.275200
   1662   1661   1663     1   109.5600471 388.275200
   1662   1661   1664     1   108.4600466 328.025600
   1663   1661   1664     1   109.5600471 388.275200
   1663   1667   1732     1   110.1100470 384.091200
   1665   1663   1667     1   107.9000462 406.684800
   1665   1663   1666     1   108.4600466 328.025600
   1666   1663   1667     1   107.9000462 406.684800
   1667   1668   1677     1   107.9000462 406.684800
   1667   1668   1678     1   107.9000462 406.684800
   1667   1669   1670     1   107.9000462 406.684800
   1667   1669   1672     1   107.9000462 406.684800
   1668   1667   1732     1   110.1100470 384.091200
   1668   1679   1680     1   109.8000471 387.438400
   1668   1679   1681     1   109.8000471 387.438400
   1669   1667   1732     1   110.1100470 384.091200
   1669   1671   1673     1   109.8000471 387.438400
   1669   1671   1674     1   109.8000471 387.438400
   1670   1669   1671     1   109.5600471 388.275200
   1670   1669   1672     1   108.4600466 328.025600
   1671   1669   1672     1   109.5600471 388.275200
   1673   1671   1675     1   108.7700466 392.459200
   1673   1671   1674     1   107.5800459 329.699200
   1674   1671   1675     1   108.7700466 392.459200
   1675   1707   1697     1   119.3800509 410.868800
   1677   1668   1679     1   109.5600471 388.275200
   1677   1668   1678     1   108.4600466 328.025600
   1678   1668   1679     1   109.5600471 388.275200
   1680   1679   1682     1   108.7700466 392.459200
   1680   1679   1681     1   107.5800459 329.699200
   1681   1679   1682     1   108.7700466 392.459200
   1682   1731   1721     1   119.3800509 410.868800
   1684   1685   1704     1   109.5600471 388.275200
   1684   1695   1698     1   109.5600471 388.275200
   1684   1695   1699     1   109.5600471 388.275200
   1685   1684   1686     1   109.5600471 388.275200
   1685   1687   1691     1   109.5600471 388.275200
   1685   1705   1706     1   107.2600461 396.643200
   1686   1684   1695     1   109.5600471 388.275200
   1686   1684   1702     1   109.7800468 425.094400
   1687   1685   1704     1   109.5600471 388.275200
   1687   1688   1690     1   109.5600471 388.275200
   1687   1694   1696     1   107.2600461 396.643200
   1688   1687   1691     1   109.5600471 388.275200
   1688   1689   1692     1   110.2200475 386.601600
   1688   1707   1697     1   109.2900470 396.643200
   1689   1688   1690     1   109.5600471 388.275200
   1689   1693   1703     1   107.2600461 396.643200
   1690   1688   1707     1   109.8800469 414.216000
   1691   1687   1694     1   110.2600474 425.931200
   1692   1689   1693     1   109.4300470 427.604800
   1692   1689   1702     1   109.5800467 425.931200
   1695   1700   1701     1   107.2600461 396.643200
   1698   1695   1700     1   110.2600474 425.931200
   1698   1695   1699     1   108.4600466 328.025600
   1699   1695   1700     1   110.2600474 425.931200
   1704   1685   1705     1   110.2600474 425.931200
   1708   1709   1728     1   109.5600471 388.275200
   1708   1719   1722     1   109.5600471 388.275200
   1708   1719   1723     1   109.5600471 388.275200
   1709   1708   1710     1   109.5600471 388.275200
   1709   1711   1715     1   109.5600471 388.275200
   1709   1729   1730     1   107.2600461 396.643200
   1710   1708   1719     1   109.5600471 388.275200
   1710   1708   1726     1   109.7800468 425.094400
   1711   1709   1728     1   109.5600471 388.275200
   1711   1712   1714     1   109.5600471 388.275200
   1711   1718   1720     1   107.2600461 396.643200
   1712   1711   1715     1   109.5600471 388.275200
   1712   1713   1716     1   110.2200475 386.601600
   1712   1731   1721     1   109.2900470 396.643200
   1713   1712   1714     1   109.5600471 388.275200
   1713   1717   1727     1   107.2600461 396.643200
   1714   1712   1731     1   109.8800469 414.216000
   1715   1711   1718     1   110.2600474 425.931200
   1716   1713   1717     1   109.4300470 427.604800
   1716   1713   1726     1   109.5800467 425.931200
   1719   1724   1725     1   107.2600461 396.643200
   1722   1719   1724     1   110.2600474 425.931200
   1722   1719   1723     1   108.4600466 328.025600
   1723   1719   1724     1   110.2600474 425.931200
   1728   1709   1729     1   110.2600474 425.931200
   1733   1735   1736     1   108.8800464 416.726400
   1733   1735   1738     1   108.8800464 416.726400
   1734   1733   1735     1   117.6800502 383.254400
   1735   1737   1739     1   109.5600471 388.275200
   1735   1737   1740     1   109.5600471 388.275200
   1736   1735   1737     1   109.5600471 388.275200
   1736   1735   1738     1   108.4600466 328.025600
   1737   1741   1806     1   110.1100470 384.091200
   1737   1735   1738     1   109.5600471 388.275200
   1739   1737   1741     1   107.9000462 406.684800
   1739   1737   1740     1   108.4600466 328.025600
   1740   1737   1741     1   107.9000462 406.684800
   1741   1742   1751     1   107.9000462 406.684800
   1741   1742   1752     1   107.9000462 406.684800
   1741   1743   1744     1   107.9000462 406.684800
   1741   1743   1746     1   107.9000462 406.684800
   1742   1753   1754     1   109.8000471 387.438400
   1742   1753   1755     1   109.8000471 387.438400
   1742   1741   1806     1   110.1100470 384.091200
   1743   1745   1747     1   109.8000471 387.438400
   1743   1745   1748     1   109.8000471 387.438400
   1743   1741   1806     1   110.1100470 384.091200
   1744   1743   1745     1   109.5600471 388.275200
   1744   1743   1746     1   108.4600466 328.025600
   1745   1743   1746     1   109.5600471 388.275200
   1747   1745   1749     1   108.7700466 392.459200
   1747   1745   1748     1   107.5800459 329.699200
   1748   1745   1749     1   108.7700466 392.459200
   1749   1781   1771     1   119.3800509 410.868800
   1751   1742   1753     1   109.5600471 388.275200
   1751   1742   1752     1   108.4600466 328.025600
   1752   1742   1753     1   109.5600471 388.275200
   1754   1753   1756     1   108.7700466 392.459200
   1754   1753   1755     1   107.5800459 329.699200
   1755   1753   1756     1   108.7700466 392.459200
   1756   1805   1795     1   119.3800509 410.868800
   1758   1759   1778     1   109.5600471 388.275200
   1758   1769   1772     1   109.5600471 388.275200
   1758   1769   1773     1   109.5600471 388.275200
   1759   1761   1765     1   109.5600471 388.275200
   1759   1779   1780     1   107.2600461 396.643200
   1759   1758   1760     1   109.5600471 388.275200
   1760   1758   1769     1   109.5600471 388.275200
   1760   1758   1776     1   109.7800468 425.094400
   1761   1762   1764     1   109.5600471 388.275200
   1761   1768   1770     1   107.2600461 396.643200
   1761   1759   1778     1   109.5600471 388.275200
   1762   1763   1766     1   110.2200475 386.601600
   1762   1781   1771     1   109.2900470 396.643200
   1762   1761   1765     1   109.5600471 388.275200
   1763   1767   1777     1   107.2600461 396.643200
   1763   1762   1764     1   109.5600471 388.275200
   1764   1762   1781     1   109.8800469 414.216000
   1765   1761   1768     1   110.2600474 425.931200
   1766   1763   1767     1   109.4300470 427.604800
   1766   1763   1776     1   109.5800467 425.931200
   1769   1774   1775     1   107.2600461 396.643200
   1772   1769   1774     1   110.2600474 425.931200
   1772   1769   1773     1   108.4600466 328.025600
   1773   1769   1774     1   110.2600474 425.931200
   1778   1759   1779     1   110.2600474 425.931200
   1782   1783   1802     1   109.5600471 388.275200
   1782   1793   1796     1   109.5600471 388.275200
   1782   1793   1797     1   109.5600471 388.275200
   1783   1785   1789     1   109.5600471 388.275200
   1783   1803   1804     1   107.2600461 396.643200
   1783   1782   1784     1   109.5600471 388.275200
   1784   1782   1793     1   109.5600471 388.275200
   1784   1782   1800     1   109.7800468 425.094400
   1785   1786   1788     1   109.5600471 388.275200
   1785   1792   1794     1   107.2600461 396.643200
   1785   1783   1802     1   109.5600471 388.275200
   1786   1787   1790     1   110.2200475 386.601600
   1786   1805   1795     1   109.2900470 396.643200
   1786   1785   1789     1   109.5600471 388.275200
   1787   1791   1801     1   107.2600461 396.643200
   1787   1786   1788     1   109.5600471 388.275200
   1788   1786   1805     1   109.8800469 414.216000
   1789   1785   1792     1   110.2600474 425.931200
   1790   1787   1791     1   109.4300470 427.604800
   1790   1787   1800     1   109.5800467 425.931200
   1793   1798   1799     1   107.2600461 396.643200
   1796   1793   1798     1   110.2600474 425.931200
   1796   1793   1797     1   108.4600466 328.025600
   1797   1793   1798     1   110.2600474 425.931200
   1802   1783   1803     1   110.2600474 425.931200
   1807   1809   1810     1   108.8800464 416.726400
   1807   1809   1812     1   108.8800464 416.726400
   1808   1807   1809     1   117.6800502 383.254400
   1809   1811   1813     1   109.5600471 388.275200
   1809   1811   1814     1   109.5600471 388.275200
   1810   1809   1811     1   109.5600471 388.275200
   1810   1809   1812     1   108.4600466 328.025600
   1811   1809   1812     1   109.5600471 388.275200
   1811   1815   1880     1   110.1100470 384.091200
   1813   1811   1815     1   107.9000462 406.684800
   1813   1811   1814     1   108.4600466 328.025600
   1814   1811   1815     1   107.9000462 406.684800
   1815   1816   1825     1   107.9000462 406.684800
   1815   1816   1826     1   107.9000462 406.684800
   1815   1817   1818     1   107.9000462 406.684800
   1815   1817   1820     1   107.9000462 406.684800
   1816   1815   1880     1   110.1100470 384.091200
   1816   1827   1828     1   109.8000471 387.438400
   1816   1827   1829     1   109.8000471 387.438400
   1817   1815   1880     1   110.1100470 384.091200
   1817   1819   1821     1   109.8000471 387.438400
   1817   1819   1822     1   109.8000471 387.438400
   1818   1817   1819     1   109.5600471 388.275200
   1818   1817   1820     1   108.4600466 328.025600
   1819   1817   1820     1   109.5600471 388.275200
   1821   1819   1823     1   108.7700466 392.459200
   1821   1819   1822     1   107.5800459 329.699200
   1822   1819   1823     1   108.7700466 392.459200
   1823   1855   1845     1   119.3800509 410.868800
   1825   1816   1827     1   109.5600471 388.275200
   1825   1816   1826     1   108.4600466 328.025600
   1826   1816   1827     1   109.5600471 388.275200
   1828   1827   1830     1   108.7700466 392.459200
   1828   1827   1829     1   107.5800459 329.699200
   1829   1827   1830     1   108.7700466 392.459200
   1830   1879   1869     1   119.3800509 410.868800
   1832   1833   1852     1   109.5600471 388.275200
   1832   1843   1846     1   109.5600471 388.275200
   1832   1843   1847     1   109.5600471 388.275200
   1833   1832   1834     1   109.5600471 388.275200
   1833   1835   1839     1   109.5600471 388.275200
   1833   1853   1854     1   107.2600461 396.643200
   1834   1832   1843     1   109.5600471 388.275200
   1834   1832   1850     1   109.7800468 425.094400
   1835   1833   1852     1   109.5600471 388.275200
   1835   1836   1838     1   109.5600471 388.275200
   1835   1842   1844     1   107.2600461 396.643200
   1836   1835   1839     1   109.5600471 388.275200
   1836   1837   1840     1   110.2200475 386.601600
   1836   1855   1845     1   109.2900470 396.643200
   1837   1836   1838     1   109.5600471 388.275200
   1837   1841   1851     1   107.2600461 396.643200
   1838   1836   1855     1   109.8800469 414.216000
   1839   1835   1842     1   110.2600474 425.931200
   1840   1837   1841     1   109.4300470 427.604800
   1840   1837   1850     1   109.5800467 425.931200
   1843   1848   1849     1   107.2600461 396.643200
   1846   1843   1848     1   110.2600474 425.931200
   1846   1843   1847     1   108.4600466 328.025600
   1847   1843   1848     1   110.2600474 425.931200
   1852   1833   1853     1   110.2600474 425.931200
   1856   1857   1876     1   109.5600471 388.275200
   1856   1867   1870     1   109.5600471 388.275200
   1856   1867   1871     1   109.5600471 388.275200
   1857   1856   1858     1   109.5600471 388.275200
   1857   1859   1863     1   109.5600471 388.275200
   1857   1877   1878     1   107.2600461 396.643200
   1858   1856   1867     1   109.5600471 388.275200
   1858   1856   1874     1   109.7800468 425.094400
   1859   1857   1876     1   109.5600471 388.275200
   1859   1860   1862     1   109.5600471 388.275200
   1859   1866   1868     1   107.2600461 396.643200
   1860   1859   1863     1   109.5600471 388.275200
   1860   1861   1864     1   110.2200475 386.601600
   1860   1879   1869     1   109.2900470 396.643200
   1861   1860   1862     1   109.5600471 388.275200
   1861   1865   1875     1   107.2600461 396.643200
   1862   1860   1879     1   109.8800469 414.216000
   1863   1859   1866     1   110.2600474 425.931200
   1864   1861   1865     1   109.4300470 427.604800
   1864   1861   1874     1   109.5800467 425.931200
   1867   1872   1873     1   107.2600461 396.643200
   1870   1867   1872     1   110.2600474 425.931200
   1870   1867   1871     1   108.4600466 328.025600
   1871   1867   1872     1   110.2600474 425.931200
   1876   1857   1877     1   110.2600474 425.931200
   1881   1883   1884     1   108.8800464 416.726400
   1881   1883   1886     1   108.8800464 416.726400
   1882   1881   1883     1   117.6800502 383.254400
   1883   1885   1887     1   109.5600471 388.275200
   1883   1885   1888     1   109.5600471 388.275200
   1884   1883   1885     1   109.5600471 388.275200
   1884   1883   1886     1   108.4600466 328.025600
   1885   1889   1954     1   110.1100470 384.091200
   1885   1883   1886     1   109.5600471 388.275200
   1887   1885   1889     1   107.9000462 406.684800
   1887   1885   1888     1   108.4600466 328.025600
   1888   1885   1889     1   107.9000462 406.684800
   1889   1890   1899     1   107.9000462 406.684800
   1889   1890   1900     1   107.9000462 406.684800
   1889   1891   1892     1   107.9000462 406.684800
   1889   1891   1894     1   107.9000462 406.684800
   1890   1901   1902     1   109.8000471 387.438400
   1890   1901   1903     1   109.8000471 387.438400
   1890   1889   1954     1   110.1100470 384.091200
   1891   1893   1895     1   109.8000471 387.438400
   1891   1893   1896     1   109.8000471 387.438400
   1891   1889   1954     1   110.1100470 384.091200
   1892   1891   1893     1   109.5600471 388.275200
   1892   1891   1894     1   108.4600466 328.025600
   1893   1891   1894     1   109.5600471 388.275200
   1895   1893   1897     1   108.7700466 392.459200
   1895   1893   1896     1   107.5800459 329.699200
   1896   1893   1897     1   108.7700466 392.459200
   1897   1929   1919     1   119.3800509 410.868800
   1899   1890   1901     1   109.5600471 388.275200
   1899   1890   1900     1   108.4600466 328.025600
   1900   1890   1901     1   109.5600471 388.275200
   1902   1901   1904     1   108.7700466 392.459200
   1902   1901   1903     1   107.5800459 329.699200
   1903   1901   1904     1   108.7700466 392.459200
   1904   1953   1943     1   119.3800509 410.868800
   1906   1907   1926     1   109.5600471 388.275200
   1906   1917   1920     1   109.5600471 388.275200
   1906   1917   1921     1   109.5600471 388.275200
   1907   1909   1913     1   109.5600471 388.275200
   1907   1927   1928     1   107.2600461 396.643200
   1907   1906   1908     1   109.5600471 388.275200
   1908   1906   1917     1   109.5600471 388.275200
   1908   1906   1924     1   109.7800468 425.094400
   1909   1910   1912     1   109.5600471 388.275200
   1909   1916   1918     1   107.2600461 396.643200
   1909   1907   1926     1   109.5600471 388.275200
   1910   1911   1914     1   110.2200475 386.601600
   1910   1929   1919     1   109.2900470 396.643200
   1910   1909   1913     1   109.5600471 388.275200
   1911   1915   1925     1   107.2600461 396.643200
   1911   1910   1912     1   109.5600471 388.275200
   1912   1910   1929     1   109.8800469 414.216000
   1913   1909   1916     1   110.2600474 425.931200
   1914   1911   1915     1   109.4300470 427.604800
   1914   1911   1924     1   109.5800467 425.931200
   1917   1922   1923     1   107.2600461 396.643200
   1920   1917   1922     1   110.2600474 425.931200
   1920   1917   1921     1   108.4600466 328.025600
   1921   1917   1922     1   110.2600474 425.931200
   1926   1907   1927     1   110.2600474 425.931200
   1930   1931   1950     1   109.5600471 388.275200
   1930   1941   1944     1   109.5600471 388.275200
   1930   1941   1945     1   109.5600471 388.275200
   1931   1933   1937     1   109.5600471 388.275200
   1931   1951   1952     1   107.2600461 396.643200
   1931   1930   1932     1   109.5600471 388.275200
   1932   1930   1941     1   109.5600471 388.275200
   1932   1930   1948     1   109.7800468 425.094400
   1933   1934   1936     1   109.5600471 388.275200
   1933   1940   1942     1   107.2600461 396.643200
   1933   1931   1950     1   109.5600471 388.275200
   1934   1935   1938     1   110.2200475 386.601600
   1934   1953   1943     1   109.2900470 396.643200
   1934   1933   1937     1   109.5600471 388.275200
   1935   1939   1949     1   107.2600461 396.643200
   1935   1934   1936     1   109.5600471 388.275200
   1936   1934   1953     1   109.8800469 414.216000
   1937   1933   1940     1   110.2600474 425.931200
   1938   1935   1939     1   109.4300470 427.604800
   1938   1935   1948     1   109.5800467 425.931200
   1941   1946   1947     1   107.2600461 396.643200
   1944   1941   1946     1   110.2600474 425.931200
   1944   1941   1945     1   108.4600466 328.025600
   1945   1941   1946     1   110.2600474 425.931200
   1950   1931   1951     1   110.2600474 425.931200
   1955   1957   1958     1   108.8800464 416.726400
   1955   1957   1960     1   108.8800464 416.726400
   1956   1955   1957     1   117.6800502 383.254400
   1957   1959   1961     1   109.5600471 388.275200
   1957   1959   1962     1   109.5600471 388.275200
   1958   1957   1959     1   109.5600471 388.275200
   1958   1957   1960     1   108.4600466 328.025600
   1959   1957   1960     1   109.5600471 388.275200
   1959   1963   2028     1   110.1100470 384.091200
   1961   1959   1963     1   107.9000462 406.684800
   1961   1959   1962     1   108.4600466 328.025600
   1962   1959   1963     1   107.9000462 406.684800
   1963   1964   1973     1   107.9000462 406.684800
   1963   1964   1974     1   107.9000462 406.684800
   1963   1965   1966     1   107.9000462 406.684800
   1963   1965   1968     1   107.9000462 406.684800
   1964   1963   2028     1   110.1100470 384.091200
   1964   1975   1976     1   109.8000471 387.438400
   1964   1975   1977     1   109.8000471 387.438400
   1965   1963   2028     1   110.1100470 384.091200
   1965   1967   1969     1   109.8000471 387.438400
   1965   1967   1970     1   109.8000471 387.438400
   1966   1965   1967     1   109.5600471 388.275200
   1966   1965   1968     1   108.4600466 328.025600
   1967   1965   1968     1   109.5600471 388.275200
   1969   1967   1971     1   108.7700466 392.459200
   1969   1967   1970     1   107.5800459 329.699200
   1970   1967   1971     1   108.7700466 392.459200
   1971   2003   1993     1   119.3800509 410.868800
   1973   1964   1975     1   109.5600471 388.275200
   1973   1964   1974     1   108.4600466 328.025600
   1974   1964   1975     1   109.5600471 388.275200
   1976   1975   1978     1   108.7700466 392.459200
   1976   1975   1977     1   107.5800459 329.699200
   1977   1975   1978     1   108.7700466 392.459200
   1978   2027   2017     1   119.3800509 410.868800
   1980   1981   2000     1   109.5600471 388.275200
   1980   1991   1994     1   109.5600471 388.275200
   1980   1991   1995     1   109.5600471 388.275200
   1981   1980   1982     1   109.5600471 388.275200
   1981   1983   1987     1   109.5600471 388.275200
   1981   2001   2002     1   107.2600461 396.643200
   1982   1980   1991     1   109.5600471 388.275200
   1982   1980   1998     1   109.7800468 425.094400
   1983   1981   2000     1   109.5600471 388.275200
   1983   1984   1986     1   109.5600471 388.275200
   1983   1990   1992     1   107.2600461 396.643200
   1984   1983   1987     1   109.5600471 388.275200
   1984   1985   1988     1   110.2200475 386.601600
   1984   2003   1993     1   109.2900470 396.643200
   1985   1984   1986     1   109.5600471 388.275200
   1985   1989   1999     1   107.2600461 396.643200
   1986   1984   2003     1   109.8800469 414.216000
   1987   1983   1990     1   110.2600474 425.931200
   1988   1985   1989     1   109.4300470 427.604800
   1988   1985   1998     1   109.5800467 425.931200
   1991   1996   1997     1   107.2600461 396.643200
   1994   1991   1996     1   110.2600474 425.931200
   1994   1991   1995     1   108.4600466 328.025600
   1995   1991   1996     1   110.2600474 425.931200
   2000   1981   2001     1   110.2600474 425.931200
   2004   2005   2024     1   109.5600471 388.275200
   2004   2015   2018     1   109.5600471 388.275200
   2004   2015   2019     1   109.5600471 388.275200
   2005   2004   2006     1   109.5600471 388.275200
   2005   2007   2011     1   109.5600471 388.275200
   2005   2025   2026     1   107.2600461 396.643200
   2006   2004   2015     1   109.5600471 388.275200
   2006   2004   2022     1   109.7800468 425.094400
   2007   2005   2024     1   109.5600471 388.275200
   2007   2008   2010     1   109.5600471 388.275200
   2007   2014   2016     1   107.2600461 396.643200
   2008   2007   2011     1   109.5600471 388.275200
   2008   2009   2012     1   110.2200475 386.601600
   2008   2027   2017     1   109.2900470 396.643200
   2009   2008   2010     1   109.5600471 388.275200
   2009   2013   2023     1   107.2600461 396.643200
   2010   2008   2027     1   109.8800469 414.216000
   2011   2007   2014     1   110.2600474 425.931200
   2012   2009   2013     1   109.4300470 427.604800
   2012   2009   2022     1   109.5800467 425.931200
   2015   2020   2021     1   107.2600461 396.643200
   2018   2015   2020     1   110.2600474 425.931200
   2018   2015   2019     1   108.4600466 328.025600
   2019   2015   2020     1   110.2600474 425.931200
   2024   2005   2025     1   110.2600474 425.931200
   2029   2031   2032     1   108.8800464 416.726400
   2029   2031   2034     1   108.8800464 416.726400
   2030   2029   2031     1   117.6800502 383.254400
   2031   2033   2035     1   109.5600471 388.275200
   2031   2033   2036     1   109.5600471 388.275200
   2032   2031   2033     1   109.5600471 388.275200
   2032   2031   2034     1   108.4600466 328.025600
   2033   2037   2102     1   110.1100470 384.091200
   2033   2031   2034     1   109.5600471 388.275200
   2035   2033   2037     1   107.9000462 406.684800
   2035   2033   2036     1   108.4600466 328.025600
   2036   2033   2037     1   107.9000462 406.684800
   2037   2038   2047     1   107.9000462 406.684800
   2037   2038   2048     1   107.9000462 406.684800
   2037   2039   2040     1   107.9000462 406.684800
   2037   2039   2042     1   107.9000462 406.684800
   2038   2049   2050     1   109.8000471 387.438400
   2038   2049   2051     1   109.8000471 387.438400
   2038   2037   2102     1   110.1100470 384.091200
   2039   2041   2043     1   109.8000471 387.438400
   2039   2041   2044     1   109.8000471 387.438400
   2039   2037   2102     1   110.1100470 384.091200
   2040   2039   2041     1   109.5600471 388.275200
   2040   2039   2042     1   108.4600466 328.025600
   2041   2039   2042     1   109.5600471 388.275200
   2043   2041   2045     1   108.7700466 392.459200
   2043   2041   2044     1   107.5800459 329.699200
   2044   2041   2045     1   108.7700466 392.459200
   2045   2077   2067     1   119.3800509 410.868800
   2047   2038   2049     1   109.5600471 388.275200
   2047   2038   2048     1   108.4600466 328.025600
   2048   2038   2049     1   109.5600471 388.275200
   2050   2049   2052     1   108.7700466 392.459200
   2050   2049   2051     1   107.5800459 329.699200
   2051   2049   2052     1   108.7700466 392.459200
   2052   2101   2091     1   119.3800509 410.868800
   2054   2055   2074     1   109.5600471 388.275200
   2054   2065   2068     1   109.5600471 388.275200
   2054   2065   2069     1   109.5600471 388.275200
   2055   2057   2061     1   109.5600471 388.275200
   2055   2075   2076     1   107.2600461 396.643200
   2055   2054   2056     1   109.5600471 388.275200
   2056   2054   2065     1   109.5600471 388.275200
   2056   2054   2072     1   109.7800468 425.094400
   2057   2058   2060     1   109.5600471 388.275200
   2057   2064   2066     1   107.2600461 396.643200
   2057   2055   2074     1   109.5600471 388.275200
   2058   2059   2062     1   110.2200475 386.601600
   2058   2077   2067     1   109.2900470 396.643200
   2058   2057   2061     1   109.5600471 388.275200
   2059   2063   2073     1   107.2600461 396.643200
   2059   2058   2060     1   109.5600471 388.275200
   2060   2058   2077     1   109.8800469 414.216000
   2061   2057   2064     1   110.2600474 425.931200
   2062   2059   2063     1   109.4300470 427.604800
   2062   2059   2072     1   109.5800467 425.931200
   2065   2070   2071     1   107.2600461 396.643200
   2068   2065   2070     1   110.2600474 425.931200
   2068   2065   2069     1   108.4600466 328.025600
   2069   2065   2070     1   110.2600474 425.931200
   2074   2055   2075     1   110.2600474 425.931200
   2078   2079   2098     1   109.5600471 388.275200
   2078   2089   2092     1   109.5600471 388.275200
   2078   2089   2093     1   109.5600471 388.275200
   2079   2081   2085     1   109.5600471 388.275200
   2079   2099   2100     1   107.2600461 396.643200
   2079   2078   2080     1   109.5600471 388.275200
   2080   2078   2089     1   109.5600471 388.275200
   2080   2078   2096     1   109.7800468 425.094400
   2081   2082   2084     1   109.5600471 388.275200
   2081   2088   2090     1   107.2600461 396.643200
   2081   2079   2098     1   109.5600471 388.275200
   2082   2083   2086     1   110.2200475 386.601600
   2082   2101   2091     1   109.2900470 396.643200
   2082   2081   2085     1   109.5600471 388.275200
   2083   2087   2097     1   107.2600461 396.643200
   2083   2082   2084     1   109.5600471 388.275200
   2084   2082   2101     1   109.8800469 414.216000
   2085   2081   2088     1   110.2600474 425.931200
   2086   2083   2087     1   109.4300470 427.604800
   2086   2083   2096     1   109.5800467 425.931200
   2089   2094   2095     1   107.2600461 396.643200
   2092   2089   2094     1   110.2600474 425.931200
   2092   2089   2093     1   108.4600466 328.025600
   2093   2089   2094     1   110.2600474 425.931200
   2098   2079   2099     1   110.2600474 425.931200
   2103   2105   2106     1   108.8800464 416.726400
   2103   2105   2108     1   108.8800464 416.726400
   2104   2103   2105     1   117.6800502 383.254400
   2105   2107   2109     1   109.5600471 388.275200
   2105   2107   2110     1   109.5600471 388.275200
   2106   2105   2107     1   109.5600471 388.275200
   2106   2105   2108     1   108.4600466 328.025600
   2107   2105   2108     1   109.5600471 388.275200
   2107   2111   2176     1   110.1100470 384.091200
   2109   2107   2111     1   107.9000462 406.684800
   2109   2107   2110     1   108.4600466 328.025600
   2110   2107   2111     1   107.9000462 406.684800
   2111   2112   2121     1   107.9000462 406.684800
   2111   2112   2122     1   107.9000462 406.684800
   2111   2113   2114     1   107.9000462 406.684800
   2111   2113   2116     1   107.9000462 406.684800
   2112   2111   2176     1   110.1100470 384.091200
   2112   2123   2124     1   109.8000471 387.438400
   2112   2123   2125     1   109.8000471 387.438400
   2113   2111   2176     1   110.1100470 384.091200
   2113   2115   2117     1   109.8000471 387.438400
   2113   2115   2118     1   109.8000471 387.438400
   2114   2113   2115     1   109.5600471 388.275200
   2114   2113   2116     1   108.4600466 328.025600
   2115   2113   2116     1   109.5600471 388.275200
   2117   2115   2119     1   108.7700466 392.459200
   2117   2115   2118     1   107.5800459 329.699200
   2118   2115   2119     1   108.7700466 392.459200
   2119   2151   2141     1   119.3800509 410.868800
   2121   2112   2123     1   109.5600471 388.275200
   2121   2112   2122     1   108.4600466 328.025600
   2122   2112   2123     1   109.5600471 388.275200
   2124   2123   2126     1   108.7700466 392.459200
   2124   2123   2125     1   107.5800459 329.699200
   2125   2123   2126     1   108.7700466 392.459200
   2126   2175   2165     1   119.3800509 410.868800
   2128   2129   2148     1   109.5600471 388.275200
   2128   2139   2142     1   109.5600471 388.275200
   2128   2139   2143     1   109.5600471 388.275200
   2129   2128   2130     1   109.5600471 388.275200
   2129   2131   2135     1   109.5600471 388.275200
   2129   2149   2150     1   107.2600461 396.643200
   2130   2128   2139     1   109.5600471 388.275200
   2130   2128   2146     1   109.7800468 425.094400
   2131   2129   2148     1   109.5600471 388.275200
   2131   2132   2134     1   109.5600471 388.275200
   2131   2138   2140     1   107.2600461 396.643200
   2132   2131   2135     1   109.5600471 388.275200
   2132   2133   2136     1   110.2200475 386.601600
   2132   2151   2141     1   109.2900470 396.643200
   2133   2132   2134     1   109.5600471 388.275200
   2133   2137   2147     1   107.2600461 396.643200
   2134   2132   2151     1   109.8800469 414.216000
   2135   2131   2138     1   110.2600474 425.931200
   2136   2133   2137     1   109.4300470 427.604800
   2136   2133   2146     1   109.5800467 425.931200
   2139   2144   2145     1   107.2600461 396.643200
   2142   2139   2144     1   110.2600474 425.931200
   2142   2139   2143     1   108.4600466 328.025600
   2143   2139   2144     1   110.2600474 425.931200
   2148   2129   2149     1   110.2600474 425.931200
   2152   2153   2172     1   109.5600471 388.275200
   2152   2163   2166     1   109.5600471 388.275200
   2152   2163   2167     1   109.5600471 388.275200
   2153   2152   2154     1   109.5600471 388.275200
   2153   2155   2159     1   109.5600471 388.275200
   2153   2173   2174     1   107.2600461 396.643200
   2154   2152   2163     1   109.5600471 388.275200
   2154   2152   2170     1   109.7800468 425.094400
   2155   2153   2172     1   109.5600471 388.275200
   2155   2156   2158     1   109.5600471 388.275200
   2155   2162   2164     1   107.2600461 396.643200
   2156   2155   2159     1   109.5600471 388.275200
   2156   2157   2160     1   110.2200475 386.601600
   2156   2175   2165     1   109.2900470 396.643200
   2157   2156   2158     1   109.5600471 388.275200
   2157   2161   2171     1   107.2600461 396.643200
   2158   2156   2175     1   109.8800469 414.216000
   2159   2155   2162     1   110.2600474 425.931200
   2160   2157   2161     1   109.4300470 427.604800
   2160   2157   2170     1   109.5800467 425.931200
   2163   2168   2169     1   107.2600461 396.643200
   2166   2163   2168     1   110.2600474 425.931200
   2166   2163   2167     1   108.4600466 328.025600
   2167   2163   2168     1   110.2600474 425.931200
   2172   2153   2173     1   110.2600474 425.931200
   2177   2179   2180     1   108.8800464 416.726400
   2177   2179   2182     1   108.8800464 416.726400
   2178   2177   2179     1   117.6800502 383.254400
   2179   2181   2183     1   109.5600471 388.275200
   2179   2181   2184     1   109.5600471 388.275200
   2180   2179   2181     1   109.5600471 388.275200
   2180   2179   2182     1   108.4600466 328.025600
   2181   2185   2250     1   110.1100470 384.091200
   2181   2179   2182     1   109.5600471 388.275200
   2183   2181   2185     1   107.9000462 406.684800
   2183   2181   2184     1   108.4600466 328.025600
   2184   2181   2185     1   107.9000462 406.684800
   2185   2186   2195     1   107.9000462 406.684800
   2185   2186   2196     1   107.9000462 406.684800
   2185   2187   2188     1   107.9000462 406.684800
   2185   2187   2190     1   107.9000462 406.684800
   2186   2197   2198     1   109.8000471 387.438400
   2186   2197   2199     1   109.8000471 387.438400
   2186   2185   2250     1   110.1100470 384.091200
   2187   2189   2191     1   109.8000471 387.438400
   2187   2189   2192     1   109.8000471 387.438400
   2187   2185   2250     1   110.1100470 384.091200
   2188   2187   2189     1   109.5600471 388.275200
   2188   2187   2190     1   108.4600466 328.025600
   2189   2187   2190     1   109.5600471 388.275200
   2191   2189   2193     1   108.7700466 392.459200
   2191   2189   2192     1   107.5800459 329.699200
   2192   2189   2193     1   108.7700466 392.459200
   2193   2225   2215     1   119.3800509 410.868800
   2195   2186   2197     1   109.5600471 388.275200
   2195   2186   2196     1   108.4600466 328.025600
   2196   2186   2197     1   109.5600471 388.275200
   2198   2197   2200     1   108.7700466 392.459200
   2198   2197   2199     1   107.5800459 329.699200
   2199   2197   2200     1   108.7700466 392.459200
   2200   2249   2239     1   119.3800509 410.868800
   2202   2203   2222     1   109.5600471 388.275200
   2202   2213   2216     1   109.5600471 388.275200
   2202   2213   2217     1   109.5600471 388.275200
   2203   2205   2209     1   109.5600471 388.275200
   2203   2223   2224     1   107.2600461 396.643200
   2203   2202   2204     1   109.5600471 388.275200
   2204   2202   2213     1   109.5600471 388.275200
   2204   2202   2220     1   109.7800468 425.094400
   2205   2206   2208     1   109.5600471 388.275200
   2205   2212   2214     1   107.2600461 396.643200
   2205   2203   2222     1   109.5600471 388.275200
   2206   2207   2210     1   110.2200475 386.601600
   2206   2225   2215     1   109.2900470 396.643200
   2206   2205   2209     1   109.5600471 388.275200
   2207   2211   2221     1   107.2600461 396.643200
   2207   2206   2208     1   109.5600471 388.275200
   2208   2206   2225     1   109.8800469 414.216000
   2209   2205   2212     1   110.2600474 425.931200
   2210   2207   2211     1   109.4300470 427.604800
   2210   2207   2220     1   109.5800467 425.931200
   2213   2218   2219     1   107.2600461 396.643200
   2216   2213   2218     1   110.2600474 425.931200
   2216   2213   2217     1   108.4600466 328.025600
   2217   2213   2218     1   110.2600474 425.931200
   2222   2203   2223     1   110.2600474 425.931200
   2226   2227   2246     1   109.5600471 388.275200
   2226   2237   2240     1   109.5600471 388.275200
   2226   2237   2241     1   109.5600471 388.275200
   2227   2229   2233     1   109.5600471 388.275200
   2227   2247   2248     1   107.2600461 396.643200
   2227   2226   2228     1   109.5600471 388.275200
   2228   2226   2237     1   109.5600471 388.275200
   2228   2226   2244     1   109.7800468 425.094400
   2229   2230   2232     1   109.5600471 388.275200
   2229   2236   2238     1   107.2600461 396.643200
   2229   2227   2246     1   109.5600471 388.275200
   2230   2231   2234     1   110.2200475 386.601600
   2230   2249   2239     1   109.2900470 396.643200
   2230   2229   2233     1   109.5600471 388.275200
   2231   2235   2245     1   107.2600461 396.643200
   2231   2230   2232     1   109.5600471 388.275200
   2232   2230   2249     1   109.8800469 414.216000
   2233   2229   2236     1   110.2600474 425.931200
   2234   2231   2235     1   109.4300470 427.604800
   2234   2231   2244     1   109.5800467 425.931200
   2237   2242   2243     1   107.2600461 396.643200
   2240   2237   2242     1   110.2600474 425.931200
   2240   2237   2241     1   108.4600466 328.025600
   2241   2237   2242     1   110.2600474 425.931200
   2246   2227   2247     1   110.2600474 425.931200
   2251   2253   2254     1   108.8800464 416.726400
   2251   2253   2256     1   108.8800464 416.726400
   2252   2251   2253     1   117.6800502 383.254400
   2253   2255   2257     1   109.5600471 388.275200
   2253   2255   2258     1   109.5600471 388.275200
   2254   2253   2255     1   109.5600471 388.275200
   2254   2253   2256     1   108.4600466 328.025600
   2255   2253   2256     1   109.5600471 388.275200
   2255   2259   2324     1   110.1100470 384.091200
   2257   2255   2259     1   107.9000462 406.684800
   2257   2255   2258     1   108.4600466 328.025600
   2258   2255   2259     1   107.9000462 406.684800
   2259   2260   2269     1   107.9000462 406.684800
   2259   2260   2270     1   107.9000462 406.684800
   2259   2261   2262     1   107.9000462 406.684800
   2259   2261   2264     1   107.9000462 406.684800
   2260   2259   2324     1   110.1100470 384.091200
   2260   2271   2272     1   109.8000471 387.438400
   2260   2271   2273     1   109.8000471 387.438400
   2261   2259   2324     1   110.1100470 384.091200
   2261   2263   2265     1   109.8000471 387.438400
   2261   2263   2266     1   109.8000471 387.438400
   2262   2261   2263     1   109.5600471 388.275200
   2262   2261   2264     1   108.4600466 328.025600
   2263   2261   2264     1   109.5600471 388.275200
   2265   2263   2267     1   108.7700466 392.459200
   2265   2263   2266     1   107.5800459 329.699200
   2266   2263   2267     1   108.7700466 392.459200
   2267   2299   2289     1   119.3800509 410.868800
   2269   2260   2271     1   109.5600471 388.275200
   2269   2260   2270     1   108.4600466 328.025600
   2270   2260   2271     1   109.5600471 388.275200
   2272   2271   2274     1   108.7700466 392.459200
   2272   2271   2273     1   107.5800459 329.699200
   2273   2271   2274     1   108.7700466 392.459200
   2274   2323   2313     1   119.3800509 410.868800
   2276   2277   2296     1   109.5600471 388.275200
   2276   2287   2290     1   109.5600471 388.275200
   2276   2287   2291     1   109.5600471 388.275200
   2277   2276   2278     1   109.5600471 388.275200
   2277   2279   2283     1   109.5600471 388.275200
   2277   2297   2298     1   107.2600461 396.643200
   2278   2276   2287     1   109.5600471 388.275200
   2278   2276   2294     1   109.7800468 425.094400
   2279   2277   2296     1   109.5600471 388.275200
   2279   2280   2282     1   109.5600471 388.275200
   2279   2286   2288     1   107.2600461 396.643200
   2280   2279   2283     1   109.5600471 388.275200
   2280   2281   2284     1   110.2200475 386.601600
   2280   2299   2289     1   109.2900470 396.643200
   2281   2280   2282     1   109.5600471 388.275200
   2281   2285   2295     1   107.2600461 396.643200
   2282   2280   2299     1   109.8800469 414.216000
   2283   2279   2286     1   110.2600474 425.931200
   2284   2281   2285     1   109.4300470 427.604800
   2284   2281   2294     1   109.5800467 425.931200
   2287   2292   2293     1   107.2600461 396.643200
   2290   2287   2292     1   110.2600474 425.931200
   2290   2287   2291     1   108.4600466 328.025600
   2291   2287   2292     1   110.2600474 425.931200
   2296   2277   2297     1   110.2600474 425.931200
   2300   2301   2320     1   109.5600471 388.275200
   2300   2311   2314     1   109.5600471 388.275200
   2300   2311   2315     1   109.5600471 388.275200
   2301   2300   2302     1   109.5600471 388.275200
   2301   2303   2307     1   109.5600471 388.275200
   2301   2321   2322     1   107.2600461 396.643200
   2302   2300   2311     1   109.5600471 388.275200
   2302   2300   2318     1   109.7800468 425.094400
   2303   2301   2320     1   109.5600471 388.275200
   2303   2304   2306     1   109.5600471 388.275200
   2303   2310   2312     1   107.2600461 396.643200
   2304   2303   2307     1   109.5600471 388.275200
   2304   2305   2308     1   110.2200475 386.601600
   2304   2323   2313     1   109.2900470 396.643200
   2305   2304   2306     1   109.5600471 388.275200
   2305   2309   2319     1   107.2600461 396.643200
   2306   2304   2323     1   109.8800469 414.216000
   2307   2303   2310     1   110.2600474 425.931200
   2308   2305   2309     1   109.4300470 427.604800
   2308   2305   2318     1   109.5800467 425.931200
   2311   2316   2317     1   107.2600461 396.643200
   2314   2311   2316     1   110.2600474 425.931200
   2314   2311   2315     1   108.4600466 328.025600
   2315   2311   2316     1   110.2600474 425.931200
   2320   2301   2321     1   110.2600474 425.931200
   2325   2327   2328     1   108.8800464 416.726400
   2325   2327   2330     1   108.8800464 416.726400
   2326   2325   2327     1   117.6800502 383.254400
   2327   2329   2331     1   109.5600471 388.275200
   2327   2329   2332     1   109.5600471 388.275200
   2328   2327   2329     1   109.5600471 388.275200
   2328   2327   2330     1   108.4600466 328.025600
   2329   2333   2398     1   110.1100470 384.091200
   2329   2327   2330     1   109.5600471 388.275200
   2331   2329   2333     1   107.9000462 406.684800
   2331   2329   2332     1   108.4600466 328.025600
   2332   2329   2333     1   107.9000462 406.684800
   2333   2334   2343     1   107.9000462 406.684800
   2333   2334   2344     1   107.9000462 406.684800
   2333   2335   2336     1   107.9000462 406.684800
   2333   2335   2338     1   107.9000462 406.684800
   2334   2345   2346     1   109.8000471 387.438400
   2334   2345   2347     1   109.8000471 387.438400
   2334   2333   2398     1   110.1100470 384.091200
   2335   2337   2339     1   109.8000471 387.438400
   2335   2337   2340     1   109.8000471 387.438400
   2335   2333   2398     1   110.1100470 384.091200
   2336   2335   2337     1   109.5600471 388.275200
   2336   2335   2338     1   108.4600466 328.025600
   2337   2335   2338     1   109.5600471 388.275200
   2339   2337   2341     1   108.7700466 392.459200
   2339   2337   2340     1   107.5800459 329.699200
   2340   2337   2341     1   108.7700466 392.459200
   2341   2373   2363     1   119.3800509 410.868800
   2343   2334   2345     1   109.5600471 388.275200
   2343   2334   2344     1   108.4600466 328.025600
   2344   2334   2345     1   109.5600471 388.275200
   2346   2345   2348     1   108.7700466 392.459200
   2346   2345   2347     1   107.5800459 329.699200
   2347   2345   2348     1   108.7700466 392.459200
   2348   2397   2387     1   119.3800509 410.868800
   2350   2351   2370     1   109.5600471 388.275200
   2350   2361   2364     1   109.5600471 388.275200
   2350   2361   2365     1   109.5600471 388.275200
   2351   2353   2357     1   109.5600471 388.275200
   2351   2371   2372     1   107.2600461 396.643200
   2351   2350   2352     1   109.5600471 388.275200
   2352   2350   2361     1   109.5600471 388.275200
   2352   2350   2368     1   109.7800468 425.094400
   2353   2354   2356     1   109.5600471 388.275200
   2353   2360   2362     1   107.2600461 396.643200
   2353   2351   2370     1   109.5600471 388.275200
   2354   2355   2358     1   110.2200475 386.601600
   2354   2373   2363     1   109.2900470 396.643200
   2354   2353   2357     1   109.5600471 388.275200
   2355   2359   2369     1   107.2600461 396.643200
   2355   2354   2356     1   109.5600471 388.275200
   2356   2354   2373     1   109.8800469 414.216000
   2357   2353   2360     1   110.2600474 425.931200
   2358   2355   2359     1   109.4300470 427.604800
   2358   2355   2368     1   109.5800467 425.931200
   2361   2366   2367     1   107.2600461 396.643200
   2364   2361   2366     1   110.2600474 425.931200
   2364   2361   2365     1   108.4600466 328.025600
   2365   2361   2366     1   110.2600474 425.931200
   2370   2351   2371     1   110.2600474 425.931200
   2374   2375   2394     1   109.5600471 388.275200
   2374   2385   2388     1   109.5600471 388.275200
   2374   2385   2389     1   109.5600471 388.275200
   2375   2377   2381     1   109.5600471 388.275200
   2375   2395   2396     1   107.2600461 396.643200
   2375   2374   2376     1   109.5600471 388.275200
   2376   2374   2385     1   109.5600471 388.275200
   2376   2374   2392     1   109.7800468 425.094400
   2377   2378   2380     1   109.5600471 388.275200
   2377   2384   2386     1   107.2600461 396.643200
   2377   2375   2394     1   109.5600471 388.275200
   2378   2379   2382     1   110.2200475 386.601600
   2378   2397   2387     1   109.2900470 396.643200
   2378   2377   2381     1   109.5600471 388.275200
   2379   2383   2393     1   107.2600461 396.643200
   2379   2378   2380     1   109.5600471 388.275200
   2380   2378   2397     1   109.8800469 414.216000
   2381   2377   2384     1   110.2600474 425.931200
   2382   2379   2383     1   109.4300470 427.604800
   2382   2379   2392     1   109.5800467 425.931200
   2385   2390   2391     1   107.2600461 396.643200
   2388   2385   2390     1   110.2600474 425.931200
   2388   2385   2389     1   108.4600466 328.025600
   2389   2385   2390     1   110.2600474 425.931200
   2394   2375   2395     1   110.2600474 425.931200
   2399   2401   2402     1   108.8800464 416.726400
   2399   2401   2404     1   108.8800464 416.726400
   2400   2399   2401     1   117.6800502 383.254400
   2401   2403   2405     1   109.5600471 388.275200
   2401   2403   2406     1   109.5600471 388.275200
   2402   2401   2403     1   109.5600471 388.275200
   2402   2401   2404     1   108.4600466 328.025600
   2403   2401   2404     1   109.5600471 388.275200
   2403   2407   2472     1   110.1100470 384.091200
   2405   2403   2407     1   107.9000462 406.684800
   2405   2403   2406     1   108.4600466 328.025600
   2406   2403   2407     1   107.9000462 406.684800
   2407   2408   2417     1   107.9000462 406.684800
   2407   2408   2418     1   107.9000462 406.684800
   2407   2409   2410     1   107.9000462 406.684800
   2407   2409   2412     1   107.9000462 406.684800
   2408   2407   2472     1   110.1100470 384.091200
   2408   2419   2420     1   109.8000471 387.438400
   2408   2419   2421     1   109.8000471 387.438400
   2409   2407   2472     1   110.1100470 384.091200
   2409   2411   2413     1   109.8000471 387.438400
   2409   2411   2414     1   109.8000471 387.438400
   2410   2409   2411     1   109.5600471 388.275200
   2410   2409   2412     1   108.4600466 328.025600
   2411   2409   2412     1   109.5600471 388.275200
   2413   2411   2415     1   108.7700466 392.459200
   2413   2411   2414     1   107.5800459 329.699200
   2414   2411   2415     1   108.7700466 392.459200
   2415   2447   2437     1   119.3800509 410.868800
   2417   2408   2419     1   109.5600471 388.275200
   2417   2408   2418     1   108.4600466 328.025600
   2418   2408   2419     1   109.5600471 388.275200
   2420   2419   2422     1   108.7700466 392.459200
   2420   2419   2421     1   107.5800459 329.699200
   2421   2419   2422     1   108.7700466 392.459200
   2422   2471   2461     1   119.3800509 410.868800
   2424   2425   2444     1   109.5600471 388.275200
   2424   2435   2438     1   109.5600471 388.275200
   2424   2435   2439     1   109.5600471 388.275200
   2425   2424   2426     1   109.5600471 388.275200
   2425   2427   2431     1   109.5600471 388.275200
   2425   2445   2446     1   107.2600461 396.643200
   2426   2424   2435     1   109.5600471 388.275200
   2426   2424   2442     1   109.7800468 425.094400
   2427   2425   2444     1   109.5600471 388.275200
   2427   2428   2430     1   109.5600471 388.275200
   2427   2434   2436     1   107.2600461 396.643200
   2428   2427   2431     1   109.5600471 388.275200
   2428   2429   2432     1   110.2200475 386.601600
   2428   2447   2437     1   109.2900470 396.643200
   2429   2428   2430     1   109.5600471 388.275200
   2429   2433   2443     1   107.2600461 396.643200
   2430   2428   2447     1   109.8800469 414.216000
   2431   2427   2434     1   110.2600474 425.931200
   2432   2429   2433     1   109.4300470 427.604800
   2432   2429   2442     1   109.5800467 425.931200
   2435   2440   2441     1   107.2600461 396.643200
   2438   2435   2440     1   110.2600474 425.931200
   2438   2435   2439     1   108.4600466 328.025600
   2439   2435   2440     1   110.2600474 425.931200
   2444   2425   2445     1   110.2600474 425.931200
   2448   2449   2468     1   109.5600471 388.275200
   2448   2459   2462     1   109.5600471 388.275200
   2448   2459   2463     1   109.5600471 388.275200
   2449   2448   2450     1   109.5600471 388.275200
   2449   2451   2455     1   109.5600471 388.275200
   2449   2469   2470     1   107.2600461 396.643200
   2450   2448   2459     1   109.5600471 388.275200
   2450   2448   2466     1   109.7800468 425.094400
   2451   2449   2468     1   109.5600471 388.275200
   2451   2452   2454     1   109.5600471 388.275200
   2451   2458   2460     1   107.2600461 396.643200
   2452   2451   2455     1   109.5600471 388.275200
   2452   2453   2456     1   110.2200475 386.601600
   2452   2471   2461     1   109.2900470 396.643200
   2453   2452   2454     1   109.5600471 388.275200
   2453   2457   2467     1   107.2600461 396.643200
   2454   2452   2471     1   109.8800469 414.216000
   2455   2451   2458     1   110.2600474 425.931200
   2456   2453   2457     1   109.4300470 427.604800
   2456   2453   2466     1   109.5800467 425.931200
   2459   2464   2465     1   107.2600461 396.643200
   2462   2459   2464     1   110.2600474 425.931200
   2462   2459   2463     1   108.4600466 328.025600
   2463   2459   2464     1   110.2600474 425.931200
   2468   2449   2469     1   110.2600474 425.931200
   2473   2475   2476     1   108.8800464 416.726400
   2473   2475   2478     1   108.8800464 416.726400
   2474   2473   2475     1   117.6800502 383.254400
   2475   2477   2479     1   109.5600471 388.275200
   2475   2477   2480     1   109.5600471 388.275200
   2476   2475   2477     1   109.5600471 388.275200
   2476   2475   2478     1   108.4600466 328.025600
   2477   2481   2546     1   110.1100470 384.091200
   2477   2475   2478     1   109.5600471 388.275200
   2479   2477   2481     1   107.9000462 406.684800
   2479   2477   2480     1   108.4600466 328.025600
   2480   2477   2481     1   107.9000462 406.684800
   2481   2482   2491     1   107.9000462 406.684800
   2481   2482   2492     1   107.9000462 406.684800
   2481   2483   2484     1   107.9000462 406.684800
   2481   2483   2486     1   107.9000462 406.684800
   2482   2493   2494     1   109.8000471 387.438400
   2482   2493   2495     1   109.8000471 387.438400
   2482   2481   2546     1   110.1100470 384.091200
   2483   2485   2487     1   109.8000471 387.438400
   2483   2485   2488     1   109.8000471 387.438400
   2483   2481   2546     1   110.1100470 384.091200
   2484   2483   2485     1   109.5600471 388.275200
   2484   2483   2486     1   108.4600466 328.025600
   2485   2483   2486     1   109.5600471 388.275200
   2487   2485   2489     1   108.7700466 392.459200
   2487   2485   2488     1   107.5800459 329.699200
   2488   2485   2489     1   108.7700466 392.459200
   2489   2521   2511     1   119.3800509 410.868800
   2491   2482   2493     1   109.5600471 388.275200
   2491   2482   2492     1   108.4600466 328.025600
   2492   2482   2493     1   109.5600471 388.275200
   2494   2493   2496     1   108.7700466 392.459200
   2494   2493   2495     1   107.5800459 329.699200
   2495   2493   2496     1   108.7700466 392.459200
   2496   2545   2535     1   119.3800509 410.868800
   2498   2499   2518     1   109.5600471 388.275200
   2498   2509   2512     1   109.5600471 388.275200
   2498   2509   2513     1   109.5600471 388.275200
   2499   2501   2505     1   109.5600471 388.275200
   2499   2519   2520     1   107.2600461 396.643200
   2499   2498   2500     1   109.5600471 388.275200
   2500   2498   2509     1   109.5600471 388.275200
   2500   2498   2516     1   109.7800468 425.094400
   2501   2502   2504     1   109.5600471 388.275200
   2501   2508   2510     1   107.2600461 396.643200
   2501   2499   2518     1   109.5600471 388.275200
   2502   2503   2506     1   110.2200475 386.601600
   2502   2521   2511     1   109.2900470 396.643200
   2502   2501   2505     1   109.5600471 388.275200
   2503   2507   2517     1   107.2600461 396.643200
   2503   2502   2504     1   109.5600471 388.275200
   2504   2502   2521     1   109.8800469 414.216000
   2505   2501   2508     1   110.2600474 425.931200
   2506   2503   2507     1   109.4300470 427.604800
   2506   2503   2516     1   109.5800467 425.931200
   2509   2514   2515     1   107.2600461 396.643200
   2512   2509   2514     1   110.2600474 425.931200
   2512   2509   2513     1   108.4600466 328.025600
   2513   2509   2514     1   110.2600474 425.931200
   2518   2499   2519     1   110.2600474 425.931200
   2522   2523   2542     1   109.5600471 388.275200
   2522   2533   2536     1   109.5600471 388.275200
   2522   2533   2537     1   109.5600471 388.275200
   2523   2525   2529     1   109.5600471 388.275200
   2523   2543   2544     1   107.2600461 396.643200
   2523   2522   2524     1   109.5600471 388.275200
   2524   2522   2533     1   109.5600471 388.275200
   2524   2522   2540     1   109.7800468 425.094400
   2525   2526   2528     1   109.5600471 388.275200
   2525   2532   2534     1   107.2600461 396.643200
   2525   2523   2542     1   109.5600471 388.275200
   2526   2527   2530     1   110.2200475 386.601600
   2526   2545   2535     1   109.2900470 396.643200
   2526   2525   2529     1   109.5600471 388.275200
   2527   2531   2541     1   107.2600461 396.643200
   2527   2526   2528     1   109.5600471 388.275200
   2528   2526   2545     1   109.8800469 414.216000
   2529   2525   2532     1   110.2600474 425.931200
   2530   2527   2531     1   109.4300470 427.604800
   2530   2527   2540     1   109.5800467 425.931200
   2533   2538   2539     1   107.2600461 396.643200
   2536   2533   2538     1   110.2600474 425.931200
   2536   2533   2537     1   108.4600466 328.025600
   2537   2533   2538     1   110.2600474 425.931200
   2542   2523   2543     1   110.2600474 425.931200
   2547   2549   2550     1   108.8800464 416.726400
   2547   2549   2552     1   108.8800464 416.726400
   2548   2547   2549     1   117.6800502 383.254400
   2549   2551   2553     1   109.5600471 388.275200
   2549   2551   2554     1   109.5600471 388.275200
   2550   2549   2551     1   109.5600471 388.275200
   2550   2549   2552     1   108.4600466 328.025600
   2551   2549   2552     1   109.5600471 388.275200
   2551   2555   2620     1   110.1100470 384.091200
   2553   2551   2555     1   107.9000462 406.684800
   2553   2551   2554     1   108.4600466 328.025600
   2554   2551   2555     1   107.9000462 406.684800
   2555   2556   2565     1   107.9000462 406.684800
   2555   2556   2566     1   107.9000462 406.684800
   2555   2557   2558     1   107.9000462 406.684800
   2555   2557   2560     1   107.9000462 406.684800
   2556   2555   2620     1   110.1100470 384.091200
   2556   2567   2568     1   109.8000471 387.438400
   2556   2567   2569     1   109.8000471 387.438400
   2557   2555   2620     1   110.1100470 384.091200
   2557   2559   2561     1   109.8000471 387.438400
   2557   2559   2562     1   109.8000471 387.438400
   2558   2557   2559     1   109.5600471 388.275200
   2558   2557   2560     1   108.4600466 328.025600
   2559   2557   2560     1   109.5600471 388.275200
   2561   2559   2563     1   108.7700466 392.459200
   2561   2559   2562     1   107.5800459 329.699200
   2562   2559   2563     1   108.7700466 392.459200
   2563   2595   2585     1   119.3800509 410.868800
   2565   2556   2567     1   109.5600471 388.275200
   2565   2556   2566     1   108.4600466 328.025600
   2566   2556   2567     1   109.5600471 388.275200
   2568   2567   2570     1   108.7700466 392.459200
   2568   2567   2569     1   107.5800459 329.699200
   2569   2567   2570     1   108.7700466 392.459200
   2570   2619   2609     1   119.3800509 410.868800
   2572   2573   2592     1   109.5600471 388.275200
   2572   2583   2586     1   109.5600471 388.275200
   2572   2583   2587     1   109.5600471 388.275200
   2573   2572   2574     1   109.5600471 388.275200
   2573   2575   2579     1   109.5600471 388.275200
   2573   2593   2594     1   107.2600461 396.643200
   2574   2572   2583     1   109.5600471 388.275200
   2574   2572   2590     1   109.7800468 425.094400
   2575   2573   2592     1   109.5600471 388.275200
   2575   2576   2578     1   109.5600471 388.275200
   2575   2582   2584     1   107.2600461 396.643200
   2576   2575   2579     1   109.5600471 388.275200
   2576   2577   2580     1   110.2200475 386.601600
   2576   2595   2585     1   109.2900470 396.643200
   2577   2576   2578     1   109.5600471 388.275200
   2577   2581   2591     1   107.2600461 396.643200
   2578   2576   2595     1   109.8800469 414.216000
   2579   2575   2582     1   110.2600474 425.931200
   2580   2577   2581     1   109.4300470 427.604800
   2580   2577   2590     1   109.5800467 425.931200
   2583   2588   2589     1   107.2600461 396.643200
   2586   2583   2588     1   110.2600474 425.931200
   2586   2583   2587     1   108.4600466 328.025600
   2587   2583   2588     1   110.2600474 425.931200
   2592   2573   2593     1   110.2600474 425.931200
   2596   2597   2616     1   109.5600471 388.275200
   2596   2607   2610     1   109.5600471 388.275200
   2596   2607   2611     1   109.5600471 388.275200
   2597   2596   2598     1   109.5600471 388.275200
   2597   2599   2603     1   109.5600471 388.275200
   2597   2617   2618     1   107.2600461 396.643200
   2598   2596   2607     1   109.5600471 388.275200
   2598   2596   2614     1   109.7800468 425.094400
   2599   2597   2616     1   109.5600471 388.275200
   2599   2600   2602     1   109.5600471 388.275200
   2599   2606   2608     1   107.2600461 396.643200
   2600   2599   2603     1   109.5600471 388.275200
   2600   2601   2604     1   110.2200475 386.601600
   2600   2619   2609     1   109.2900470 396.643200
   2601   2600   2602     1   109.5600471 388.275200
   2601   2605   2615     1   107.2600461 396.643200
   2602   2600   2619     1   109.8800469 414.216000
   2603   2599   2606     1   110.2600474 425.931200
   2604   2601   2605     1   109.4300470 427.604800
   2604   2601   2614     1   109.5800467 425.931200
   2607   2612   2613     1   107.2600461 396.643200
   2610   2607   2612     1   110.2600474 425.931200
   2610   2607   2611     1   108.4600466 328.025600
   2611   2607   2612     1   110.2600474 425.931200
   2616   2597   2617     1   110.2600474 425.931200
   2621   2623   2624     1   108.8800464 416.726400
   2621   2623   2626     1   108.8800464 416.726400
   2622   2621   2623     1   117.6800502 383.254400
   2623   2625   2627     1   109.5600471 388.275200
   2623   2625   2628     1   109.5600471 388.275200
   2624   2623   2625     1   109.5600471 388.275200
   2624   2623   2626     1   108.4600466 328.025600
   2625   2629   2694     1   110.1100470 384.091200
   2625   2623   2626     1   109.5600471 388.275200
   2627   2625   2629     1   107.9000462 406.684800
   2627   2625   2628     1   108.4600466 328.025600
   2628   2625   2629     1   107.9000462 406.684800
   2629   2630   2639     1   107.9000462 406.684800
   2629   2630   2640     1   107.9000462 406.684800
   2629   2631   2632     1   107.9000462 406.684800
   2629   2631   2634     1   107.9000462 406.684800
   2630   2641   2642     1   109.8000471 387.438400
   2630   2641   2643     1   109.8000471 387.438400
   2630   2629   2694     1   110.1100470 384.091200
   2631   2633   2635     1   109.8000471 387.438400
   2631   2633   2636     1   109.8000471 387.438400
   2631   2629   2694     1   110.1100470 384.091200
   2632   2631   2633     1   109.5600471 388.275200
   2632   2631   2634     1   108.4600466 328.025600
   2633   2631   2634     1   109.5600471 388.275200
   2635   2633   2637     1   108.7700466 392.459200
   2635   2633   2636     1   107.5800459 329.699200
   2636   2633   2637     1   108.7700466 392.459200
   2637   2669   2659     1   119.3800509 410.868800
   2639   2630   2641     1   109.5600471 388.275200
   2639   2630   2640     1   108.4600466 328.025600
   2640   2630   2641     1   109.5600471 388.275200
   2642   2641   2644     1   108.7700466 392.459200
   2642   2641   2643     1   107.5800459 329.699200
   2643   2641   2644     1   108.7700466 392.459200
   2644   2693   2683     1   119.3800509 410.868800
   2646   2647   2666     1   109.5600471 388.275200
   2646   2657   2660     1   109.5600471 388.275200
   2646   2657   2661     1   109.5600471 388.275200
   2647   2649   2653     1   109.5600471 388.275200
   2647   2667   2668     1   107.2600461 396.643200
   2647   2646   2648     1   109.5600471 388.275200
   2648   2646   2657     1   109.5600471 388.275200
   2648   2646   2664     1   109.7800468 425.094400
   2649   2650   2652     1   109.5600471 388.275200
   2649   2656   2658     1   107.2600461 396.643200
   2649   2647   2666     1   109.5600471 388.275200
   2650   2651   2654     1   110.2200475 386.601600
   2650   2669   2659     1   109.2900470 396.643200
   2650   2649   2653     1   109.5600471 388.275200
   2651   2655   2665     1   107.2600461 396.643200
   2651   2650   2652     1   109.5600471 388.275200
   2652   2650   2669     1   109.8800469 414.216000
   2653   2649   2656     1   110.2600474 425.931200
   2654   2651   2655     1   109.4300470 427.604800
   2654   2651   2664     1   109.5800467 425.931200
   2657   2662   2663     1   107.2600461 396.643200
   2660   2657   2662     1   110.2600474 425.931200
   2660   2657   2661     1   108.4600466 328.025600
   2661   2657   2662     1   110.2600474 425.931200
   2666   2647   2667     1   110.2600474 425.931200
   2670   2671   2690     1   109.5600471 388.275200
   2670   2681   2684     1   109.5600471 388.275200
   2670   2681   2685     1   109.5600471 388.275200
   2671   2673   2677     1   109.5600471 388.275200
   2671   2691   2692     1   107.2600461 396.643200
   2671   2670   2672     1   109.5600471 388.275200
   2672   2670   2681     1   109.5600471 388.275200
   2672   2670   2688     1   109.7800468 425.094400
   2673   2674   2676     1   109.5600471 388.275200
   2673   2680   2682     1   107.2600461 396.643200
   2673   2671   2690     1   109.5600471 388.275200
   2674   2675   2678     1   110.2200475 386.601600
   2674   2693   2683     1   109.2900470 396.643200
   2674   2673   2677     1   109.5600471 388.275200
   2675   2679   2689     1   107.2600461 396.643200
   2675   2674   2676     1   109.5600471 388.275200
   2676   2674   2693     1   109.8800469 414.216000
   2677   2673   2680     1   110.2600474 425.931200
   2678   2675   2679     1   109.4300470 427.604800
   2678   2675   2688     1   109.5800467 425.931200
   2681   2686   2687     1   107.2600461 396.643200
   2684   2681   2686     1   110.2600474 425.931200
   2684   2681   2685     1   108.4600466 328.025600
   2685   2681   2686     1   110.2600474 425.931200
   2690   2671   2691     1   110.2600474 425.931200
   2695   2697   2698     1   108.8800464 416.726400
   2695   2697   2700     1   108.8800464 416.726400
   2696   2695   2697     1   117.6800502 383.254400
   2697   2699   2701     1   109.5600471 388.275200
   2697   2699   2702     1   109.5600471 388.275200
   2698   2697   2699     1   109.5600471 388.275200
   2698   2697   2700     1   108.4600466 328.025600
   2699   2697   2700     1   109.5600471 388.275200
   2699   2703   2768     1   110.1100470 384.091200
   2701   2699   2703     1   107.9000462 406.684800
   2701   2699   2702     1   108.4600466 328.025600
   2702   2699   2703     1   107.9000462 406.684800
   2703   2704   2713     1   107.9000462 406.684800
   2703   2704   2714     1   107.9000462 406.684800
   2703   2705   2706     1   107.9000462 406.684800
   2703   2705   2708     1   107.9000462 406.684800
   2704   2703   2768     1   110.1100470 384.091200
   2704   2715   2716     1   109.8000471 387.438400
   2704   2715   2717     1   109.8000471 387.438400
   2705   2703   2768     1   110.1100470 384.091200
   2705   2707   2709     1   109.8000471 387.438400
   2705   2707   2710     1   109.8000471 387.438400
   2706   2705   2707     1   109.5600471 388.275200
   2706   2705   2708     1   108.4600466 328.025600
   2707   2705   2708     1   109.5600471 388.275200
   2709   2707   2711     1   108.7700466 392.459200
   2709   2707   2710     1   107.5800459 329.699200
   2710   2707   2711     1   108.7700466 392.459200
   2711   2743   2733     1   119.3800509 410.868800
   2713   2704   2715     1   109.5600471 388.275200
   2713   2704   2714     1   108.4600466 328.025600
   2714   2704   2715     1   109.5600471 388.275200
   2716   2715   2718     1   108.7700466 392.459200
   2716   2715   2717     1   107.5800459 329.699200
   2717   2715   2718     1   108.7700466 392.459200
   2718   2767   2757     1   119.3800509 410.868800
   2720   2721   2740     1   109.5600471 388.275200
   2720   2731   2734     1   109.5600471 388.275200
   2720   2731   2735     1   109.5600471 388.275200
   2721   2720   2722     1   109.5600471 388.275200
   2721   2723   2727     1   109.5600471 388.275200
   2721   2741   2742     1   107.2600461 396.643200
   2722   2720   2731     1   109.5600471 388.275200
   2722   2720   2738     1   109.7800468 425.094400
   2723   2721   2740     1   109.5600471 388.275200
   2723   2724   2726     1   109.5600471 388.275200
   2723   2730   2732     1   107.2600461 396.643200
   2724   2723   2727     1   109.5600471 388.275200
   2724   2725   2728     1   110.2200475 386.601600
   2724   2743   2733     1   109.2900470 396.643200
   2725   2724   2726     1   109.5600471 388.275200
   2725   2729   2739     1   107.2600461 396.643200
   2726   2724   2743     1   109.8800469 414.216000
   2727   2723   2730     1   110.2600474 425.931200
   2728   2725   2729     1   109.4300470 427.604800
   2728   2725   2738     1   109.5800467 425.931200
   2731   2736   2737     1   107.2600461 396.643200
   2734   2731   2736     1   110.2600474 425.931200
   2734   2731   2735     1   108.4600466 328.025600
   2735   2731   2736     1   110.2600474 425.931200
   2740   2721   2741     1   110.2600474 425.931200
   2744   2745   2764     1   109.5600471 388.275200
   2744   2755   2758     1   109.5600471 388.275200
   2744   2755   2759     1   109.5600471 388.275200
   2745   2744   2746     1   109.5600471 388.275200
   2745   2747   2751     1   109.5600471 388.275200
   2745   2765   2766     1   107.2600461 396.643200
   2746   2744   2755     1   109.5600471 388.275200
   2746   2744   2762     1   109.7800468 425.094400
   2747   2745   2764     1   109.5600471 388.275200
   2747   2748   2750     1   109.5600471 388.275200
   2747   2754   2756     1   107.2600461 396.643200
   2748   2747   2751     1   109.5600471 388.275200
   2748   2749   2752     1   110.2200475 386.601600
   2748   2767   2757     1   109.2900470 396.643200
   2749   2748   2750     1   109.5600471 388.275200
   2749   2753   2763     1   107.2600461 396.643200
   2750   2748   2767     1   109.8800469 414.216000
   2751   2747   2754     1   110.2600474 425.931200
   2752   2749   2753     1   109.4300470 427.604800
   2752   2749   2762     1   109.5800467 425.931200
   2755   2760   2761     1   107.2600461 396.643200
   2758   2755   2760     1   110.2600474 425.931200
   2758   2755   2759     1   108.4600466 328.025600
   2759   2755   2760     1   110.2600474 425.931200
   2764   2745   2765     1   110.2600474 425.931200
   2769   2771   2772     1   108.8800464 416.726400
   2769   2771   2774     1   108.8800464 416.726400
   2770   2769   2771     1   117.6800502 383.254400
   2771   2773   2775     1   109.5600471 388.275200
   2771   2773   2776     1   109.5600471 388.275200
   2772   2771   2773     1   109.5600471 388.275200
   2772   2771   2774     1   108.4600466 328.025600
   2773   2777   2842     1   110.1100470 384.091200
   2773   2771   2774     1   109.5600471 388.275200
   2775   2773   2777     1   107.9000462 406.684800
   2775   2773   2776     1   108.4600466 328.025600
   2776   2773   2777     1   107.9000462 406.684800
   2777   2778   2787     1   107.9000462 406.684800
   2777   2778   2788     1   107.9000462 406.684800
   2777   2779   2780     1   107.9000462 406.684800
   2777   2779   2782     1   107.9000462 406.684800
   2778   2789   2790     1   109.8000471 387.438400
   2778   2789   2791     1   109.8000471 387.438400
   2778   2777   2842     1   110.1100470 384.091200
   2779   2781   2783     1   109.8000471 387.438400
   2779   2781   2784     1   109.8000471 387.438400
   2779   2777   2842     1   110.1100470 384.091200
   2780   2779   2781     1   109.5600471 388.275200
   2780   2779   2782     1   108.4600466 328.025600
   2781   2779   2782     1   109.5600471 388.275200
   2783   2781   2785     1   108.7700466 392.459200
   2783   2781   2784     1   107.5800459 329.699200
   2784   2781   2785     1   108.7700466 392.459200
   2785   2817   2807     1   119.3800509 410.868800
   2787   2778   2789     1   109.5600471 388.275200
   2787   2778   2788     1   108.4600466 328.025600
   2788   2778   2789     1   109.5600471 388.275200
   2790   2789   2792     1   108.7700466 392.459200
   2790   2789   2791     1   107.5800459 329.699200
   2791   2789   2792     1   108.7700466 392.459200
   2792   2841   2831     1   119.3800509 410.868800
   2794   2795   2814     1   109.5600471 388.275200
   2794   2805   2808     1   109.5600471 388.275200
   2794   2805   2809     1   109.5600471 388.275200
   2795   2797   2801     1   109.5600471 388.275200
   2795   2815   2816     1   107.2600461 396.643200
   2795   2794   2796     1   109.5600471 388.275200
   2796   2794   2805     1   109.5600471 388.275200
   2796   2794   2812     1   109.7800468 425.094400
   2797   2798   2800     1   109.5600471 388.275200
   2797   2804   2806     1   107.2600461 396.643200
   2797   2795   2814     1   109.5600471 388.275200
   2798   2799   2802     1   110.2200475 386.601600
   2798   2817   2807     1   109.2900470 396.643200
   2798   2797   2801     1   109.5600471 388.275200
   2799   2803   2813     1   107.2600461 396.643200
   2799   2798   2800     1   109.5600471 388.275200
   2800   2798   2817     1   109.8800469 414.216000
   2801   2797   2804     1   110.2600474 425.931200
   2802   2799   2803     1   109.4300470 427.604800
   2802   2799   2812     1   109.5800467 425.931200
   2805   2810   2811     1   107.2600461 396.643200
   2808   2805   2810     1   110.2600474 425.931200
   2808   2805   2809     1   108.4600466 328.025600
   2809   2805   2810     1   110.2600474 425.931200
   2814   2795   2815     1   110.2600474 425.931200
   2818   2819   2838     1   109.5600471 388.275200
   2818   2829   2832     1   109.5600471 388.275200
   2818   2829   2833     1   109.5600471 388.275200
   2819   2821   2825     1   109.5600471 388.275200
   2819   2839   2840     1   107.2600461 396.643200
   2819   2818   2820     1   109.5600471 388.275200
   2820   2818   2829     1   109.5600471 388.275200
   2820   2818   2836     1   109.7800468 425.094400
   2821   2822   2824     1   109.5600471 388.275200
   2821   2828   2830     1   107.2600461 396.643200
   2821   2819   2838     1   109.5600471 388.275200
   2822   2823   2826     1   110.2200475 386.601600
   2822   2841   2831     1   109.2900470 396.643200
   2822   2821   2825     1   109.5600471 388.275200
   2823   2827   2837     1   107.2600461 396.643200
   2823   2822   2824     1   109.5600471 388.275200
   2824   2822   2841     1   109.8800469 414.216000
   2825   2821   2828     1   110.2600474 425.931200
   2826   2823   2827     1   109.4300470 427.604800
   2826   2823   2836     1   109.5800467 425.931200
   2829   2834   2835     1   107.2600461 396.643200
   2832   2829   2834     1   110.2600474 425.931200
   2832   2829   2833     1   108.4600466 328.025600
   2833   2829   2834     1   110.2600474 425.931200
   2838   2819   2839     1   110.2600474 425.931200
   2843   2845   2846     1   108.8800464 416.726400
   2843   2845   2848     1   108.8800464 416.726400
   2844   2843   2845     1   117.6800502 383.254400
   2845   2847   2849     1   109.5600471 388.275200
   2845   2847   2850     1   109.5600471 388.275200
   2846   2845   2847     1   109.5600471 388.275200
   2846   2845   2848     1   108.4600466 328.025600
   2847   2845   2848     1   109.5600471 388.275200
   2847   2851   2916     1   110.1100470 384.091200
   2849   2847   2851     1   107.9000462 406.684800
   2849   2847   2850     1   108.4600466 328.025600
   2850   2847   2851     1   107.9000462 406.684800
   2851   2852   2861     1   107.9000462 406.684800
   2851   2852   2862     1   107.9000462 406.684800
   2851   2853   2854     1   107.9000462 406.684800
   2851   2853   2856     1   107.9000462 406.684800
   2852   2851   2916     1   110.1100470 384.091200
   2852   2863   2864     1   109.8000471 387.438400
   2852   2863   2865     1   109.8000471 387.438400
   2853   2851   2916     1   110.1100470 384.091200
   2853   2855   2857     1   109.8000471 387.438400
   2853   2855   2858     1   109.8000471 387.438400
   2854   2853   2855     1   109.5600471 388.275200
   2854   2853   2856     1   108.4600466 328.025600
   2855   2853   2856     1   109.5600471 388.275200
   2857   2855   2859     1   108.7700466 392.459200
   2857   2855   2858     1   107.5800459 329.699200
   2858   2855   2859     1   108.7700466 392.459200
   2859   2891   2881     1   119.3800509 410.868800
   2861   2852   2863     1   109.5600471 388.275200
   2861   2852   2862     1   108.4600466 328.025600
   2862   2852   2863     1   109.5600471 388.275200
   2864   2863   2866     1   108.7700466 392.459200
   2864   2863   2865     1   107.5800459 329.699200
   2865   2863   2866     1   108.7700466 392.459200
   2866   2915   2905     1   119.3800509 410.868800
   2868   2869   2888     1   109.5600471 388.275200
   2868   2879   2882     1   109.5600471 388.275200
   2868   2879   2883     1   109.5600471 388.275200
   2869   2868   2870     1   109.5600471 388.275200
   2869   2871   2875     1   109.5600471 388.275200
   2869   2889   2890     1   107.2600461 396.643200
   2870   2868   2879     1   109.5600471 388.275200
   2870   2868   2886     1   109.7800468 425.094400
   2871   2869   2888     1   109.5600471 388.275200
   2871   2872   2874     1   109.5600471 388.275200
   2871   2878   2880     1   107.2600461 396.643200
   2872   2871   2875     1   109.5600471 388.275200
   2872   2873   2876     1   110.2200475 386.601600
   2872   2891   2881     1   109.2900470 396.643200
   2873   2872   2874     1   109.5600471 388.275200
   2873   2877   2887     1   107.2600461 396.643200
   2874   2872   2891     1   109.8800469 414.216000
   2875   2871   2878     1   110.2600474 425.931200
   2876   2873   2877     1   109.4300470 427.604800
   2876   2873   2886     1   109.5800467 425.931200
   2879   2884   2885     1   107.2600461 396.643200
   2882   2879   2884     1   110.2600474 425.931200
   2882   2879   2883     1   108.4600466 328.025600
   2883   2879   2884     1   110.2600474 425.931200
   2888   2869   2889     1   110.2600474 425.931200
   2892   2893   2912     1   109.5600471 388.275200
   2892   2903   2906     1   109.5600471 388.275200
   2892   2903   2907     1   109.5600471 388.275200
   2893   2892   2894     1   109.5600471 388.275200
   2893   2895   2899     1   109.5600471 388.275200
   2893   2913   2914     1   107.2600461 396.643200
   2894   2892   2903     1   109.5600471 388.275200
   2894   2892   2910     1   109.7800468 425.094400
   2895   2893   2912     1   109.5600471 388.275200
   2895   2896   2898     1   109.5600471 388.275200
   2895   2902   2904     1   107.2600461 396.643200
   2896   2895   2899     1   109.5600471 388.275200
   2896   2897   2900     1   110.2200475 386.601600
   2896   2915   2905     1   109.2900470 396.643200
   2897   2896   2898     1   109.5600471 388.275200
   2897   2901   2911     1   107.2600461 396.643200
   2898   2896   2915     1   109.8800469 414.216000
   2899   2895   2902     1   110.2600474 425.931200
   2900   2897   2901     1   109.4300470 427.604800
   2900   2897   2910     1   109.5800467 425.931200
   2903   2908   2909     1   107.2600461 396.643200
   2906   2903   2908     1   110.2600474 425.931200
   2906   2903   2907     1   108.4600466 328.025600
   2907   2903   2908     1   110.2600474 425.931200
   2912   2893   2913     1   110.2600474 425.931200
   2917   2919   2920     1   108.8800464 416.726400
   2917   2919   2922     1   108.8800464 416.726400
   2918   2917   2919     1   117.6800502 383.254400
   2919   2921   2923     1   109.5600471 388.275200
   2919   2921   2924     1   109.5600471 388.275200
   2920   2919   2921     1   109.5600471 388.275200
   2920   2919   2922     1   108.4600466 328.025600
   2921   2925   2990     1   110.1100470 384.091200
   2921   2919   2922     1   109.5600471 388.275200
   2923   2921   2925     1   107.9000462 406.684800
   2923   2921   2924     1   108.4600466 328.025600
   2924   2921   2925     1   107.9000462 406.684800
   2925   2926   2935     1   107.9000462 406.684800
   2925   2926   2936     1   107.9000462 406.684800
   2925   2927   2928     1   107.9000462 406.684800
   2925   2927   2930     1   107.9000462 406.684800
   2926   2937   2938     1   109.8000471 387.438400
   2926   2937   2939     1   109.8000471 387.438400
   2926   2925   2990     1   110.1100470 384.091200
   2927   2929   2931     1   109.8000471 387.438400
   2927   2929   2932     1   109.8000471 387.438400
   2927   2925   2990     1   110.1100470 384.091200
   2928   2927   2929     1   109.5600471 388.275200
   2928   2927   2930     1   108.4600466 328.025600
   2929   2927   2930     1   109.5600471 388.275200
   2931   2929   2933     1   108.7700466 392.459200
   2931   2929   2932     1   107.5800459 329.699200
   2932   2929   2933     1   108.7700466 392.459200
   2933   2965   2955     1   119.3800509 410.868800
   2935   2926   2937     1   109.5600471 388.275200
   2935   2926   2936     1   108.4600466 328.025600
   2936   2926   2937     1   109.5600471 388.275200
   2938   2937   2940     1   108.7700466 392.459200
   2938   2937   2939     1   107.5800459 329.699200
   2939   2937   2940     1   108.7700466 392.459200
   2940   2989   2979     1   119.3800509 410.868800
   2942   2943   2962     1   109.5600471 388.275200
   2942   2953   2956     1   109.5600471 388.275200
   2942   2953   2957     1   109.5600471 388.275200
   2943   2945   2949     1   109.5600471 388.275200
   2943   2963   2964     1   107.2600461 396.643200
   2943   2942   2944     1   109.5600471 388.275200
   2944   2942   2953     1   109.5600471 388.275200
   2944   2942   2960     1   109.7800468 425.094400
   2945   2946   2948     1   109.5600471 388.275200
   2945   2952   2954     1   107.2600461 396.643200
   2945   2943   2962     1   109.5600471 388.275200
   2946   2947   2950     1   110.2200475 386.601600
   2946   2965   2955     1   109.2900470 396.643200
   2946   2945   2949     1   109.5600471 388.275200
   2947   2951   2961     1   107.2600461 396.643200
   2947   2946   2948     1   109.5600471 388.275200
   2948   2946   2965     1   109.8800469 414.216000
   2949   2945   2952     1   110.2600474 425.931200
   2950   2947   2951     1   109.4300470 427.604800
   2950   2947   2960     1   109.5800467 425.931200
   2953   2958   2959     1   107.2600461 396.643200
   2956   2953   2958     1   110.2600474 425.931200
   2956   2953   2957     1   108.4600466 328.025600
   2957   2953   2958     1   110.2600474 425.931200
   2962   2943   2963     1   110.2600474 425.931200
   2966   2967   2986     1   109.5600471 388.275200
   2966   2977   2980     1   109.5600471 388.275200
   2966   2977   2981     1   109.5600471 388.275200
   2967   2969   2973     1   109.5600471 388.275200
   2967   2987   2988     1   107.2600461 396.643200
   2967   2966   2968     1   109.5600471 388.275200
   2968   2966   2977     1   109.5600471 388.275200
   2968   2966   2984     1   109.7800468 425.094400
   2969   2970   2972     1   109.5600471 388.275200
   2969   2976   2978     1   107.2600461 396.643200
   2969   2967   2986     1   109.5600471 388.275200
   2970   2971   2974     1   110.2200475 386.601600
   2970   2989   2979     1   109.2900470 396.643200
   2970   2969   2973     1   109.5600471 388.275200
   2971   2975   2985     1   107.2600461 396.643200
   2971   2970   2972     1   109.5600471 388.275200
   2972   2970   2989     1   109.8800469 414.216000
   2973   2969   2976     1   110.2600474 425.931200
   2974   2971   2975     1   109.4300470 427.604800
   2974   2971   2984     1   109.5800467 425.931200
   2977   2982   2983     1   107.2600461 396.643200
   2980   2977   2982     1   110.2600474 425.931200
   2980   2977   2981     1   108.4600466 328.025600
   2981   2977   2982     1   110.2600474 425.931200
   2986   2967   2987     1   110.2600474 425.931200
   2991   2993   2994     1   108.8800464 416.726400
   2991   2993   2996     1   108.8800464 416.726400
   2992   2991   2993     1   117.6800502 383.254400
   2993   2995   2997     1   109.5600471 388.275200
   2993   2995   2998     1   109.5600471 388.275200
   2994   2993   2995     1   109.5600471 388.275200
   2994   2993   2996     1   108.4600466 328.025600
   2995   2993   2996     1   109.5600471 388.275200
   2995   2999   3064     1   110.1100470 384.091200
   2997   2995   2999     1   107.9000462 406.684800
   2997   2995   2998     1   108.4600466 328.025600
   2998   2995   2999     1   107.9000462 406.684800
   2999   3000   3009     1   107.9000462 406.684800
   2999   3000   3010     1   107.9000462 406.684800
   2999   3001   3002     1   107.9000462 406.684800
   2999   3001   3004     1   107.9000462 406.684800
   3000   2999   3064     1   110.1100470 384.091200
   3000   3011   3012     1   109.8000471 387.438400
   3000   3011   3013     1   109.8000471 387.438400
   3001   2999   3064     1   110.1100470 384.091200
   3001   3003   3005     1   109.8000471 387.438400
   3001   3003   3006     1   109.8000471 387.438400
   3002   3001   3003     1   109.5600471 388.275200
   3002   3001   3004     1   108.4600466 328.025600
   3003   3001   3004     1   109.5600471 388.275200
   3005   3003   3007     1   108.7700466 392.459200
   3005   3003   3006     1   107.5800459 329.699200
   3006   3003   3007     1   108.7700466 392.459200
   3007   3039   3029     1   119.3800509 410.868800
   3009   3000   3011     1   109.5600471 388.275200
   3009   3000   3010     1   108.4600466 328.025600
   3010   3000   3011     1   109.5600471 388.275200
   3012   3011   3014     1   108.7700466 392.459200
   3012   3011   3013     1   107.5800459 329.699200
   3013   3011   3014     1   108.7700466 392.459200
   3014   3063   3053     1   119.3800509 410.868800
   3016   3017   3036     1   109.5600471 388.275200
   3016   3027   3030     1   109.5600471 388.275200
   3016   3027   3031     1   109.5600471 388.275200
   3017   3016   3018     1   109.5600471 388.275200
   3017   3019   3023     1   109.5600471 388.275200
   3017   3037   3038     1   107.2600461 396.643200
   3018   3016   3027     1   109.5600471 388.275200
   3018   3016   3034     1   109.7800468 425.094400
   3019   3017   3036     1   109.5600471 388.275200
   3019   3020   3022     1   109.5600471 388.275200
   3019   3026   3028     1   107.2600461 396.643200
   3020   3019   3023     1   109.5600471 388.275200
   3020   3021   3024     1   110.2200475 386.601600
   3020   3039   3029     1   109.2900470 396.643200
   3021   3020   3022     1   109.5600471 388.275200
   3021   3025   3035     1   107.2600461 396.643200
   3022   3020   3039     1   109.8800469 414.216000
   3023   3019   3026     1   110.2600474 425.931200
   3024   3021   3025     1   109.4300470 427.604800
   3024   3021   3034     1   109.5800467 425.931200
   3027   3032   3033     1   107.2600461 396.643200
   3030   3027   3032     1   110.2600474 425.931200
   3030   3027   3031     1   108.4600466 328.025600
   3031   3027   3032     1   110.2600474 425.931200
   3036   3017   3037     1   110.2600474 425.931200
   3040   3041   3060     1   109.5600471 388.275200
   3040   3051   3054     1   109.5600471 388.275200
   3040   3051   3055     1   109.5600471 388.275200
   3041   3040   3042     1   109.5600471 388.275200
   3041   3043   3047     1   109.5600471 388.275200
   3041   3061   3062     1   107.2600461 396.643200
   3042   3040   3051     1   109.5600471 388.275200
   3042   3040   3058     1   109.7800468 425.094400
   3043   3041   3060     1   109.5600471 388.275200
   3043   3044   3046     1   109.5600471 388.275200
   3043   3050   3052     1   107.2600461 396.643200
   3044   3043   3047     1   109.5600471 388.275200
   3044   3045   3048     1   110.2200475 386.601600
   3044   3063   3053     1   109.2900470 396.643200
   3045   3044   3046     1   109.5600471 388.275200
   3045   3049   3059     1   107.2600461 396.643200
   3046   3044   3063     1   109.8800469 414.216000
   3047   3043   3050     1   110.2600474 425.931200
   3048   3045   3049     1   109.4300470 427.604800
   3048   3045   3058     1   109.5800467 425.931200
   3051   3056   3057     1   107.2600461 396.643200
   3054   3051   3056     1   110.2600474 425.931200
   3054   3051   3055     1   108.4600466 328.025600
   3055   3051   3056     1   110.2600474 425.931200
   3060   3041   3061     1   110.2600474 425.931200
   3065   3067   3068     1   108.8800464 416.726400
   3065   3067   3070     1   108.8800464 416.726400
   3066   3065   3067     1   117.6800502 383.254400
   3067   3069   3071     1   109.5600471 388.275200
   3067   3069   3072     1   109.5600471 388.275200
   3068   3067   3069     1   109.5600471 388.275200
   3068   3067   3070     1   108.4600466 328.025600
   3069   3073   3138     1   110.1100470 384.091200
   3069   3067   3070     1   109.5600471 388.275200
   3071   3069   3073     1   107.9000462 406.684800
   3071   3069   3072     1   108.4600466 328.025600
   3072   3069   3073     1   107.9000462 406.684800
   3073   3074   3083     1   107.9000462 406.684800
   3073   3074   3084     1   107.9000462 406.684800
   3073   3075   3076     1   107.9000462 406.684800
   3073   3075   3078     1   107.9000462 406.684800
   3074   3085   3086     1   109.8000471 387.438400
   3074   3085   3087     1   109.8000471 387.438400
   3074   3073   3138     1   110.1100470 384.091200
   3075   3077   3079     1   109.8000471 387.438400
   3075   3077   3080     1   109.8000471 387.438400
   3075   3073   3138     1   110.1100470 384.091200
   3076   3075   3077     1   109.5600471 388.275200
   3076   3075   3078     1   108.4600466 328.025600
   3077   3075   3078     1   109.5600471 388.275200
   3079   3077   3081     1   108.7700466 392.459200
   3079   3077   3080     1   107.5800459 329.699200
   3080   3077   3081     1   108.7700466 392.459200
   3081   3113   3103     1   119.3800509 410.868800
   3083   3074   3085     1   109.5600471 388.275200
   3083   3074   3084     1   108.4600466 328.025600
   3084   3074   3085     1   109.5600471 388.275200
   3086   3085   3088     1   108.7700466 392.459200
   3086   3085   3087     1   107.5800459 329.699200
   3087   3085   3088     1   108.7700466 392.459200
   3088   3137   3127     1   119.3800509 410.868800
   3090   3091   3110     1   109.5600471 388.275200
   3090   3101   3104     1   109.5600471 388.275200
   3090   3101   3105     1   109.5600471 388.275200
   3091   3093   3097     1   109.5600471 388.275200
   3091   3111   3112     1   107.2600461 396.643200
   3091   3090   3092     1   109.5600471 388.275200
   3092   3090   3101     1   109.5600471 388.275200
   3092   3090   3108     1   109.7800468 425.094400
   3093   3094   3096     1   109.5600471 388.275200
   3093   3100   3102     1   107.2600461 396.643200
   3093   3091   3110     1   109.5600471 388.275200
   3094   3095   3098     1   110.2200475 386.601600
   3094   3113   3103     1   109.2900470 396.643200
   3094   3093   3097     1   109.5600471 388.275200
   3095   3099   3109     1   107.2600461 396.643200
   3095   3094   3096     1   109.5600471 388.275200
   3096   3094   3113     1   109.8800469 414.216000
   3097   3093   3100     1   110.2600474 425.931200
   3098   3095   3099     1   109.4300470 427.604800
   3098   3095   3108     1   109.5800467 425.931200
   3101   3106   3107     1   107.2600461 396.643200
   3104   3101   3106     1   110.2600474 425.931200
   3104   3101   3105     1   108.4600466 328.025600
   3105   3101   3106     1   110.2600474 425.931200
   3110   3091   3111     1   110.2600474 425.931200
   3114   3115   3134     1   109.5600471 388.275200
   3114   3125   3128     1   109.5600471 388.275200
   3114   3125   3129     1   109.5600471 388.275200
   3115   3117   3121     1   109.5600471 388.275200
   3115   3135   3136     1   107.2600461 396.643200
   3115   3114   3116     1   109.5600471 388.275200
   3116   3114   3125     1   109.5600471 388.275200
   3116   3114   3132     1   109.7800468 425.094400
   3117   3118   3120     1   109.5600471 388.275200
   3117   3124   3126     1   107.2600461 396.643200
   3117   3115   3134     1   109.5600471 388.275200
   3118   3119   3122     1   110.2200475 386.601600
   3118   3137   3127     1   109.2900470 396.643200
   3118   3117   3121     1   109.5600471 388.275200
   3119   3123   3133     1   107.2600461 396.643200
   3119   3118   3120     1   109.5600471 388.275200
   3120   3118   3137     1   109.8800469 414.216000
   3121   3117   3124     1   110.2600474 425.931200
   3122   3119   3123     1   109.4300470 427.604800
   3122   3119   3132     1   109.5800467 425.931200
   3125   3130   3131     1   107.2600461 396.643200
   3128   3125   3130     1   110.2600474 425.931200
   3128   3125   3129     1   108.4600466 328.025600
   3129   3125   3130     1   110.2600474 425.931200
   3134   3115   3135     1   110.2600474 425.931200

[ dihedrals ]
;    ai     aj     ak     al funct         c0         c1         c2         c3         c4         c5
      1      2      3      4     1  0.0000000  0.6508444  3
      1      7     13     14     1  0.0000000  0.6508444  3
      1      8     15     16     1  0.0000000  0.6508444  3
      2      1      7     13     1  0.0000000  0.6508444  3
      2      1      8     15     1  0.0000000  0.6508444  3
      2      3      4      5     1  0.0000000  0.6508444  3
      2      3      4      6     1  0.0000000  0.6508444  3
      7      1      2      3     1  0.0000000  0.6508444  3
      8      1      2      3     1  0.0000000  0.6508444  3
      3      4      5     11     1  0.0000000  0.6508444  3
      3      4      6      9     1  0.0000000  0.6508444  3
      4      5     11     12     1  0.0000000  0.6508444  3
      4      6      9     10     1  0.0000000  0.6508444  3
      5      4      6      9     1  0.0000000  0.6508444  3
      5     11     12     17     1  180.0000771  0.0000000  2
      5     11     12     78     1  0.0000000  0.2928800  2
      5     11     12     78     1  0.0000000  0.4184000  4
      6      4      5     11     1  0.0000000  0.6508444  3
      6      9     10     18     1  180.0000771  0.0000000  2
      6      9     10     52     1  0.0000000  0.2928800  2
      6      9     10     52     1  0.0000000  0.4184000  4
      7      1      8     15     1  0.0000000  0.6508444  3
      7     13     14     20     1  180.0000771  0.0000000  2
      7     13     14    104     1  0.0000000  0.2928800  2
      7     13     14    104     1  0.0000000  0.4184000  4
      8      1      7     13     1  0.0000000  0.6508444  3
      8     15     16     19     1  180.0000771  0.0000000  2
      8     15     16    130     1  0.0000000  0.2928800  2
      8     15     16    130     1  0.0000000  0.4184000  4
      9     10     52     51     1  180.0000771  6.2760000  1
      9     10     52     51     1  0.0000000  0.0000000  2
     10     52     51     50     1  0.0000000  2.2175200  1
     10     52     51     50     1  0.0000000  0.0000000  2
     10     52     51     50     1  180.0000771  0.6276000  3
     10     52     51     50     1  180.0000771  2.0920000  4
     11     12     78     77     1  180.0000771  6.2760000  1
     11     12     78     77     1  0.0000000  0.0000000  2
     12     78     77     76     1  0.0000000  2.2175200  1
     12     78     77     76     1  0.0000000  0.0000000  2
     12     78     77     76     1  180.0000771  0.6276000  3
     12     78     77     76     1  180.0000771  2.0920000  4
     13     14    104    103     1  180.0000771  6.2760000  1
     13     14    104    103     1  0.0000000  0.0000000  2
     14    104    103    102     1  0.0000000  2.2175200  1
     14    104    103    102     1  0.0000000  0.0000000  2
     14    104    103    102     1  180.0000771  0.6276000  3
     14    104    103    102     1  180.0000771  2.0920000  4
     15     16    130    129     1  180.0000771  6.2760000  1
     15     16    130    129     1  0.0000000  0.0000000  2
     16    130    129    128     1  0.0000000  2.2175200  1
     16    130    129    128     1  0.0000000  0.0000000  2
     16    130    129    128     1  180.0000771  0.6276000  3
     16    130    129    128     1  180.0000771  2.0920000  4
     17     12     78     77     1  180.0000771  10.4600000  2
     18     10     52     51     1  180.0000771  10.4600000  2
     19     16    130    129     1  180.0000771  10.4600000  2
     20     14    104    103     1  180.0000771  10.4600000  2
     43     44     46     47     1  0.0000000  0.6508444  3
     43     45     48     49     1  0.0000000  0.6508444  3
     43     50     51     52     1  0.0000000  0.6508444  3
     44     43     45     48     1  0.0000000  0.6508444  3
     44     43     50     51     1  0.0000000  0.6508444  3
     44     46     47     53     1  180.0000771  0.0000000  2
     44     46     47    156     1  0.0000000  0.2928800  2
     44     46     47    156     1  0.0000000  0.4184000  4
     45     43     44     46     1  0.0000000  0.6508444  3
     45     43     50     51     1  0.0000000  0.6508444  3
     45     48     49     54     1  180.0000771  0.0000000  2
     45     48     49    182     1  0.0000000  0.2928800  2
     45     48     49    182     1  0.0000000  0.4184000  4
     46     44     43     50     1  0.0000000  0.6508444  3
     46     47    156    155     1  180.0000771  6.2760000  1
     46     47    156    155     1  0.0000000  0.0000000  2
     47    156    155    154     1  0.0000000  2.2175200  1
     47    156    155    154     1  0.0000000  0.0000000  2
     47    156    155    154     1  180.0000771  0.6276000  3
     47    156    155    154     1  180.0000771  2.0920000  4
     48     45     43     50     1  0.0000000  0.6508444  3
     48     49    182    181     1  180.0000771  6.2760000  1
     48     49    182    181     1  0.0000000  0.0000000  2
     49    182    181    180     1  0.0000000  2.2175200  1
     49    182    181    180     1  0.0000000  0.0000000  2
     49    182    181    180     1  180.0000771  0.6276000  3
     49    182    181    180     1  180.0000771  2.0920000  4
     53     47    156    155     1  180.0000771  10.4600000  2
     54     49    182    181     1  180.0000771  10.4600000  2
     69     70     72     73     1  0.0000000  0.6508444  3
     69     71     74     75     1  0.0000000  0.6508444  3
     69     76     77     78     1  0.0000000  0.6508444  3
     70     69     71     74     1  0.0000000  0.6508444  3
     70     69     76     77     1  0.0000000  0.6508444  3
     70     72     73     79     1  180.0000771  0.0000000  2
     70     72     73    208     1  0.0000000  0.2928800  2
     70     72     73    208     1  0.0000000  0.4184000  4
     71     69     70     72     1  0.0000000  0.6508444  3
     71     69     76     77     1  0.0000000  0.6508444  3
     71     74     75     80     1  180.0000771  0.0000000  2
     71     74     75    234     1  0.0000000  0.2928800  2
     71     74     75    234     1  0.0000000  0.4184000  4
     72     70     69     76     1  0.0000000  0.6508444  3
     72     73    208    207     1  180.0000771  6.2760000  1
     72     73    208    207     1  0.0000000  0.0000000  2
     73    208    207    206     1  0.0000000  2.2175200  1
     73    208    207    206     1  0.0000000  0.0000000  2
     73    208    207    206     1  180.0000771  0.6276000  3
     73    208    207    206     1  180.0000771  2.0920000  4
     74     71     69     76     1  0.0000000  0.6508444  3
     74     75    234    233     1  180.0000771  6.2760000  1
     74     75    234    233     1  0.0000000  0.0000000  2
     75    234    233    232     1  0.0000000  2.2175200  1
     75    234    233    232     1  0.0000000  0.0000000  2
     75    234    233    232     1  180.0000771  0.6276000  3
     75    234    233    232     1  180.0000771  2.0920000  4
     79     73    208    207     1  180.0000771  10.4600000  2
     80     75    234    233     1  180.0000771  10.4600000  2
     95     96     98     99     1  0.0000000  0.6508444  3
     95     97    100    101     1  0.0000000  0.6508444  3
     95    102    103    104     1  0.0000000  0.6508444  3
     96     95     97    100     1  0.0000000  0.6508444  3
     96     95    102    103     1  0.0000000  0.6508444  3
     96     98     99    105     1  180.0000771  0.0000000  2
     96     98     99    260     1  0.0000000  0.2928800  2
     96     98     99    260     1  0.0000000  0.4184000  4
     97     95     96     98     1  0.0000000  0.6508444  3
     97     95    102    103     1  0.0000000  0.6508444  3
     97    100    101    106     1  180.0000771  0.0000000  2
     97    100    101    286     1  0.0000000  0.2928800  2
     97    100    101    286     1  0.0000000  0.4184000  4
     98     96     95    102     1  0.0000000  0.6508444  3
     98     99    260    259     1  180.0000771  6.2760000  1
     98     99    260    259     1  0.0000000  0.0000000  2
     99    260    259    258     1  0.0000000  2.2175200  1
     99    260    259    258     1  0.0000000  0.0000000  2
     99    260    259    258     1  180.0000771  0.6276000  3
     99    260    259    258     1  180.0000771  2.0920000  4
    100     97     95    102     1  0.0000000  0.6508444  3
    100    101    286    285     1  180.0000771  6.2760000  1
    100    101    286    285     1  0.0000000  0.0000000  2
    101    286    285    284     1  0.0000000  2.2175200  1
    101    286    285    284     1  0.0000000  0.0000000  2
    101    286    285    284     1  180.0000771  0.6276000  3
    101    286    285    284     1  180.0000771  2.0920000  4
    105     99    260    259     1  180.0000771  10.4600000  2
    106    101    286    285     1  180.0000771  10.4600000  2
    121    122    124    125     1  0.0000000  0.6508444  3
    121    123    126    127     1  0.0000000  0.6508444  3
    121    128    129    130     1  0.0000000  0.6508444  3
    122    121    123    126     1  0.0000000  0.6508444  3
    122    121    128    129     1  0.0000000  0.6508444  3
    122    124    125    131     1  180.0000771  0.0000000  2
    122    124    125    312     1  0.0000000  0.2928800  2
    122    124    125    312     1  0.0000000  0.4184000  4
    123    121    122    124     1  0.0000000  0.6508444  3
    123    121    128    129     1  0.0000000  0.6508444  3
    123    126    127    132     1  180.0000771  0.0000000  2
    123    126    127    338     1  0.0000000  0.2928800  2
    123    126    127    338     1  0.0000000  0.4184000  4
    124    122    121    128     1  0.0000000  0.6508444  3
    124    125    312    311     1  180.0000771  6.2760000  1
    124    125    312    311     1  0.0000000  0.0000000  2
    125    312    311    310     1  0.0000000  2.2175200  1
    125    312    311    310     1  0.0000000  0.0000000  2
    125    312    311    310     1  180.0000771  0.6276000  3
    125    312    311    310     1  180.0000771  2.0920000  4
    126    123    121    128     1  0.0000000  0.6508444  3
    126    127    338    337     1  180.0000771  6.2760000  1
    126    127    338    337     1  0.0000000  0.0000000  2
    127    338    337    336     1  0.0000000  2.2175200  1
    127    338    337    336     1  0.0000000  0.0000000  2
    127    338    337    336     1  180.0000771  0.6276000  3
    127    338    337    336     1  180.0000771  2.0920000  4
    131    125    312    311     1  180.0000771  10.4600000  2
    132    127    338    337     1  180.0000771  10.4600000  2
    147    148    150    151     1  0.0000000  0.6508444  3
    147    149    152    153     1  0.0000000  0.6508444  3
    147    154    155    156     1  0.0000000  0.6508444  3
    148    147    149    152     1  0.0000000  0.6508444  3
    148    147    154    155     1  0.0000000  0.6508444  3
    148    150    151    157     1  180.0000771  0.0000000  2
    148    150    151    364     1  0.0000000  0.2928800  2
    148    150    151    364     1  0.0000000  0.4184000  4
    149    147    148    150     1  0.0000000  0.6508444  3
    149    147    154    155     1  0.0000000  0.6508444  3
    149    152    153    158     1  180.0000771  0.0000000  2
    149    152    153    390     1  0.0000000  0.2928800  2
    149    152    153    390     1  0.0000000  0.4184000  4
    150    148    147    154     1  0.0000000  0.6508444  3
    150    151    364    363     1  180.0000771  6.2760000  1
    150    151    364    363     1  0.0000000  0.0000000  2
    151    364    363    362     1  0.0000000  2.2175200  1
    151    364    363    362     1  0.0000000  0.0000000  2
    151    364    363    362     1  180.0000771  0.6276000  3
    151    364    363    362     1  180.0000771  2.0920000  4
    152    149    147    154     1  0.0000000  0.6508444  3
    152    153    390    389     1  180.0000771  6.2760000  1
    152    153    390    389     1  0.0000000  0.0000000  2
    153    390    389    388     1  0.0000000  2.2175200  1
    153    390    389    388     1  0.0000000  0.0000000  2
    153    390    389    388     1  180.0000771  0.6276000  3
    153    390    389    388     1  180.0000771  2.0920000  4
    157    151    364    363     1  180.0000771  10.4600000  2
    158    153    390    389     1  180.0000771  10.4600000  2
    173    174    176    177     1  0.0000000  0.6508444  3
    173    175    178    179     1  0.0000000  0.6508444  3
    173    180    181    182     1  0.0000000  0.6508444  3
    174    173    175    178     1  0.0000000  0.6508444  3
    174    173    180    181     1  0.0000000  0.6508444  3
    174    176    177    183     1  180.0000771  0.0000000  2
    174    176    177    416     1  0.0000000  0.2928800  2
    174    176    177    416     1  0.0000000  0.4184000  4
    175    173    174    176     1  0.0000000  0.6508444  3
    175    173    180    181     1  0.0000000  0.6508444  3
    175    178    179    184     1  180.0000771  0.0000000  2
    175    178    179    442     1  0.0000000  0.2928800  2
    175    178    179    442     1  0.0000000  0.4184000  4
    176    174    173    180     1  0.0000000  0.6508444  3
    176    177    416    415     1  180.0000771  6.2760000  1
    176    177    416    415     1  0.0000000  0.0000000  2
    177    416    415    414     1  0.0000000  2.2175200  1
    177    416    415    414     1  0.0000000  0.0000000  2
    177    416    415    414     1  180.0000771  0.6276000  3
    177    416    415    414     1  180.0000771  2.0920000  4
    178    175    173    180     1  0.0000000  0.6508444  3
    178    179    442    441     1  180.0000771  6.2760000  1
    178    179    442    441     1  0.0000000  0.0000000  2
    179    442    441    440     1  0.0000000  2.2175200  1
    179    442    441    440     1  0.0000000  0.0000000  2
    179    442    441    440     1  180.0000771  0.6276000  3
    179    442    441    440     1  180.0000771  2.0920000  4
    183    177    416    415     1  180.0000771  10.4600000  2
    184    179    442    441     1  180.0000771  10.4600000  2
    199    200    202    203     1  0.0000000  0.6508444  3
    199    201    204    205     1  0.0000000  0.6508444  3
    199    206    207    208     1  0.0000000  0.6508444  3
    200    199    201    204     1  0.0000000  0.6508444  3
    200    199    206    207     1  0.0000000  0.6508444  3
    200    202    203    209     1  180.0000771  0.0000000  2
    200    202    203    468     1  0.0000000  0.2928800  2
    200    202    203    468     1  0.0000000  0.4184000  4
    201    199    200    202     1  0.0000000  0.6508444  3
    201    199    206    207     1  0.0000000  0.6508444  3
    201    204    205    210     1  180.0000771  0.0000000  2
    201    204    205    494     1  0.0000000  0.2928800  2
    201    204    205    494     1  0.0000000  0.4184000  4
    202    200    199    206     1  0.0000000  0.6508444  3
    202    203    468    467     1  180.0000771  6.2760000  1
    202    203    468    467     1  0.0000000  0.0000000  2
    203    468    467    466     1  0.0000000  2.2175200  1
    203    468    467    466     1  0.0000000  0.0000000  2
    203    468    467    466     1  180.0000771  0.6276000  3
    203    468    467    466     1  180.0000771  2.0920000  4
    204    201    199    206     1  0.0000000  0.6508444  3
    204    205    494    493     1  180.0000771  6.2760000  1
    204    205    494    493     1  0.0000000  0.0000000  2
    205    494    493    492     1  0.0000000  2.2175200  1
    205    494    493    492     1  0.0000000  0.0000000  2
    205    494    493    492     1  180.0000771  0.6276000  3
    205    494    493    492     1  180.0000771  2.0920000  4
    209    203    468    467     1  180.0000771  10.4600000  2
    210    205    494    493     1  180.0000771  10.4600000  2
    225    226    228    229     1  0.0000000  0.6508444  3
    225    227    230    231     1  0.0000000  0.6508444  3
    225    232    233    234     1  0.0000000  0.6508444  3
    226    225    227    230     1  0.0000000  0.6508444  3
    226    225    232    233     1  0.0000000  0.6508444  3
    226    228    229    235     1  180.0000771  0.0000000  2
    226    228    229    520     1  0.0000000  0.2928800  2
    226    228    229    520     1  0.0000000  0.4184000  4
    227    225    226    228     1  0.0000000  0.6508444  3
    227    225    232    233     1  0.0000000  0.6508444  3
    227    230    231    236     1  180.0000771  0.0000000  2
    227    230    231    546     1  0.0000000  0.2928800  2
    227    230    231    546     1  0.0000000  0.4184000  4
    228    226    225    232     1  0.0000000  0.6508444  3
    228    229    520    519     1  180.0000771  6.2760000  1
    228    229    520    519     1  0.0000000  0.0000000  2
    229    520    519    518     1  0.0000000  2.2175200  1
    229    520    519    518     1  0.0000000  0.0000000  2
    229    520    519    518     1  180.0000771  0.6276000  3
    229    520    519    518     1  180.0000771  2.0920000  4
    230    227    225    232     1  0.0000000  0.6508444  3
    230    231    546    545     1  180.0000771  6.2760000  1
    230    231    546    545     1  0.0000000  0.0000000  2
    231    546    545    544     1  0.0000000  2.2175200  1
    231    546    545    544     1  0.0000000  0.0000000  2
    231    546    545    544     1  180.0000771  0.6276000  3
    231    546    545    544     1  180.0000771  2.0920000  4
    235    229    520    519     1  180.0000771  10.4600000  2
    236    231    546    545     1  180.0000771  10.4600000  2
    251    252    254    255     1  0.0000000  0.6508444  3
    251    253    256    257     1  0.0000000  0.6508444  3
    251    258    259    260     1  0.0000000  0.6508444  3
    252    251    253    256     1  0.0000000  0.6508444  3
    252    251    258    259     1  0.0000000  0.6508444  3
    252    254    255    261     1  180.0000771  0.0000000  2
    252    254    255    572     1  0.0000000  0.2928800  2
    252    254    255    572     1  0.0000000  0.4184000  4
    253    251    252    254     1  0.0000000  0.6508444  3
    253    251    258    259     1  0.0000000  0.6508444  3
    253    256    257    262     1  180.0000771  0.0000000  2
    253    256    257    598     1  0.0000000  0.2928800  2
    253    256    257    598     1  0.0000000  0.4184000  4
    254    252    251    258     1  0.0000000  0.6508444  3
    254    255    572    571     1  180.0000771  6.2760000  1
    254    255    572    571     1  0.0000000  0.0000000  2
    255    572    571    570     1  0.0000000  2.2175200  1
    255    572    571    570     1  0.0000000  0.0000000  2
    255    572    571    570     1  180.0000771  0.6276000  3
    255    572    571    570     1  180.0000771  2.0920000  4
    256    253    251    258     1  0.0000000  0.6508444  3
    256    257    598    597     1  180.0000771  6.2760000  1
    256    257    598    597     1  0.0000000  0.0000000  2
    257    598    597    596     1  0.0000000  2.2175200  1
    257    598    597    596     1  0.0000000  0.0000000  2
    257    598    597    596     1  180.0000771  0.6276000  3
    257    598    597    596     1  180.0000771  2.0920000  4
    261    255    572    571     1  180.0000771  10.4600000  2
    262    257    598    597     1  180.0000771  10.4600000  2
    277    278    280    281     1  0.0000000  0.6508444  3
    277    279    282    283     1  0.0000000  0.6508444  3
    277    284    285    286     1  0.0000000  0.6508444  3
    278    277    279    282     1  0.0000000  0.6508444  3
    278    277    284    285     1  0.0000000  0.6508444  3
    278    280    281    287     1  180.0000771  0.0000000  2
    278    280    281    624     1  0.0000000  0.2928800  2
    278    280    281    624     1  0.0000000  0.4184000  4
    279    277    278    280     1  0.0000000  0.6508444  3
    279    277    284    285     1  0.0000000  0.6508444  3
    279    282    283    288     1  180.0000771  0.0000000  2
    279    282    283    650     1  0.0000000  0.2928800  2
    279    282    283    650     1  0.0000000  0.4184000  4
    280    278    277    284     1  0.0000000  0.6508444  3
    280    281    624    623     1  180.0000771  6.2760000  1
    280    281    624    623     1  0.0000000  0.0000000  2
    281    624    623    622     1  0.0000000  2.2175200  1
    281    624    623    622     1  0.0000000  0.0000000  2
    281    624    623    622     1  180.0000771  0.6276000  3
    281    624    623    622     1  180.0000771  2.0920000  4
    282    279    277    284     1  0.0000000  0.6508444  3
    282    283    650    649     1  180.0000771  6.2760000  1
    282    283    650    649     1  0.0000000  0.0000000  2
    283    650    649    648     1  0.0000000  2.2175200  1
    283    650    649    648     1  0.0000000  0.0000000  2
    283    650    649    648     1  180.0000771  0.6276000  3
    283    650    649    648     1  180.0000771  2.0920000  4
    287    281    624    623     1  180.0000771  10.4600000  2
    288    283    650    649     1  180.0000771  10.4600000  2
    303    304    306    307     1  0.0000000  0.6508444  3
    303    305    308    309     1  0.0000000  0.6508444  3
    303    310    311    312     1  0.0000000  0.6508444  3
    304    303    305    308     1  0.0000000  0.6508444  3
    304    303    310    311     1  0.0000000  0.6508444  3
    304    306    307    313     1  180.0000771  0.0000000  2
    304    306    307    676     1  0.0000000  0.2928800  2
    304    306    307    676     1  0.0000000  0.4184000  4
    305    303    304    306     1  0.0000000  0.6508444  3
    305    303    310    311     1  0.0000000  0.6508444  3
    305    308    309    314     1  180.0000771  0.0000000  2
    305    308    309    702     1  0.0000000  0.2928800  2
    305    308    309    702     1  0.0000000  0.4184000  4
    306    304    303    310     1  0.0000000  0.6508444  3
    306    307    676    675     1  180.0000771  6.2760000  1
    306    307    676    675     1  0.0000000  0.0000000  2
    307    676    675    674     1  0.0000000  2.2175200  1
    307    676    675    674     1  0.0000000  0.0000000  2
    307    676    675    674     1  180.0000771  0.6276000  3
    307    676    675    674     1  180.0000771  2.0920000  4
    308    305    303    310     1  0.0000000  0.6508444  3
    308    309    702    701     1  180.0000771  6.2760000  1
    308    309    702    701     1  0.0000000  0.0000000  2
    309    702    701    700     1  0.0000000  2.2175200  1
    309    702    701    700     1  0.0000000  0.0000000  2
    309    702    701    700     1  180.0000771  0.6276000  3
    309    702    701    700     1  180.0000771  2.0920000  4
    313    307    676    675     1  180.0000771  10.4600000  2
    314    309    702    701     1  180.0000771  10.4600000  2
    329    330    332    333     1  0.0000000  0.6508444  3
    329    331    334    335     1  0.0000000  0.6508444  3
    329    336    337    338     1  0.0000000  0.6508444  3
    330    329    331    334     1  0.0000000  0.6508444  3
    330    329    336    337     1  0.0000000  0.6508444  3
    330    332    333    339     1  180.0000771  0.0000000  2
    330    332    333    728     1  0.0000000  0.2928800  2
    330    332    333    728     1  0.0000000  0.4184000  4
    331    329    330    332     1  0.0000000  0.6508444  3
    331    329    336    337     1  0.0000000  0.6508444  3
    331    334    335    340     1  180.0000771  0.0000000  2
    331    334    335    754     1  0.0000000  0.2928800  2
    331    334    335    754     1  0.0000000  0.4184000  4
    332    330    329    336     1  0.0000000  0.6508444  3
    332    333    728    727     1  180.0000771  6.2760000  1
    332    333    728    727     1  0.0000000  0.0000000  2
    333    728    727    726     1  0.0000000  2.2175200  1
    333    728    727    726     1  0.0000000  0.0000000  2
    333    728    727    726     1  180.0000771  0.6276000  3
    333    728    727    726     1  180.0000771  2.0920000  4
    334    331    329    336     1  0.0000000  0.6508444  3
    334    335    754    753     1  180.0000771  6.2760000  1
    334    335    754    753     1  0.0000000  0.0000000  2
    335    754    753    752     1  0.0000000  2.2175200  1
    335    754    753    752     1  0.0000000  0.0000000  2
    335    754    753    752     1  180.0000771  0.6276000  3
    335    754    753    752     1  180.0000771  2.0920000  4
    339    333    728    727     1  180.0000771  10.4600000  2
    340    335    754    753     1  180.0000771  10.4600000  2
    355    356    358    359     1  0.0000000  0.6508444  3
    355    357    360    361     1  0.0000000  0.6508444  3
    355    362    363    364     1  0.0000000  0.6508444  3
    356    355    357    360     1  0.0000000  0.6508444  3
    356    355    362    363     1  0.0000000  0.6508444  3
    356    358    359    771     1  0.0000000  0.2928800  2
    356    358    359    771     1  0.0000000  0.4184000  4
    356    358    359    365     1  180.0000771  0.0000000  2
    357    355    356    358     1  0.0000000  0.6508444  3
    357    355    362    363     1  0.0000000  0.6508444  3
    357    360    361    366     1  180.0000771  0.0000000  2
    357    360    361    845     1  0.0000000  0.2928800  2
    357    360    361    845     1  0.0000000  0.4184000  4
    358    356    355    362     1  0.0000000  0.6508444  3
    358    359    771    773     1  180.0000771  6.2760000  1
    358    359    771    773     1  0.0000000  0.0000000  2
    359    771    773    775     1  0.0000000  2.2175200  1
    359    771    773    775     1  0.0000000  0.0000000  2
    359    771    773    775     1  180.0000771  0.6276000  3
    359    771    773    775     1  180.0000771  2.0920000  4
    360    357    355    362     1  0.0000000  0.6508444  3
    360    361    845    847     1  180.0000771  6.2760000  1
    360    361    845    847     1  0.0000000  0.0000000  2
    361    845    847    849     1  0.0000000  2.2175200  1
    361    845    847    849     1  0.0000000  0.0000000  2
    361    845    847    849     1  180.0000771  0.6276000  3
    361    845    847    849     1  180.0000771  2.0920000  4
    365    359    771    773     1  180.0000771  10.4600000  2
    366    361    845    847     1  180.0000771  10.4600000  2
    381    382    384    385     1  0.0000000  0.6508444  3
    381    383    386    387     1  0.0000000  0.6508444  3
    381    388    389    390     1  0.0000000  0.6508444  3
    382    381    383    386     1  0.0000000  0.6508444  3
    382    381    388    389     1  0.0000000  0.6508444  3
    382    384    385    919     1  0.0000000  0.2928800  2
    382    384    385    919     1  0.0000000  0.4184000  4
    382    384    385    391     1  180.0000771  0.0000000  2
    383    381    382    384     1  0.0000000  0.6508444  3
    383    381    388    389     1  0.0000000  0.6508444  3
    383    386    387    392     1  180.0000771  0.0000000  2
    383    386    387    993     1  0.0000000  0.2928800  2
    383    386    387    993     1  0.0000000  0.4184000  4
    384    382    381    388     1  0.0000000  0.6508444  3
    384    385    919    921     1  180.0000771  6.2760000  1
    384    385    919    921     1  0.0000000  0.0000000  2
    385    919    921    923     1  0.0000000  2.2175200  1
    385    919    921    923     1  0.0000000  0.0000000  2
    385    919    921    923     1  180.0000771  0.6276000  3
    385    919    921    923     1  180.0000771  2.0920000  4
    386    383    381    388     1  0.0000000  0.6508444  3
    386    387    993    995     1  180.0000771  6.2760000  1
    386    387    993    995     1  0.0000000  0.0000000  2
    387    993    995    997     1  0.0000000  2.2175200  1
    387    993    995    997     1  0.0000000  0.0000000  2
    387    993    995    997     1  180.0000771  0.6276000  3
    387    993    995    997     1  180.0000771  2.0920000  4
    391    385    919    921     1  180.0000771  10.4600000  2
    392    387    993    995     1  180.0000771  10.4600000  2
    407    408    410    411     1  0.0000000  0.6508444  3
    407    409    412    413     1  0.0000000  0.6508444  3
    407    414    415    416     1  0.0000000  0.6508444  3
    408    407    409    412     1  0.0000000  0.6508444  3
    408    407    414    415     1  0.0000000  0.6508444  3
    408    410    411   1067     1  0.0000000  0.2928800  2
    408    410    411   1067     1  0.0000000  0.4184000  4
    408    410    411    417     1  180.0000771  0.0000000  2
    409    407    408    410     1  0.0000000  0.6508444  3
    409    407    414    415     1  0.0000000  0.6508444  3
    409    412    413    418     1  180.0000771  0.0000000  2
    409    412    413   1141     1  0.0000000  0.2928800  2
    409    412    413   1141     1  0.0000000  0.4184000  4
    410    408    407    414     1  0.0000000  0.6508444  3
    410    411   1067   1069     1  180.0000771  6.2760000  1
    410    411   1067   1069     1  0.0000000  0.0000000  2
    411   1067   1069   1071     1  0.0000000  2.2175200  1
    411   1067   1069   1071     1  0.0000000  0.0000000  2
    411   1067   1069   1071     1  180.0000771  0.6276000  3
    411   1067   1069   1071     1  180.0000771  2.0920000  4
    412    409    407    414     1  0.0000000  0.6508444  3
    412    413   1141   1143     1  180.0000771  6.2760000  1
    412    413   1141   1143     1  0.0000000  0.0000000  2
    413   1141   1143   1145     1  0.0000000  2.2175200  1
    413   1141   1143   1145     1  0.0000000  0.0000000  2
    413   1141   1143   1145     1  180.0000771  0.6276000  3
    413   1141   1143   1145     1  180.0000771  2.0920000  4
    417    411   1067   1069     1  180.0000771  10.4600000  2
    418    413   1141   1143     1  180.0000771  10.4600000  2
    433    434    436    437     1  0.0000000  0.6508444  3
    433    435    438    439     1  0.0000000  0.6508444  3
    433    440    441    442     1  0.0000000  0.6508444  3
    434    433    435    438     1  0.0000000  0.6508444  3
    434    433    440    441     1  0.0000000  0.6508444  3
    434    436    437   1215     1  0.0000000  0.2928800  2
    434    436    437   1215     1  0.0000000  0.4184000  4
    434    436    437    443     1  180.0000771  0.0000000  2
    435    433    434    436     1  0.0000000  0.6508444  3
    435    433    440    441     1  0.0000000  0.6508444  3
    435    438    439    444     1  180.0000771  0.0000000  2
    435    438    439   1289     1  0.0000000  0.2928800  2
    435    438    439   1289     1  0.0000000  0.4184000  4
    436    434    433    440     1  0.0000000  0.6508444  3
    436    437   1215   1217     1  180.0000771  6.2760000  1
    436    437   1215   1217     1  0.0000000  0.0000000  2
    437   1215   1217   1219     1  0.0000000  2.2175200  1
    437   1215   1217   1219     1  0.0000000  0.0000000  2
    437   1215   1217   1219     1  180.0000771  0.6276000  3
    437   1215   1217   1219     1  180.0000771  2.0920000  4
    438    435    433    440     1  0.0000000  0.6508444  3
    438    439   1289   1291     1  180.0000771  6.2760000  1
    438    439   1289   1291     1  0.0000000  0.0000000  2
    439   1289   1291   1293     1  0.0000000  2.2175200  1
    439   1289   1291   1293     1  0.0000000  0.0000000  2
    439   1289   1291   1293     1  180.0000771  0.6276000  3
    439   1289   1291   1293     1  180.0000771  2.0920000  4
    443    437   1215   1217     1  180.0000771  10.4600000  2
    444    439   1289   1291     1  180.0000771  10.4600000  2
    459    460    462    463     1  0.0000000  0.6508444  3
    459    461    464    465     1  0.0000000  0.6508444  3
    459    466    467    468     1  0.0000000  0.6508444  3
    460    459    461    464     1  0.0000000  0.6508444  3
    460    459    466    467     1  0.0000000  0.6508444  3
    460    462    463   1363     1  0.0000000  0.2928800  2
    460    462    463   1363     1  0.0000000  0.4184000  4
    460    462    463    469     1  180.0000771  0.0000000  2
    461    459    460    462     1  0.0000000  0.6508444  3
    461    459    466    467     1  0.0000000  0.6508444  3
    461    464    465    470     1  180.0000771  0.0000000  2
    461    464    465   1437     1  0.0000000  0.2928800  2
    461    464    465   1437     1  0.0000000  0.4184000  4
    462    460    459    466     1  0.0000000  0.6508444  3
    462    463   1363   1365     1  180.0000771  6.2760000  1
    462    463   1363   1365     1  0.0000000  0.0000000  2
    463   1363   1365   1367     1  0.0000000  2.2175200  1
    463   1363   1365   1367     1  0.0000000  0.0000000  2
    463   1363   1365   1367     1  180.0000771  0.6276000  3
    463   1363   1365   1367     1  180.0000771  2.0920000  4
    464    461    459    466     1  0.0000000  0.6508444  3
    464    465   1437   1439     1  180.0000771  6.2760000  1
    464    465   1437   1439     1  0.0000000  0.0000000  2
    465   1437   1439   1441     1  0.0000000  2.2175200  1
    465   1437   1439   1441     1  0.0000000  0.0000000  2
    465   1437   1439   1441     1  180.0000771  0.6276000  3
    465   1437   1439   1441     1  180.0000771  2.0920000  4
    469    463   1363   1365     1  180.0000771  10.4600000  2
    470    465   1437   1439     1  180.0000771  10.4600000  2
    485    486    488    489     1  0.0000000  0.6508444  3
    485    487    490    491     1  0.0000000  0.6508444  3
    485    492    493    494     1  0.0000000  0.6508444  3
    486    485    487    490     1  0.0000000  0.6508444  3
    486    485    492    493     1  0.0000000  0.6508444  3
    486    488    489   1511     1  0.0000000  0.2928800  2
    486    488    489   1511     1  0.0000000  0.4184000  4
    486    488    489    495     1  180.0000771  0.0000000  2
    487    485    486    488     1  0.0000000  0.6508444  3
    487    485    492    493     1  0.0000000  0.6508444  3
    487    490    491    496     1  180.0000771  0.0000000  2
    487    490    491   1585     1  0.0000000  0.2928800  2
    487    490    491   1585     1  0.0000000  0.4184000  4
    488    486    485    492     1  0.0000000  0.6508444  3
    488    489   1511   1513     1  180.0000771  6.2760000  1
    488    489   1511   1513     1  0.0000000  0.0000000  2
    489   1511   1513   1515     1  0.0000000  2.2175200  1
    489   1511   1513   1515     1  0.0000000  0.0000000  2
    489   1511   1513   1515     1  180.0000771  0.6276000  3
    489   1511   1513   1515     1  180.0000771  2.0920000  4
    490    487    485    492     1  0.0000000  0.6508444  3
    490    491   1585   1587     1  180.0000771  6.2760000  1
    490    491   1585   1587     1  0.0000000  0.0000000  2
    491   1585   1587   1589     1  0.0000000  2.2175200  1
    491   1585   1587   1589     1  0.0000000  0.0000000  2
    491   1585   1587   1589     1  180.0000771  0.6276000  3
    491   1585   1587   1589     1  180.0000771  2.0920000  4
    495    489   1511   1513     1  180.0000771  10.4600000  2
    496    491   1585   1587     1  180.0000771  10.4600000  2
    511    512    514    515     1  0.0000000  0.6508444  3
    511    513    516    517     1  0.0000000  0.6508444  3
    511    518    519    520     1  0.0000000  0.6508444  3
    512    511    513    516     1  0.0000000  0.6508444  3
    512    511    518    519     1  0.0000000  0.6508444  3
    512    514    515   1659     1  0.0000000  0.2928800  2
    512    514    515   1659     1  0.0000000  0.4184000  4
    512    514    515    521     1  180.0000771  0.0000000  2
    513    511    512    514     1  0.0000000  0.6508444  3
    513    511    518    519     1  0.0000000  0.6508444  3
    513    516    517    522     1  180.0000771  0.0000000  2
    513    516    517   1733     1  0.0000000  0.2928800  2
    513    516    517   1733     1  0.0000000  0.4184000  4
    514    512    511    518     1  0.0000000  0.6508444  3
    514    515   1659   1661     1  180.0000771  6.2760000  1
    514    515   1659   1661     1  0.0000000  0.0000000  2
    515   1659   1661   1663     1  0.0000000  2.2175200  1
    515   1659   1661   1663     1  0.0000000  0.0000000  2
    515   1659   1661   1663     1  180.0000771  0.6276000  3
    515   1659   1661   1663     1  180.0000771  2.0920000  4
    516    513    511    518     1  0.0000000  0.6508444  3
    516    517   1733   1735     1  180.0000771  6.2760000  1
    516    517   1733   1735     1  0.0000000  0.0000000  2
    517   1733   1735   1737     1  0.0000000  2.2175200  1
    517   1733   1735   1737     1  0.0000000  0.0000000  2
    517   1733   1735   1737     1  180.0000771  0.6276000  3
    517   1733   1735   1737     1  180.0000771  2.0920000  4
    521    515   1659   1661     1  180.0000771  10.4600000  2
    522    517   1733   1735     1  180.0000771  10.4600000  2
    537    538    540    541     1  0.0000000  0.6508444  3
    537    539    542    543     1  0.0000000  0.6508444  3
    537    544    545    546     1  0.0000000  0.6508444  3
    538    537    539    542     1  0.0000000  0.6508444  3
    538    537    544    545     1  0.0000000  0.6508444  3
    538    540    541   1807     1  0.0000000  0.2928800  2
    538    540    541   1807     1  0.0000000  0.4184000  4
    538    540    541    547     1  180.0000771  0.0000000  2
    539    537    538    540     1  0.0000000  0.6508444  3
    539    537    544    545     1  0.0000000  0.6508444  3
    539    542    543    548     1  180.0000771  0.0000000  2
    539    542    543   1881     1  0.0000000  0.2928800  2
    539    542    543   1881     1  0.0000000  0.4184000  4
    540    538    537    544     1  0.0000000  0.6508444  3
    540    541   1807   1809     1  180.0000771  6.2760000  1
    540    541   1807   1809     1  0.0000000  0.0000000  2
    541   1807   1809   1811     1  0.0000000  2.2175200  1
    541   1807   1809   1811     1  0.0000000  0.0000000  2
    541   1807   1809   1811     1  180.0000771  0.6276000  3
    541   1807   1809   1811     1  180.0000771  2.0920000  4
    542    539    537    544     1  0.0000000  0.6508444  3
    542    543   1881   1883     1  180.0000771  6.2760000  1
    542    543   1881   1883     1  0.0000000  0.0000000  2
    543   1881   1883   1885     1  0.0000000  2.2175200  1
    543   1881   1883   1885     1  0.0000000  0.0000000  2
    543   1881   1883   1885     1  180.0000771  0.6276000  3
    543   1881   1883   1885     1  180.0000771  2.0920000  4
    547    541   1807   1809     1  180.0000771  10.4600000  2
    548    543   1881   1883     1  180.0000771  10.4600000  2
    563    564    566    567     1  0.0000000  0.6508444  3
    563    565    568    569     1  0.0000000  0.6508444  3
    563    570    571    572     1  0.0000000  0.6508444  3
    564    563    565    568     1  0.0000000  0.6508444  3
    564    563    570    571     1  0.0000000  0.6508444  3
    564    566    567   1955     1  0.0000000  0.2928800  2
    564    566    567   1955     1  0.0000000  0.4184000  4
    564    566    567    573     1  180.0000771  0.0000000  2
    565    563    564    566     1  0.0000000  0.6508444  3
    565    563    570    571     1  0.0000000  0.6508444  3
    565    568    569    574     1  180.0000771  0.0000000  2
    565    568    569   2029     1  0.0000000  0.2928800  2
    565    568    569   2029     1  0.0000000  0.4184000  4
    566    564    563    570     1  0.0000000  0.6508444  3
    566    567   1955   1957     1  180.0000771  6.2760000  1
    566    567   1955   1957     1  0.0000000  0.0000000  2
    567   1955   1957   1959     1  0.0000000  2.2175200  1
    567   1955   1957   1959     1  0.0000000  0.0000000  2
    567   1955   1957   1959     1  180.0000771  0.6276000  3
    567   1955   1957   1959     1  180.0000771  2.0920000  4
    568    565    563    570     1  0.0000000  0.6508444  3
    568    569   2029   2031     1  180.0000771  6.2760000  1
    568    569   2029   2031     1  0.0000000  0.0000000  2
    569   2029   2031   2033     1  0.0000000  2.2175200  1
    569   2029   2031   2033     1  0.0000000  0.0000000  2
    569   2029   2031   2033     1  180.0000771  0.6276000  3
    569   2029   2031   2033     1  180.0000771  2.0920000  4
    573    567   1955   1957     1  180.0000771  10.4600000  2
    574    569   2029   2031     1  180.0000771  10.4600000  2
    589    590    592    593     1  0.0000000  0.6508444  3
    589    591    594    595     1  0.0000000  0.6508444  3
    589    596    597    598     1  0.0000000  0.6508444  3
    590    589    591    594     1  0.0000000  0.6508444  3
    590    589    596    597     1  0.0000000  0.6508444  3
    590    592    593   2103     1  0.0000000  0.2928800  2
    590    592    593   2103     1  0.0000000  0.4184000  4
    590    592    593    599     1  180.0000771  0.0000000  2
    591    589    590    592     1  0.0000000  0.6508444  3
    591    589    596    597     1  0.0000000  0.6508444  3
    591    594    595    600     1  180.0000771  0.0000000  2
    591    594    595   2177     1  0.0000000  0.2928800  2
    591    594    595   2177     1  0.0000000  0.4184000  4
    592    590    589    596     1  0.0000000  0.6508444  3
    592    593   2103   2105     1  180.0000771  6.2760000  1
    592    593   2103   2105     1  0.0000000  0.0000000  2
    593   2103   2105   2107     1  0.0000000  2.2175200  1
    593   2103   2105   2107     1  0.0000000  0.0000000  2
    593   2103   2105   2107     1  180.0000771  0.6276000  3
    593   2103   2105   2107     1  180.0000771  2.0920000  4
    594    591    589    596     1  0.0000000  0.6508444  3
    594    595   2177   2179     1  180.0000771  6.2760000  1
    594    595   2177   2179     1  0.0000000  0.0000000  2
    595   2177   2179   2181     1  0.0000000  2.2175200  1
    595   2177   2179   2181     1  0.0000000  0.0000000  2
    595   2177   2179   2181     1  180.0000771  0.6276000  3
    595   2177   2179   2181     1  180.0000771  2.0920000  4
    599    593   2103   2105     1  180.0000771  10.4600000  2
    600    595   2177   2179     1  180.0000771  10.4600000  2
    615    616    618    619     1  0.0000000  0.6508444  3
    615    617    620    621     1  0.0000000  0.6508444  3
    615    622    623    624     1  0.0000000  0.6508444  3
    616    615    617    620     1  0.0000000  0.6508444  3
    616    615    622    623     1  0.0000000  0.6508444  3
    616    618    619   2251     1  0.0000000  0.2928800  2
    616    618    619   2251     1  0.0000000  0.4184000  4
    616    618    619    625     1  180.0000771  0.0000000  2
    617    615    616    618     1  0.0000000  0.6508444  3
    617    615    622    623     1  0.0000000  0.6508444  3
    617    620    621    626     1  180.0000771  0.0000000  2
    617    620    621   2325     1  0.0000000  0.2928800  2
    617    620    621   2325     1  0.0000000  0.4184000  4
    618    616    615    622     1  0.0000000  0.6508444  3
    618    619   2251   2253     1  180.0000771  6.2760000  1
    618    619   2251   2253     1  0.0000000  0.0000000  2
    619   2251   2253   2255     1  0.0000000  2.2175200  1
    619   2251   2253   2255     1  0.0000000  0.0000000  2
    619   2251   2253   2255     1  180.0000771  0.6276000  3
    619   2251   2253   2255     1  180.0000771  2.0920000  4
    620    617    615    622     1  0.0000000  0.6508444  3
    620    621   2325   2327     1  180.0000771  6.2760000  1
    620    621   2325   2327     1  0.0000000  0.0000000  2
    621   2325   2327   2329     1  0.0000000  2.2175200  1
    621   2325   2327   2329     1  0.0000000  0.0000000  2
    621   2325   2327   2329     1  180.0000771  0.6276000  3
    621   2325   2327   2329     1  180.0000771  2.0920000  4
    625    619   2251   2253     1  180.0000771  10.4600000  2
    626    621   2325   2327     1  180.0000771  10.4600000  2
    641    642    644    645     1  0.0000000  0.6508444  3
    641    643    646    647     1  0.0000000  0.6508444  3
    641    648    649    650     1  0.0000000  0.6508444  3
    642    641    643    646     1  0.0000000  0.6508444  3
    642    641    648    649     1  0.0000000  0.6508444  3
    642    644    645   2399     1  0.0000000  0.2928800  2
    642    644    645   2399     1  0.0000000  0.4184000  4
    642    644    645    651     1  180.0000771  0.0000000  2
    643    641    642    644     1  0.0000000  0.6508444  3
    643    641    648    649     1  0.0000000  0.6508444  3
    643    646    647    652     1  180.0000771  0.0000000  2
    643    646    647   2473     1  0.0000000  0.2928800  2
    643    646    647   2473     1  0.0000000  0.4184000  4
    644    642    641    648     1  0.0000000  0.6508444  3
    644    645   2399   2401     1  180.0000771  6.2760000  1
    644    645   2399   2401     1  0.0000000  0.0000000  2
    645   2399   2401   2403     1  0.0000000  2.2175200  1
    645   2399   2401   2403     1  0.0000000  0.0000000  2
    645   2399   2401   2403     1  180.0000771  0.6276000  3
    645   2399   2401   2403     1  180.0000771  2.0920000  4
    646    643    641    648     1  0.0000000  0.6508444  3
    646    647   2473   2475     1  180.0000771  6.2760000  1
    646    647   2473   2475     1  0.0000000  0.0000000  2
    647   2473   2475   2477     1  0.0000000  2.2175200  1
    647   2473   2475   2477     1  0.0000000  0.0000000  2
    647   2473   2475   2477     1  180.0000771  0.6276000  3
    647   2473   2475   2477     1  180.0000771  2.0920000  4
    651    645   2399   2401     1  180.0000771  10.4600000  2
    652    647   2473   2475     1  180.0000771  10.4600000  2
    667    668    670    671     1  0.0000000  0.6508444  3
    667    669    672    673     1  0.0000000  0.6508444  3
    667    674    675    676     1  0.0000000  0.6508444  3
    668    667    669    672     1  0.0000000  0.6508444  3
    668    667    674    675     1  0.0000000  0.6508444  3
    668    670    671   2547     1  0.0000000  0.2928800  2
    668    670    671   2547     1  0.0000000  0.4184000  4
    668    670    671    677     1  180.0000771  0.0000000  2
    669    667    668    670     1  0.0000000  0.6508444  3
    669    667    674    675     1  0.0000000  0.6508444  3
    669    672    673    678     1  180.0000771  0.0000000  2
    669    672    673   2621     1  0.0000000  0.2928800  2
    669    672    673   2621     1  0.0000000  0.4184000  4
    670    668    667    674     1  0.0000000  0.6508444  3
    670    671   2547   2549     1  180.0000771  6.2760000  1
    670    671   2547   2549     1  0.0000000  0.0000000  2
    671   2547   2549   2551     1  0.0000000  2.2175200  1
    671   2547   2549   2551     1  0.0000000  0.0000000  2
    671   2547   2549   2551     1  180.0000771  0.6276000  3
    671   2547   2549   2551     1  180.0000771  2.0920000  4
    672    669    667    674     1  0.0000000  0.6508444  3
    672    673   2621   2623     1  180.0000771  6.2760000  1
    672    673   2621   2623     1  0.0000000  0.0000000  2
    673   2621   2623   2625     1  0.0000000  2.2175200  1
    673   2621   2623   2625     1  0.0000000  0.0000000  2
    673   2621   2623   2625     1  180.0000771  0.6276000  3
    673   2621   2623   2625     1  180.0000771  2.0920000  4
    677    671   2547   2549     1  180.0000771  10.4600000  2
    678    673   2621   2623     1  180.0000771  10.4600000  2
    693    694    696    697     1  0.0000000  0.6508444  3
    693    695    698    699     1  0.0000000  0.6508444  3
    693    700    701    702     1  0.0000000  0.6508444  3
    694    693    695    698     1  0.0000000  0.6508444  3
    694    693    700    701     1  0.0000000  0.6508444  3
    694    696    697   2695     1  0.0000000  0.2928800  2
    694    696    697   2695     1  0.0000000  0.4184000  4
    694    696    697    703     1  180.0000771  0.0000000  2
    695    693    694    696     1  0.0000000  0.6508444  3
    695    693    700    701     1  0.0000000  0.6508444  3
    695    698    699    704     1  180.0000771  0.0000000  2
    695    698    699   2769     1  0.0000000  0.2928800  2
    695    698    699   2769     1  0.0000000  0.4184000  4
    696    694    693    700     1  0.0000000  0.6508444  3
    696    697   2695   2697     1  180.0000771  6.2760000  1
    696    697   2695   2697     1  0.0000000  0.0000000  2
    697   2695   2697   2699     1  0.0000000  2.2175200  1
    697   2695   2697   2699     1  0.0000000  0.0000000  2
    697   2695   2697   2699     1  180.0000771  0.6276000  3
    697   2695   2697   2699     1  180.0000771  2.0920000  4
    698    695    693    700     1  0.0000000  0.6508444  3
    698    699   2769   2771     1  180.0000771  6.2760000  1
    698    699   2769   2771     1  0.0000000  0.0000000  2
    699   2769   2771   2773     1  0.0000000  2.2175200  1
    699   2769   2771   2773     1  0.0000000  0.0000000  2
    699   2769   2771   2773     1  180.0000771  0.6276000  3
    699   2769   2771   2773     1  180.0000771  2.0920000  4
    703    697   2695   2697     1  180.0000771  10.4600000  2
    704    699   2769   2771     1  180.0000771  10.4600000  2
    719    720    722    723     1  0.0000000  0.6508444  3
    719    721    724    725     1  0.0000000  0.6508444  3
    719    726    727    728     1  0.0000000  0.6508444  3
    720    719    721    724     1  0.0000000  0.6508444  3
    720    719    726    727     1  0.0000000  0.6508444  3
    720    722    723   2843     1  0.0000000  0.2928800  2
    720    722    723   2843     1  0.0000000  0.4184000  4
    720    722    723    729     1  180.0000771  0.0000000  2
    721    719    720    722     1  0.0000000  0.6508444  3
    721    719    726    727     1  0.0000000  0.6508444  3
    721    724    725    730     1  180.0000771  0.0000000  2
    721    724    725   2917     1  0.0000000  0.2928800  2
    721    724    725   2917     1  0.0000000  0.4184000  4
    722    720    719    726     1  0.0000000  0.6508444  3
    722    723   2843   2845     1  180.0000771  6.2760000  1
    722    723   2843   2845     1  0.0000000  0.0000000  2
    723   2843   2845   2847     1  0.0000000  2.2175200  1
    723   2843   2845   2847     1  0.0000000  0.0000000  2
    723   2843   2845   2847     1  180.0000771  0.6276000  3
    723   2843   2845   2847     1  180.0000771  2.0920000  4
    724    721    719    726     1  0.0000000  0.6508444  3
    724    725   2917   2919     1  180.0000771  6.2760000  1
    724    725   2917   2919     1  0.0000000  0.0000000  2
    725   2917   2919   2921     1  0.0000000  2.2175200  1
    725   2917   2919   2921     1  0.0000000  0.0000000  2
    725   2917   2919   2921     1  180.0000771  0.6276000  3
    725   2917   2919   2921     1  180.0000771  2.0920000  4
    729    723   2843   2845     1  180.0000771  10.4600000  2
    730    725   2917   2919     1  180.0000771  10.4600000  2
    745    746    748    749     1  0.0000000  0.6508444  3
    745    747    750    751     1  0.0000000  0.6508444  3
    745    752    753    754     1  0.0000000  0.6508444  3
    746    745    747    750     1  0.0000000  0.6508444  3
    746    745    752    753     1  0.0000000  0.6508444  3
    746    748    749   2991     1  0.0000000  0.2928800  2
    746    748    749   2991     1  0.0000000  0.4184000  4
    746    748    749    755     1  180.0000771  0.0000000  2
    747    745    746    748     1  0.0000000  0.6508444  3
    747    745    752    753     1  0.0000000  0.6508444  3
    747    750    751   3065     1  0.0000000  0.2928800  2
    747    750    751   3065     1  0.0000000  0.4184000  4
    747    750    751    756     1  180.0000771  0.0000000  2
    748    746    745    752     1  0.0000000  0.6508444  3
    748    749   2991   2993     1  180.0000771  6.2760000  1
    748    749   2991   2993     1  0.0000000  0.0000000  2
    749   2991   2993   2995     1  0.0000000  2.2175200  1
    749   2991   2993   2995     1  0.0000000  0.0000000  2
    749   2991   2993   2995     1  180.0000771  0.6276000  3
    749   2991   2993   2995     1  180.0000771  2.0920000  4
    750    747    745    752     1  0.0000000  0.6508444  3
    750    751   3065   3067     1  180.0000771  6.2760000  1
    750    751   3065   3067     1  0.0000000  0.0000000  2
    751   3065   3067   3069     1  0.0000000  2.2175200  1
    751   3065   3067   3069     1  0.0000000  0.0000000  2
    751   3065   3067   3069     1  180.0000771  0.6276000  3
    751   3065   3067   3069     1  180.0000771  2.0920000  4
    755    749   2991   2993     1  180.0000771  10.4600000  2
    756    751   3065   3067     1  180.0000771  10.4600000  2
    771    773    775    779     1  0.0000000  0.6508444  3
    773    775    779    780     1  0.0000000  0.6508444  3
    773    775    779    781     1  0.0000000  0.6508444  3
    775    779    780    791     1  0.0000000  0.6508444  3
    775    779    781    783     1  0.0000000  0.6508444  3
    779    780    791    794     1  0.0000000  0.6508444  3
    779    781    783    787     1  0.0000000  0.6508444  3
    780    779    781    783     1  0.0000000  0.6508444  3
    780    791    794    795     1  180.0000771  0.0000000  2
    780    791    794    843     1  180.0000771  0.0000000  2
    781    779    780    791     1  0.0000000  0.6508444  3
    781    783    787    788     1  180.0000771  0.0000000  2
    781    783    787    819     1  180.0000771  0.0000000  2
    783    787    819    800     1  180.0000771  6.0668000  2
    783    787    819    800     1  180.0000771  1.4644000  4
    787    819    800    799     1  0.0000000  1.2552000  3
    787    819    800    801     1  0.0000000  1.2552000  3
    788    787    819    800     1  180.0000771  6.0668000  2
    788    787    819    800     1  180.0000771  1.4644000  4
    791    794    843    824     1  180.0000771  6.0668000  2
    791    794    843    824     1  180.0000771  1.4644000  4
    794    843    824    823     1  0.0000000  1.2552000  3
    794    843    824    825     1  0.0000000  1.2552000  3
    795    794    843    824     1  180.0000771  6.0668000  2
    795    794    843    824     1  180.0000771  1.4644000  4
    796    797    799    800     1  180.0000771  0.8368000  1
    796    797    799    800     1  180.0000771  1.0460000  2
    796    797    799    800     1  0.0000000  0.7531200  3
    796    797    799    806     1  0.0000000  0.6508444  3
    796    814    801    800     1  180.0000771  0.4184000  2
    796    814    801    800     1  0.0000000  1.6024720  3
    796    814    801    805     1  0.0000000  1.6038667  3
    797    796    807    812     1  0.0000000  0.6508444  3
    797    796    814    801     1  180.0000771  0.4184000  2
    797    796    814    801     1  0.0000000  1.6024720  3
    797    799    800    801     1  180.0000771  0.8368000  1
    797    799    800    801     1  180.0000771  1.0460000  2
    797    799    800    801     1  0.0000000  0.7531200  3
    797    799    800    819     1  0.0000000  0.6508444  3
    799    797    796    807     1  180.0000771  0.8368000  1
    799    797    796    807     1  180.0000771  1.0460000  2
    799    797    796    807     1  0.0000000  0.7531200  3
    799    797    796    814     1  0.0000000  0.6508444  3
    799    800    801    805     1  0.0000000  0.6508444  3
    799    800    801    814     1  0.0000000  0.6508444  3
    800    799    797    817     1  0.0000000  0.6508444  3
    801    800    799    806     1  0.0000000  0.6508444  3
    801    814    796    807     1  180.0000771  0.4184000  2
    801    814    796    807     1  0.0000000  1.6024720  3
    805    801    800    819     1  0.0000000  0.6508444  3
    806    799    797    817     1  0.0000000  4.9162000  2
    806    799    797    817     1  0.0000000  0.6024960  3
    806    799    800    819     1  0.0000000  0.6508444  3
    807    796    797    817     1  0.0000000  0.6508444  3
    812    807    796    814     1  0.0000000  4.9162000  2
    812    807    796    814     1  0.0000000  0.6024960  3
    814    796    797    817     1  0.0000000  4.9162000  2
    814    796    797    817     1  0.0000000  0.6024960  3
    814    801    800    819     1  0.0000000  0.6508444  3
    820    821    823    824     1  180.0000771  0.8368000  1
    820    821    823    824     1  180.0000771  1.0460000  2
    820    821    823    824     1  0.0000000  0.7531200  3
    820    821    823    830     1  0.0000000  0.6508444  3
    820    838    825    824     1  180.0000771  0.4184000  2
    820    838    825    824     1  0.0000000  1.6024720  3
    820    838    825    829     1  0.0000000  1.6038667  3
    821    820    831    836     1  0.0000000  0.6508444  3
    821    820    838    825     1  180.0000771  0.4184000  2
    821    820    838    825     1  0.0000000  1.6024720  3
    821    823    824    825     1  180.0000771  0.8368000  1
    821    823    824    825     1  180.0000771  1.0460000  2
    821    823    824    825     1  0.0000000  0.7531200  3
    821    823    824    843     1  0.0000000  0.6508444  3
    823    821    820    831     1  180.0000771  0.8368000  1
    823    821    820    831     1  180.0000771  1.0460000  2
    823    821    820    831     1  0.0000000  0.7531200  3
    823    821    820    838     1  0.0000000  0.6508444  3
    823    824    825    829     1  0.0000000  0.6508444  3
    823    824    825    838     1  0.0000000  0.6508444  3
    824    823    821    841     1  0.0000000  0.6508444  3
    825    824    823    830     1  0.0000000  0.6508444  3
    825    838    820    831     1  180.0000771  0.4184000  2
    825    838    820    831     1  0.0000000  1.6024720  3
    829    825    824    843     1  0.0000000  0.6508444  3
    830    823    821    841     1  0.0000000  4.9162000  2
    830    823    821    841     1  0.0000000  0.6024960  3
    830    823    824    843     1  0.0000000  0.6508444  3
    831    820    821    841     1  0.0000000  0.6508444  3
    836    831    820    838     1  0.0000000  4.9162000  2
    836    831    820    838     1  0.0000000  0.6024960  3
    838    820    821    841     1  0.0000000  4.9162000  2
    838    820    821    841     1  0.0000000  0.6024960  3
    838    825    824    843     1  0.0000000  0.6508444  3
    845    847    849    853     1  0.0000000  0.6508444  3
    847    849    853    854     1  0.0000000  0.6508444  3
    847    849    853    855     1  0.0000000  0.6508444  3
    849    853    854    865     1  0.0000000  0.6508444  3
    849    853    855    857     1  0.0000000  0.6508444  3
    853    854    865    868     1  0.0000000  0.6508444  3
    853    855    857    861     1  0.0000000  0.6508444  3
    854    865    868    869     1  180.0000771  0.0000000  2
    854    865    868    917     1  180.0000771  0.0000000  2
    854    853    855    857     1  0.0000000  0.6508444  3
    855    857    861    862     1  180.0000771  0.0000000  2
    855    857    861    893     1  180.0000771  0.0000000  2
    855    853    854    865     1  0.0000000  0.6508444  3
    857    861    893    874     1  180.0000771  6.0668000  2
    857    861    893    874     1  180.0000771  1.4644000  4
    861    893    874    875     1  0.0000000  1.2552000  3
    861    893    874    873     1  0.0000000  1.2552000  3
    862    861    893    874     1  180.0000771  6.0668000  2
    862    861    893    874     1  180.0000771  1.4644000  4
    865    868    917    898     1  180.0000771  6.0668000  2
    865    868    917    898     1  180.0000771  1.4644000  4
    868    917    898    899     1  0.0000000  1.2552000  3
    868    917    898    897     1  0.0000000  1.2552000  3
    869    868    917    898     1  180.0000771  6.0668000  2
    869    868    917    898     1  180.0000771  1.4644000  4
    870    871    873    874     1  180.0000771  0.8368000  1
    870    871    873    874     1  180.0000771  1.0460000  2
    870    871    873    874     1  0.0000000  0.7531200  3
    870    871    873    880     1  0.0000000  0.6508444  3
    870    888    875    879     1  0.0000000  1.6038667  3
    870    888    875    874     1  180.0000771  0.4184000  2
    870    888    875    874     1  0.0000000  1.6024720  3
    871    873    874    875     1  180.0000771  0.8368000  1
    871    873    874    875     1  180.0000771  1.0460000  2
    871    873    874    875     1  0.0000000  0.7531200  3
    871    873    874    893     1  0.0000000  0.6508444  3
    871    870    881    886     1  0.0000000  0.6508444  3
    871    870    888    875     1  180.0000771  0.4184000  2
    871    870    888    875     1  0.0000000  1.6024720  3
    873    874    875    879     1  0.0000000  0.6508444  3
    873    874    875    888     1  0.0000000  0.6508444  3
    873    871    870    881     1  180.0000771  0.8368000  1
    873    871    870    881     1  180.0000771  1.0460000  2
    873    871    870    881     1  0.0000000  0.7531200  3
    873    871    870    888     1  0.0000000  0.6508444  3
    874    873    871    891     1  0.0000000  0.6508444  3
    875    888    870    881     1  180.0000771  0.4184000  2
    875    888    870    881     1  0.0000000  1.6024720  3
    875    874    873    880     1  0.0000000  0.6508444  3
    879    875    874    893     1  0.0000000  0.6508444  3
    880    873    874    893     1  0.0000000  0.6508444  3
    880    873    871    891     1  0.0000000  4.9162000  2
    880    873    871    891     1  0.0000000  0.6024960  3
    881    870    871    891     1  0.0000000  0.6508444  3
    886    881    870    888     1  0.0000000  4.9162000  2
    886    881    870    888     1  0.0000000  0.6024960  3
    888    875    874    893     1  0.0000000  0.6508444  3
    888    870    871    891     1  0.0000000  4.9162000  2
    888    870    871    891     1  0.0000000  0.6024960  3
    894    895    897    898     1  180.0000771  0.8368000  1
    894    895    897    898     1  180.0000771  1.0460000  2
    894    895    897    898     1  0.0000000  0.7531200  3
    894    895    897    904     1  0.0000000  0.6508444  3
    894    912    899    903     1  0.0000000  1.6038667  3
    894    912    899    898     1  180.0000771  0.4184000  2
    894    912    899    898     1  0.0000000  1.6024720  3
    895    897    898    899     1  180.0000771  0.8368000  1
    895    897    898    899     1  180.0000771  1.0460000  2
    895    897    898    899     1  0.0000000  0.7531200  3
    895    897    898    917     1  0.0000000  0.6508444  3
    895    894    905    910     1  0.0000000  0.6508444  3
    895    894    912    899     1  180.0000771  0.4184000  2
    895    894    912    899     1  0.0000000  1.6024720  3
    897    898    899    903     1  0.0000000  0.6508444  3
    897    898    899    912     1  0.0000000  0.6508444  3
    897    895    894    905     1  180.0000771  0.8368000  1
    897    895    894    905     1  180.0000771  1.0460000  2
    897    895    894    905     1  0.0000000  0.7531200  3
    897    895    894    912     1  0.0000000  0.6508444  3
    898    897    895    915     1  0.0000000  0.6508444  3
    899    912    894    905     1  180.0000771  0.4184000  2
    899    912    894    905     1  0.0000000  1.6024720  3
    899    898    897    904     1  0.0000000  0.6508444  3
    903    899    898    917     1  0.0000000  0.6508444  3
    904    897    898    917     1  0.0000000  0.6508444  3
    904    897    895    915     1  0.0000000  4.9162000  2
    904    897    895    915     1  0.0000000  0.6024960  3
    905    894    895    915     1  0.0000000  0.6508444  3
    910    905    894    912     1  0.0000000  4.9162000  2
    910    905    894    912     1  0.0000000  0.6024960  3
    912    899    898    917     1  0.0000000  0.6508444  3
    912    894    895    915     1  0.0000000  4.9162000  2
    912    894    895    915     1  0.0000000  0.6024960  3
    919    921    923    927     1  0.0000000  0.6508444  3
    921    923    927    928     1  0.0000000  0.6508444  3
    921    923    927    929     1  0.0000000  0.6508444  3
    923    927    928    939     1  0.0000000  0.6508444  3
    923    927    929    931     1  0.0000000  0.6508444  3
    927    928    939    942     1  0.0000000  0.6508444  3
    927    929    931    935     1  0.0000000  0.6508444  3
    928    927    929    931     1  0.0000000  0.6508444  3
    928    939    942    943     1  180.0000771  0.0000000  2
    928    939    942    991     1  180.0000771  0.0000000  2
    929    927    928    939     1  0.0000000  0.6508444  3
    929    931    935    936     1  180.0000771  0.0000000  2
    929    931    935    967     1  180.0000771  0.0000000  2
    931    935    967    948     1  180.0000771  6.0668000  2
    931    935    967    948     1  180.0000771  1.4644000  4
    935    967    948    947     1  0.0000000  1.2552000  3
    935    967    948    949     1  0.0000000  1.2552000  3
    936    935    967    948     1  180.0000771  6.0668000  2
    936    935    967    948     1  180.0000771  1.4644000  4
    939    942    991    972     1  180.0000771  6.0668000  2
    939    942    991    972     1  180.0000771  1.4644000  4
    942    991    972    971     1  0.0000000  1.2552000  3
    942    991    972    973     1  0.0000000  1.2552000  3
    943    942    991    972     1  180.0000771  6.0668000  2
    943    942    991    972     1  180.0000771  1.4644000  4
    944    945    947    948     1  180.0000771  0.8368000  1
    944    945    947    948     1  180.0000771  1.0460000  2
    944    945    947    948     1  0.0000000  0.7531200  3
    944    945    947    954     1  0.0000000  0.6508444  3
    944    962    949    948     1  180.0000771  0.4184000  2
    944    962    949    948     1  0.0000000  1.6024720  3
    944    962    949    953     1  0.0000000  1.6038667  3
    945    944    955    960     1  0.0000000  0.6508444  3
    945    944    962    949     1  180.0000771  0.4184000  2
    945    944    962    949     1  0.0000000  1.6024720  3
    945    947    948    949     1  180.0000771  0.8368000  1
    945    947    948    949     1  180.0000771  1.0460000  2
    945    947    948    949     1  0.0000000  0.7531200  3
    945    947    948    967     1  0.0000000  0.6508444  3
    947    945    944    955     1  180.0000771  0.8368000  1
    947    945    944    955     1  180.0000771  1.0460000  2
    947    945    944    955     1  0.0000000  0.7531200  3
    947    945    944    962     1  0.0000000  0.6508444  3
    947    948    949    953     1  0.0000000  0.6508444  3
    947    948    949    962     1  0.0000000  0.6508444  3
    948    947    945    965     1  0.0000000  0.6508444  3
    949    948    947    954     1  0.0000000  0.6508444  3
    949    962    944    955     1  180.0000771  0.4184000  2
    949    962    944    955     1  0.0000000  1.6024720  3
    953    949    948    967     1  0.0000000  0.6508444  3
    954    947    945    965     1  0.0000000  4.9162000  2
    954    947    945    965     1  0.0000000  0.6024960  3
    954    947    948    967     1  0.0000000  0.6508444  3
    955    944    945    965     1  0.0000000  0.6508444  3
    960    955    944    962     1  0.0000000  4.9162000  2
    960    955    944    962     1  0.0000000  0.6024960  3
    962    944    945    965     1  0.0000000  4.9162000  2
    962    944    945    965     1  0.0000000  0.6024960  3
    962    949    948    967     1  0.0000000  0.6508444  3
    968    969    971    972     1  180.0000771  0.8368000  1
    968    969    971    972     1  180.0000771  1.0460000  2
    968    969    971    972     1  0.0000000  0.7531200  3
    968    969    971    978     1  0.0000000  0.6508444  3
    968    986    973    972     1  180.0000771  0.4184000  2
    968    986    973    972     1  0.0000000  1.6024720  3
    968    986    973    977     1  0.0000000  1.6038667  3
    969    968    979    984     1  0.0000000  0.6508444  3
    969    968    986    973     1  180.0000771  0.4184000  2
    969    968    986    973     1  0.0000000  1.6024720  3
    969    971    972    973     1  180.0000771  0.8368000  1
    969    971    972    973     1  180.0000771  1.0460000  2
    969    971    972    973     1  0.0000000  0.7531200  3
    969    971    972    991     1  0.0000000  0.6508444  3
    971    969    968    979     1  180.0000771  0.8368000  1
    971    969    968    979     1  180.0000771  1.0460000  2
    971    969    968    979     1  0.0000000  0.7531200  3
    971    969    968    986     1  0.0000000  0.6508444  3
    971    972    973    977     1  0.0000000  0.6508444  3
    971    972    973    986     1  0.0000000  0.6508444  3
    972    971    969    989     1  0.0000000  0.6508444  3
    973    972    971    978     1  0.0000000  0.6508444  3
    973    986    968    979     1  180.0000771  0.4184000  2
    973    986    968    979     1  0.0000000  1.6024720  3
    977    973    972    991     1  0.0000000  0.6508444  3
    978    971    969    989     1  0.0000000  4.9162000  2
    978    971    969    989     1  0.0000000  0.6024960  3
    978    971    972    991     1  0.0000000  0.6508444  3
    979    968    969    989     1  0.0000000  0.6508444  3
    984    979    968    986     1  0.0000000  4.9162000  2
    984    979    968    986     1  0.0000000  0.6024960  3
    986    968    969    989     1  0.0000000  4.9162000  2
    986    968    969    989     1  0.0000000  0.6024960  3
    986    973    972    991     1  0.0000000  0.6508444  3
    993    995    997   1001     1  0.0000000  0.6508444  3
    995    997   1001   1002     1  0.0000000  0.6508444  3
    995    997   1001   1003     1  0.0000000  0.6508444  3
    997   1001   1002   1013     1  0.0000000  0.6508444  3
    997   1001   1003   1005     1  0.0000000  0.6508444  3
   1001   1002   1013   1016     1  0.0000000  0.6508444  3
   1001   1003   1005   1009     1  0.0000000  0.6508444  3
   1002   1013   1016   1017     1  180.0000771  0.0000000  2
   1002   1013   1016   1065     1  180.0000771  0.0000000  2
   1002   1001   1003   1005     1  0.0000000  0.6508444  3
   1003   1005   1009   1010     1  180.0000771  0.0000000  2
   1003   1005   1009   1041     1  180.0000771  0.0000000  2
   1003   1001   1002   1013     1  0.0000000  0.6508444  3
   1005   1009   1041   1022     1  180.0000771  6.0668000  2
   1005   1009   1041   1022     1  180.0000771  1.4644000  4
   1009   1041   1022   1023     1  0.0000000  1.2552000  3
   1009   1041   1022   1021     1  0.0000000  1.2552000  3
   1010   1009   1041   1022     1  180.0000771  6.0668000  2
   1010   1009   1041   1022     1  180.0000771  1.4644000  4
   1013   1016   1065   1046     1  180.0000771  6.0668000  2
   1013   1016   1065   1046     1  180.0000771  1.4644000  4
   1016   1065   1046   1047     1  0.0000000  1.2552000  3
   1016   1065   1046   1045     1  0.0000000  1.2552000  3
   1017   1016   1065   1046     1  180.0000771  6.0668000  2
   1017   1016   1065   1046     1  180.0000771  1.4644000  4
   1018   1019   1021   1022     1  180.0000771  0.8368000  1
   1018   1019   1021   1022     1  180.0000771  1.0460000  2
   1018   1019   1021   1022     1  0.0000000  0.7531200  3
   1018   1019   1021   1028     1  0.0000000  0.6508444  3
   1018   1036   1023   1027     1  0.0000000  1.6038667  3
   1018   1036   1023   1022     1  180.0000771  0.4184000  2
   1018   1036   1023   1022     1  0.0000000  1.6024720  3
   1019   1021   1022   1023     1  180.0000771  0.8368000  1
   1019   1021   1022   1023     1  180.0000771  1.0460000  2
   1019   1021   1022   1023     1  0.0000000  0.7531200  3
   1019   1021   1022   1041     1  0.0000000  0.6508444  3
   1019   1018   1029   1034     1  0.0000000  0.6508444  3
   1019   1018   1036   1023     1  180.0000771  0.4184000  2
   1019   1018   1036   1023     1  0.0000000  1.6024720  3
   1021   1022   1023   1027     1  0.0000000  0.6508444  3
   1021   1022   1023   1036     1  0.0000000  0.6508444  3
   1021   1019   1018   1029     1  180.0000771  0.8368000  1
   1021   1019   1018   1029     1  180.0000771  1.0460000  2
   1021   1019   1018   1029     1  0.0000000  0.7531200  3
   1021   1019   1018   1036     1  0.0000000  0.6508444  3
   1022   1021   1019   1039     1  0.0000000  0.6508444  3
   1023   1036   1018   1029     1  180.0000771  0.4184000  2
   1023   1036   1018   1029     1  0.0000000  1.6024720  3
   1023   1022   1021   1028     1  0.0000000  0.6508444  3
   1027   1023   1022   1041     1  0.0000000  0.6508444  3
   1028   1021   1022   1041     1  0.0000000  0.6508444  3
   1028   1021   1019   1039     1  0.0000000  4.9162000  2
   1028   1021   1019   1039     1  0.0000000  0.6024960  3
   1029   1018   1019   1039     1  0.0000000  0.6508444  3
   1034   1029   1018   1036     1  0.0000000  4.9162000  2
   1034   1029   1018   1036     1  0.0000000  0.6024960  3
   1036   1023   1022   1041     1  0.0000000  0.6508444  3
   1036   1018   1019   1039     1  0.0000000  4.9162000  2
   1036   1018   1019   1039     1  0.0000000  0.6024960  3
   1042   1043   1045   1046     1  180.0000771  0.8368000  1
   1042   1043   1045   1046     1  180.0000771  1.0460000  2
   1042   1043   1045   1046     1  0.0000000  0.7531200  3
   1042   1043   1045   1052     1  0.0000000  0.6508444  3
   1042   1060   1047   1051     1  0.0000000  1.6038667  3
   1042   1060   1047   1046     1  180.0000771  0.4184000  2
   1042   1060   1047   1046     1  0.0000000  1.6024720  3
   1043   1045   1046   1047     1  180.0000771  0.8368000  1
   1043   1045   1046   1047     1  180.0000771  1.0460000  2
   1043   1045   1046   1047     1  0.0000000  0.7531200  3
   1043   1045   1046   1065     1  0.0000000  0.6508444  3
   1043   1042   1053   1058     1  0.0000000  0.6508444  3
   1043   1042   1060   1047     1  180.0000771  0.4184000  2
   1043   1042   1060   1047     1  0.0000000  1.6024720  3
   1045   1046   1047   1051     1  0.0000000  0.6508444  3
   1045   1046   1047   1060     1  0.0000000  0.6508444  3
   1045   1043   1042   1053     1  180.0000771  0.8368000  1
   1045   1043   1042   1053     1  180.0000771  1.0460000  2
   1045   1043   1042   1053     1  0.0000000  0.7531200  3
   1045   1043   1042   1060     1  0.0000000  0.6508444  3
   1046   1045   1043   1063     1  0.0000000  0.6508444  3
   1047   1060   1042   1053     1  180.0000771  0.4184000  2
   1047   1060   1042   1053     1  0.0000000  1.6024720  3
   1047   1046   1045   1052     1  0.0000000  0.6508444  3
   1051   1047   1046   1065     1  0.0000000  0.6508444  3
   1052   1045   1046   1065     1  0.0000000  0.6508444  3
   1052   1045   1043   1063     1  0.0000000  4.9162000  2
   1052   1045   1043   1063     1  0.0000000  0.6024960  3
   1053   1042   1043   1063     1  0.0000000  0.6508444  3
   1058   1053   1042   1060     1  0.0000000  4.9162000  2
   1058   1053   1042   1060     1  0.0000000  0.6024960  3
   1060   1047   1046   1065     1  0.0000000  0.6508444  3
   1060   1042   1043   1063     1  0.0000000  4.9162000  2
   1060   1042   1043   1063     1  0.0000000  0.6024960  3
   1067   1069   1071   1075     1  0.0000000  0.6508444  3
   1069   1071   1075   1076     1  0.0000000  0.6508444  3
   1069   1071   1075   1077     1  0.0000000  0.6508444  3
   1071   1075   1076   1087     1  0.0000000  0.6508444  3
   1071   1075   1077   1079     1  0.0000000  0.6508444  3
   1075   1076   1087   1090     1  0.0000000  0.6508444  3
   1075   1077   1079   1083     1  0.0000000  0.6508444  3
   1076   1075   1077   1079     1  0.0000000  0.6508444  3
   1076   1087   1090   1091     1  180.0000771  0.0000000  2
   1076   1087   1090   1139     1  180.0000771  0.0000000  2
   1077   1075   1076   1087     1  0.0000000  0.6508444  3
   1077   1079   1083   1084     1  180.0000771  0.0000000  2
   1077   1079   1083   1115     1  180.0000771  0.0000000  2
   1079   1083   1115   1096     1  180.0000771  6.0668000  2
   1079   1083   1115   1096     1  180.0000771  1.4644000  4
   1083   1115   1096   1095     1  0.0000000  1.2552000  3
   1083   1115   1096   1097     1  0.0000000  1.2552000  3
   1084   1083   1115   1096     1  180.0000771  6.0668000  2
   1084   1083   1115   1096     1  180.0000771  1.4644000  4
   1087   1090   1139   1120     1  180.0000771  6.0668000  2
   1087   1090   1139   1120     1  180.0000771  1.4644000  4
   1090   1139   1120   1119     1  0.0000000  1.2552000  3
   1090   1139   1120   1121     1  0.0000000  1.2552000  3
   1091   1090   1139   1120     1  180.0000771  6.0668000  2
   1091   1090   1139   1120     1  180.0000771  1.4644000  4
   1092   1093   1095   1096     1  180.0000771  0.8368000  1
   1092   1093   1095   1096     1  180.0000771  1.0460000  2
   1092   1093   1095   1096     1  0.0000000  0.7531200  3
   1092   1093   1095   1102     1  0.0000000  0.6508444  3
   1092   1110   1097   1096     1  180.0000771  0.4184000  2
   1092   1110   1097   1096     1  0.0000000  1.6024720  3
   1092   1110   1097   1101     1  0.0000000  1.6038667  3
   1093   1092   1103   1108     1  0.0000000  0.6508444  3
   1093   1092   1110   1097     1  180.0000771  0.4184000  2
   1093   1092   1110   1097     1  0.0000000  1.6024720  3
   1093   1095   1096   1097     1  180.0000771  0.8368000  1
   1093   1095   1096   1097     1  180.0000771  1.0460000  2
   1093   1095   1096   1097     1  0.0000000  0.7531200  3
   1093   1095   1096   1115     1  0.0000000  0.6508444  3
   1095   1093   1092   1103     1  180.0000771  0.8368000  1
   1095   1093   1092   1103     1  180.0000771  1.0460000  2
   1095   1093   1092   1103     1  0.0000000  0.7531200  3
   1095   1093   1092   1110     1  0.0000000  0.6508444  3
   1095   1096   1097   1101     1  0.0000000  0.6508444  3
   1095   1096   1097   1110     1  0.0000000  0.6508444  3
   1096   1095   1093   1113     1  0.0000000  0.6508444  3
   1097   1096   1095   1102     1  0.0000000  0.6508444  3
   1097   1110   1092   1103     1  180.0000771  0.4184000  2
   1097   1110   1092   1103     1  0.0000000  1.6024720  3
   1101   1097   1096   1115     1  0.0000000  0.6508444  3
   1102   1095   1093   1113     1  0.0000000  4.9162000  2
   1102   1095   1093   1113     1  0.0000000  0.6024960  3
   1102   1095   1096   1115     1  0.0000000  0.6508444  3
   1103   1092   1093   1113     1  0.0000000  0.6508444  3
   1108   1103   1092   1110     1  0.0000000  4.9162000  2
   1108   1103   1092   1110     1  0.0000000  0.6024960  3
   1110   1092   1093   1113     1  0.0000000  4.9162000  2
   1110   1092   1093   1113     1  0.0000000  0.6024960  3
   1110   1097   1096   1115     1  0.0000000  0.6508444  3
   1116   1117   1119   1120     1  180.0000771  0.8368000  1
   1116   1117   1119   1120     1  180.0000771  1.0460000  2
   1116   1117   1119   1120     1  0.0000000  0.7531200  3
   1116   1117   1119   1126     1  0.0000000  0.6508444  3
   1116   1134   1121   1120     1  180.0000771  0.4184000  2
   1116   1134   1121   1120     1  0.0000000  1.6024720  3
   1116   1134   1121   1125     1  0.0000000  1.6038667  3
   1117   1116   1127   1132     1  0.0000000  0.6508444  3
   1117   1116   1134   1121     1  180.0000771  0.4184000  2
   1117   1116   1134   1121     1  0.0000000  1.6024720  3
   1117   1119   1120   1121     1  180.0000771  0.8368000  1
   1117   1119   1120   1121     1  180.0000771  1.0460000  2
   1117   1119   1120   1121     1  0.0000000  0.7531200  3
   1117   1119   1120   1139     1  0.0000000  0.6508444  3
   1119   1117   1116   1127     1  180.0000771  0.8368000  1
   1119   1117   1116   1127     1  180.0000771  1.0460000  2
   1119   1117   1116   1127     1  0.0000000  0.7531200  3
   1119   1117   1116   1134     1  0.0000000  0.6508444  3
   1119   1120   1121   1125     1  0.0000000  0.6508444  3
   1119   1120   1121   1134     1  0.0000000  0.6508444  3
   1120   1119   1117   1137     1  0.0000000  0.6508444  3
   1121   1120   1119   1126     1  0.0000000  0.6508444  3
   1121   1134   1116   1127     1  180.0000771  0.4184000  2
   1121   1134   1116   1127     1  0.0000000  1.6024720  3
   1125   1121   1120   1139     1  0.0000000  0.6508444  3
   1126   1119   1117   1137     1  0.0000000  4.9162000  2
   1126   1119   1117   1137     1  0.0000000  0.6024960  3
   1126   1119   1120   1139     1  0.0000000  0.6508444  3
   1127   1116   1117   1137     1  0.0000000  0.6508444  3
   1132   1127   1116   1134     1  0.0000000  4.9162000  2
   1132   1127   1116   1134     1  0.0000000  0.6024960  3
   1134   1116   1117   1137     1  0.0000000  4.9162000  2
   1134   1116   1117   1137     1  0.0000000  0.6024960  3
   1134   1121   1120   1139     1  0.0000000  0.6508444  3
   1141   1143   1145   1149     1  0.0000000  0.6508444  3
   1143   1145   1149   1150     1  0.0000000  0.6508444  3
   1143   1145   1149   1151     1  0.0000000  0.6508444  3
   1145   1149   1150   1161     1  0.0000000  0.6508444  3
   1145   1149   1151   1153     1  0.0000000  0.6508444  3
   1149   1150   1161   1164     1  0.0000000  0.6508444  3
   1149   1151   1153   1157     1  0.0000000  0.6508444  3
   1150   1161   1164   1165     1  180.0000771  0.0000000  2
   1150   1161   1164   1213     1  180.0000771  0.0000000  2
   1150   1149   1151   1153     1  0.0000000  0.6508444  3
   1151   1153   1157   1158     1  180.0000771  0.0000000  2
   1151   1153   1157   1189     1  180.0000771  0.0000000  2
   1151   1149   1150   1161     1  0.0000000  0.6508444  3
   1153   1157   1189   1170     1  180.0000771  6.0668000  2
   1153   1157   1189   1170     1  180.0000771  1.4644000  4
   1157   1189   1170   1171     1  0.0000000  1.2552000  3
   1157   1189   1170   1169     1  0.0000000  1.2552000  3
   1158   1157   1189   1170     1  180.0000771  6.0668000  2
   1158   1157   1189   1170     1  180.0000771  1.4644000  4
   1161   1164   1213   1194     1  180.0000771  6.0668000  2
   1161   1164   1213   1194     1  180.0000771  1.4644000  4
   1164   1213   1194   1195     1  0.0000000  1.2552000  3
   1164   1213   1194   1193     1  0.0000000  1.2552000  3
   1165   1164   1213   1194     1  180.0000771  6.0668000  2
   1165   1164   1213   1194     1  180.0000771  1.4644000  4
   1166   1167   1169   1170     1  180.0000771  0.8368000  1
   1166   1167   1169   1170     1  180.0000771  1.0460000  2
   1166   1167   1169   1170     1  0.0000000  0.7531200  3
   1166   1167   1169   1176     1  0.0000000  0.6508444  3
   1166   1184   1171   1175     1  0.0000000  1.6038667  3
   1166   1184   1171   1170     1  180.0000771  0.4184000  2
   1166   1184   1171   1170     1  0.0000000  1.6024720  3
   1167   1169   1170   1171     1  180.0000771  0.8368000  1
   1167   1169   1170   1171     1  180.0000771  1.0460000  2
   1167   1169   1170   1171     1  0.0000000  0.7531200  3
   1167   1169   1170   1189     1  0.0000000  0.6508444  3
   1167   1166   1177   1182     1  0.0000000  0.6508444  3
   1167   1166   1184   1171     1  180.0000771  0.4184000  2
   1167   1166   1184   1171     1  0.0000000  1.6024720  3
   1169   1170   1171   1175     1  0.0000000  0.6508444  3
   1169   1170   1171   1184     1  0.0000000  0.6508444  3
   1169   1167   1166   1177     1  180.0000771  0.8368000  1
   1169   1167   1166   1177     1  180.0000771  1.0460000  2
   1169   1167   1166   1177     1  0.0000000  0.7531200  3
   1169   1167   1166   1184     1  0.0000000  0.6508444  3
   1170   1169   1167   1187     1  0.0000000  0.6508444  3
   1171   1184   1166   1177     1  180.0000771  0.4184000  2
   1171   1184   1166   1177     1  0.0000000  1.6024720  3
   1171   1170   1169   1176     1  0.0000000  0.6508444  3
   1175   1171   1170   1189     1  0.0000000  0.6508444  3
   1176   1169   1170   1189     1  0.0000000  0.6508444  3
   1176   1169   1167   1187     1  0.0000000  4.9162000  2
   1176   1169   1167   1187     1  0.0000000  0.6024960  3
   1177   1166   1167   1187     1  0.0000000  0.6508444  3
   1182   1177   1166   1184     1  0.0000000  4.9162000  2
   1182   1177   1166   1184     1  0.0000000  0.6024960  3
   1184   1171   1170   1189     1  0.0000000  0.6508444  3
   1184   1166   1167   1187     1  0.0000000  4.9162000  2
   1184   1166   1167   1187     1  0.0000000  0.6024960  3
   1190   1191   1193   1194     1  180.0000771  0.8368000  1
   1190   1191   1193   1194     1  180.0000771  1.0460000  2
   1190   1191   1193   1194     1  0.0000000  0.7531200  3
   1190   1191   1193   1200     1  0.0000000  0.6508444  3
   1190   1208   1195   1199     1  0.0000000  1.6038667  3
   1190   1208   1195   1194     1  180.0000771  0.4184000  2
   1190   1208   1195   1194     1  0.0000000  1.6024720  3
   1191   1193   1194   1195     1  180.0000771  0.8368000  1
   1191   1193   1194   1195     1  180.0000771  1.0460000  2
   1191   1193   1194   1195     1  0.0000000  0.7531200  3
   1191   1193   1194   1213     1  0.0000000  0.6508444  3
   1191   1190   1201   1206     1  0.0000000  0.6508444  3
   1191   1190   1208   1195     1  180.0000771  0.4184000  2
   1191   1190   1208   1195     1  0.0000000  1.6024720  3
   1193   1194   1195   1199     1  0.0000000  0.6508444  3
   1193   1194   1195   1208     1  0.0000000  0.6508444  3
   1193   1191   1190   1201     1  180.0000771  0.8368000  1
   1193   1191   1190   1201     1  180.0000771  1.0460000  2
   1193   1191   1190   1201     1  0.0000000  0.7531200  3
   1193   1191   1190   1208     1  0.0000000  0.6508444  3
   1194   1193   1191   1211     1  0.0000000  0.6508444  3
   1195   1208   1190   1201     1  180.0000771  0.4184000  2
   1195   1208   1190   1201     1  0.0000000  1.6024720  3
   1195   1194   1193   1200     1  0.0000000  0.6508444  3
   1199   1195   1194   1213     1  0.0000000  0.6508444  3
   1200   1193   1194   1213     1  0.0000000  0.6508444  3
   1200   1193   1191   1211     1  0.0000000  4.9162000  2
   1200   1193   1191   1211     1  0.0000000  0.6024960  3
   1201   1190   1191   1211     1  0.0000000  0.6508444  3
   1206   1201   1190   1208     1  0.0000000  4.9162000  2
   1206   1201   1190   1208     1  0.0000000  0.6024960  3
   1208   1195   1194   1213     1  0.0000000  0.6508444  3
   1208   1190   1191   1211     1  0.0000000  4.9162000  2
   1208   1190   1191   1211     1  0.0000000  0.6024960  3
   1215   1217   1219   1223     1  0.0000000  0.6508444  3
   1217   1219   1223   1224     1  0.0000000  0.6508444  3
   1217   1219   1223   1225     1  0.0000000  0.6508444  3
   1219   1223   1224   1235     1  0.0000000  0.6508444  3
   1219   1223   1225   1227     1  0.0000000  0.6508444  3
   1223   1224   1235   1238     1  0.0000000  0.6508444  3
   1223   1225   1227   1231     1  0.0000000  0.6508444  3
   1224   1223   1225   1227     1  0.0000000  0.6508444  3
   1224   1235   1238   1239     1  180.0000771  0.0000000  2
   1224   1235   1238   1287     1  180.0000771  0.0000000  2
   1225   1223   1224   1235     1  0.0000000  0.6508444  3
   1225   1227   1231   1232     1  180.0000771  0.0000000  2
   1225   1227   1231   1263     1  180.0000771  0.0000000  2
   1227   1231   1263   1244     1  180.0000771  6.0668000  2
   1227   1231   1263   1244     1  180.0000771  1.4644000  4
   1231   1263   1244   1243     1  0.0000000  1.2552000  3
   1231   1263   1244   1245     1  0.0000000  1.2552000  3
   1232   1231   1263   1244     1  180.0000771  6.0668000  2
   1232   1231   1263   1244     1  180.0000771  1.4644000  4
   1235   1238   1287   1268     1  180.0000771  6.0668000  2
   1235   1238   1287   1268     1  180.0000771  1.4644000  4
   1238   1287   1268   1267     1  0.0000000  1.2552000  3
   1238   1287   1268   1269     1  0.0000000  1.2552000  3
   1239   1238   1287   1268     1  180.0000771  6.0668000  2
   1239   1238   1287   1268     1  180.0000771  1.4644000  4
   1240   1241   1243   1244     1  180.0000771  0.8368000  1
   1240   1241   1243   1244     1  180.0000771  1.0460000  2
   1240   1241   1243   1244     1  0.0000000  0.7531200  3
   1240   1241   1243   1250     1  0.0000000  0.6508444  3
   1240   1258   1245   1244     1  180.0000771  0.4184000  2
   1240   1258   1245   1244     1  0.0000000  1.6024720  3
   1240   1258   1245   1249     1  0.0000000  1.6038667  3
   1241   1240   1251   1256     1  0.0000000  0.6508444  3
   1241   1240   1258   1245     1  180.0000771  0.4184000  2
   1241   1240   1258   1245     1  0.0000000  1.6024720  3
   1241   1243   1244   1245     1  180.0000771  0.8368000  1
   1241   1243   1244   1245     1  180.0000771  1.0460000  2
   1241   1243   1244   1245     1  0.0000000  0.7531200  3
   1241   1243   1244   1263     1  0.0000000  0.6508444  3
   1243   1241   1240   1251     1  180.0000771  0.8368000  1
   1243   1241   1240   1251     1  180.0000771  1.0460000  2
   1243   1241   1240   1251     1  0.0000000  0.7531200  3
   1243   1241   1240   1258     1  0.0000000  0.6508444  3
   1243   1244   1245   1249     1  0.0000000  0.6508444  3
   1243   1244   1245   1258     1  0.0000000  0.6508444  3
   1244   1243   1241   1261     1  0.0000000  0.6508444  3
   1245   1244   1243   1250     1  0.0000000  0.6508444  3
   1245   1258   1240   1251     1  180.0000771  0.4184000  2
   1245   1258   1240   1251     1  0.0000000  1.6024720  3
   1249   1245   1244   1263     1  0.0000000  0.6508444  3
   1250   1243   1241   1261     1  0.0000000  4.9162000  2
   1250   1243   1241   1261     1  0.0000000  0.6024960  3
   1250   1243   1244   1263     1  0.0000000  0.6508444  3
   1251   1240   1241   1261     1  0.0000000  0.6508444  3
   1256   1251   1240   1258     1  0.0000000  4.9162000  2
   1256   1251   1240   1258     1  0.0000000  0.6024960  3
   1258   1240   1241   1261     1  0.0000000  4.9162000  2
   1258   1240   1241   1261     1  0.0000000  0.6024960  3
   1258   1245   1244   1263     1  0.0000000  0.6508444  3
   1264   1265   1267   1268     1  180.0000771  0.8368000  1
   1264   1265   1267   1268     1  180.0000771  1.0460000  2
   1264   1265   1267   1268     1  0.0000000  0.7531200  3
   1264   1265   1267   1274     1  0.0000000  0.6508444  3
   1264   1282   1269   1268     1  180.0000771  0.4184000  2
   1264   1282   1269   1268     1  0.0000000  1.6024720  3
   1264   1282   1269   1273     1  0.0000000  1.6038667  3
   1265   1264   1275   1280     1  0.0000000  0.6508444  3
   1265   1264   1282   1269     1  180.0000771  0.4184000  2
   1265   1264   1282   1269     1  0.0000000  1.6024720  3
   1265   1267   1268   1269     1  180.0000771  0.8368000  1
   1265   1267   1268   1269     1  180.0000771  1.0460000  2
   1265   1267   1268   1269     1  0.0000000  0.7531200  3
   1265   1267   1268   1287     1  0.0000000  0.6508444  3
   1267   1265   1264   1275     1  180.0000771  0.8368000  1
   1267   1265   1264   1275     1  180.0000771  1.0460000  2
   1267   1265   1264   1275     1  0.0000000  0.7531200  3
   1267   1265   1264   1282     1  0.0000000  0.6508444  3
   1267   1268   1269   1273     1  0.0000000  0.6508444  3
   1267   1268   1269   1282     1  0.0000000  0.6508444  3
   1268   1267   1265   1285     1  0.0000000  0.6508444  3
   1269   1268   1267   1274     1  0.0000000  0.6508444  3
   1269   1282   1264   1275     1  180.0000771  0.4184000  2
   1269   1282   1264   1275     1  0.0000000  1.6024720  3
   1273   1269   1268   1287     1  0.0000000  0.6508444  3
   1274   1267   1265   1285     1  0.0000000  4.9162000  2
   1274   1267   1265   1285     1  0.0000000  0.6024960  3
   1274   1267   1268   1287     1  0.0000000  0.6508444  3
   1275   1264   1265   1285     1  0.0000000  0.6508444  3
   1280   1275   1264   1282     1  0.0000000  4.9162000  2
   1280   1275   1264   1282     1  0.0000000  0.6024960  3
   1282   1264   1265   1285     1  0.0000000  4.9162000  2
   1282   1264   1265   1285     1  0.0000000  0.6024960  3
   1282   1269   1268   1287     1  0.0000000  0.6508444  3
   1289   1291   1293   1297     1  0.0000000  0.6508444  3
   1291   1293   1297   1298     1  0.0000000  0.6508444  3
   1291   1293   1297   1299     1  0.0000000  0.6508444  3
   1293   1297   1298   1309     1  0.0000000  0.6508444  3
   1293   1297   1299   1301     1  0.0000000  0.6508444  3
   1297   1298   1309   1312     1  0.0000000  0.6508444  3
   1297   1299   1301   1305     1  0.0000000  0.6508444  3
   1298   1309   1312   1313     1  180.0000771  0.0000000  2
   1298   1309   1312   1361     1  180.0000771  0.0000000  2
   1298   1297   1299   1301     1  0.0000000  0.6508444  3
   1299   1301   1305   1306     1  180.0000771  0.0000000  2
   1299   1301   1305   1337     1  180.0000771  0.0000000  2
   1299   1297   1298   1309     1  0.0000000  0.6508444  3
   1301   1305   1337   1318     1  180.0000771  6.0668000  2
   1301   1305   1337   1318     1  180.0000771  1.4644000  4
   1305   1337   1318   1319     1  0.0000000  1.2552000  3
   1305   1337   1318   1317     1  0.0000000  1.2552000  3
   1306   1305   1337   1318     1  180.0000771  6.0668000  2
   1306   1305   1337   1318     1  180.0000771  1.4644000  4
   1309   1312   1361   1342     1  180.0000771  6.0668000  2
   1309   1312   1361   1342     1  180.0000771  1.4644000  4
   1312   1361   1342   1343     1  0.0000000  1.2552000  3
   1312   1361   1342   1341     1  0.0000000  1.2552000  3
   1313   1312   1361   1342     1  180.0000771  6.0668000  2
   1313   1312   1361   1342     1  180.0000771  1.4644000  4
   1314   1315   1317   1318     1  180.0000771  0.8368000  1
   1314   1315   1317   1318     1  180.0000771  1.0460000  2
   1314   1315   1317   1318     1  0.0000000  0.7531200  3
   1314   1315   1317   1324     1  0.0000000  0.6508444  3
   1314   1332   1319   1323     1  0.0000000  1.6038667  3
   1314   1332   1319   1318     1  180.0000771  0.4184000  2
   1314   1332   1319   1318     1  0.0000000  1.6024720  3
   1315   1317   1318   1319     1  180.0000771  0.8368000  1
   1315   1317   1318   1319     1  180.0000771  1.0460000  2
   1315   1317   1318   1319     1  0.0000000  0.7531200  3
   1315   1317   1318   1337     1  0.0000000  0.6508444  3
   1315   1314   1325   1330     1  0.0000000  0.6508444  3
   1315   1314   1332   1319     1  180.0000771  0.4184000  2
   1315   1314   1332   1319     1  0.0000000  1.6024720  3
   1317   1318   1319   1323     1  0.0000000  0.6508444  3
   1317   1318   1319   1332     1  0.0000000  0.6508444  3
   1317   1315   1314   1325     1  180.0000771  0.8368000  1
   1317   1315   1314   1325     1  180.0000771  1.0460000  2
   1317   1315   1314   1325     1  0.0000000  0.7531200  3
   1317   1315   1314   1332     1  0.0000000  0.6508444  3
   1318   1317   1315   1335     1  0.0000000  0.6508444  3
   1319   1332   1314   1325     1  180.0000771  0.4184000  2
   1319   1332   1314   1325     1  0.0000000  1.6024720  3
   1319   1318   1317   1324     1  0.0000000  0.6508444  3
   1323   1319   1318   1337     1  0.0000000  0.6508444  3
   1324   1317   1318   1337     1  0.0000000  0.6508444  3
   1324   1317   1315   1335     1  0.0000000  4.9162000  2
   1324   1317   1315   1335     1  0.0000000  0.6024960  3
   1325   1314   1315   1335     1  0.0000000  0.6508444  3
   1330   1325   1314   1332     1  0.0000000  4.9162000  2
   1330   1325   1314   1332     1  0.0000000  0.6024960  3
   1332   1319   1318   1337     1  0.0000000  0.6508444  3
   1332   1314   1315   1335     1  0.0000000  4.9162000  2
   1332   1314   1315   1335     1  0.0000000  0.6024960  3
   1338   1339   1341   1342     1  180.0000771  0.8368000  1
   1338   1339   1341   1342     1  180.0000771  1.0460000  2
   1338   1339   1341   1342     1  0.0000000  0.7531200  3
   1338   1339   1341   1348     1  0.0000000  0.6508444  3
   1338   1356   1343   1347     1  0.0000000  1.6038667  3
   1338   1356   1343   1342     1  180.0000771  0.4184000  2
   1338   1356   1343   1342     1  0.0000000  1.6024720  3
   1339   1341   1342   1343     1  180.0000771  0.8368000  1
   1339   1341   1342   1343     1  180.0000771  1.0460000  2
   1339   1341   1342   1343     1  0.0000000  0.7531200  3
   1339   1341   1342   1361     1  0.0000000  0.6508444  3
   1339   1338   1349   1354     1  0.0000000  0.6508444  3
   1339   1338   1356   1343     1  180.0000771  0.4184000  2
   1339   1338   1356   1343     1  0.0000000  1.6024720  3
   1341   1342   1343   1347     1  0.0000000  0.6508444  3
   1341   1342   1343   1356     1  0.0000000  0.6508444  3
   1341   1339   1338   1349     1  180.0000771  0.8368000  1
   1341   1339   1338   1349     1  180.0000771  1.0460000  2
   1341   1339   1338   1349     1  0.0000000  0.7531200  3
   1341   1339   1338   1356     1  0.0000000  0.6508444  3
   1342   1341   1339   1359     1  0.0000000  0.6508444  3
   1343   1356   1338   1349     1  180.0000771  0.4184000  2
   1343   1356   1338   1349     1  0.0000000  1.6024720  3
   1343   1342   1341   1348     1  0.0000000  0.6508444  3
   1347   1343   1342   1361     1  0.0000000  0.6508444  3
   1348   1341   1342   1361     1  0.0000000  0.6508444  3
   1348   1341   1339   1359     1  0.0000000  4.9162000  2
   1348   1341   1339   1359     1  0.0000000  0.6024960  3
   1349   1338   1339   1359     1  0.0000000  0.6508444  3
   1354   1349   1338   1356     1  0.0000000  4.9162000  2
   1354   1349   1338   1356     1  0.0000000  0.6024960  3
   1356   1343   1342   1361     1  0.0000000  0.6508444  3
   1356   1338   1339   1359     1  0.0000000  4.9162000  2
   1356   1338   1339   1359     1  0.0000000  0.6024960  3
   1363   1365   1367   1371     1  0.0000000  0.6508444  3
   1365   1367   1371   1372     1  0.0000000  0.6508444  3
   1365   1367   1371   1373     1  0.0000000  0.6508444  3
   1367   1371   1372   1383     1  0.0000000  0.6508444  3
   1367   1371   1373   1375     1  0.0000000  0.6508444  3
   1371   1372   1383   1386     1  0.0000000  0.6508444  3
   1371   1373   1375   1379     1  0.0000000  0.6508444  3
   1372   1371   1373   1375     1  0.0000000  0.6508444  3
   1372   1383   1386   1387     1  180.0000771  0.0000000  2
   1372   1383   1386   1435     1  180.0000771  0.0000000  2
   1373   1371   1372   1383     1  0.0000000  0.6508444  3
   1373   1375   1379   1380     1  180.0000771  0.0000000  2
   1373   1375   1379   1411     1  180.0000771  0.0000000  2
   1375   1379   1411   1392     1  180.0000771  6.0668000  2
   1375   1379   1411   1392     1  180.0000771  1.4644000  4
   1379   1411   1392   1391     1  0.0000000  1.2552000  3
   1379   1411   1392   1393     1  0.0000000  1.2552000  3
   1380   1379   1411   1392     1  180.0000771  6.0668000  2
   1380   1379   1411   1392     1  180.0000771  1.4644000  4
   1383   1386   1435   1416     1  180.0000771  6.0668000  2
   1383   1386   1435   1416     1  180.0000771  1.4644000  4
   1386   1435   1416   1415     1  0.0000000  1.2552000  3
   1386   1435   1416   1417     1  0.0000000  1.2552000  3
   1387   1386   1435   1416     1  180.0000771  6.0668000  2
   1387   1386   1435   1416     1  180.0000771  1.4644000  4
   1388   1389   1391   1392     1  180.0000771  0.8368000  1
   1388   1389   1391   1392     1  180.0000771  1.0460000  2
   1388   1389   1391   1392     1  0.0000000  0.7531200  3
   1388   1389   1391   1398     1  0.0000000  0.6508444  3
   1388   1406   1393   1392     1  180.0000771  0.4184000  2
   1388   1406   1393   1392     1  0.0000000  1.6024720  3
   1388   1406   1393   1397     1  0.0000000  1.6038667  3
   1389   1388   1399   1404     1  0.0000000  0.6508444  3
   1389   1388   1406   1393     1  180.0000771  0.4184000  2
   1389   1388   1406   1393     1  0.0000000  1.6024720  3
   1389   1391   1392   1393     1  180.0000771  0.8368000  1
   1389   1391   1392   1393     1  180.0000771  1.0460000  2
   1389   1391   1392   1393     1  0.0000000  0.7531200  3
   1389   1391   1392   1411     1  0.0000000  0.6508444  3
   1391   1389   1388   1399     1  180.0000771  0.8368000  1
   1391   1389   1388   1399     1  180.0000771  1.0460000  2
   1391   1389   1388   1399     1  0.0000000  0.7531200  3
   1391   1389   1388   1406     1  0.0000000  0.6508444  3
   1391   1392   1393   1397     1  0.0000000  0.6508444  3
   1391   1392   1393   1406     1  0.0000000  0.6508444  3
   1392   1391   1389   1409     1  0.0000000  0.6508444  3
   1393   1392   1391   1398     1  0.0000000  0.6508444  3
   1393   1406   1388   1399     1  180.0000771  0.4184000  2
   1393   1406   1388   1399     1  0.0000000  1.6024720  3
   1397   1393   1392   1411     1  0.0000000  0.6508444  3
   1398   1391   1389   1409     1  0.0000000  4.9162000  2
   1398   1391   1389   1409     1  0.0000000  0.6024960  3
   1398   1391   1392   1411     1  0.0000000  0.6508444  3
   1399   1388   1389   1409     1  0.0000000  0.6508444  3
   1404   1399   1388   1406     1  0.0000000  4.9162000  2
   1404   1399   1388   1406     1  0.0000000  0.6024960  3
   1406   1388   1389   1409     1  0.0000000  4.9162000  2
   1406   1388   1389   1409     1  0.0000000  0.6024960  3
   1406   1393   1392   1411     1  0.0000000  0.6508444  3
   1412   1413   1415   1416     1  180.0000771  0.8368000  1
   1412   1413   1415   1416     1  180.0000771  1.0460000  2
   1412   1413   1415   1416     1  0.0000000  0.7531200  3
   1412   1413   1415   1422     1  0.0000000  0.6508444  3
   1412   1430   1417   1416     1  180.0000771  0.4184000  2
   1412   1430   1417   1416     1  0.0000000  1.6024720  3
   1412   1430   1417   1421     1  0.0000000  1.6038667  3
   1413   1412   1423   1428     1  0.0000000  0.6508444  3
   1413   1412   1430   1417     1  180.0000771  0.4184000  2
   1413   1412   1430   1417     1  0.0000000  1.6024720  3
   1413   1415   1416   1417     1  180.0000771  0.8368000  1
   1413   1415   1416   1417     1  180.0000771  1.0460000  2
   1413   1415   1416   1417     1  0.0000000  0.7531200  3
   1413   1415   1416   1435     1  0.0000000  0.6508444  3
   1415   1413   1412   1423     1  180.0000771  0.8368000  1
   1415   1413   1412   1423     1  180.0000771  1.0460000  2
   1415   1413   1412   1423     1  0.0000000  0.7531200  3
   1415   1413   1412   1430     1  0.0000000  0.6508444  3
   1415   1416   1417   1421     1  0.0000000  0.6508444  3
   1415   1416   1417   1430     1  0.0000000  0.6508444  3
   1416   1415   1413   1433     1  0.0000000  0.6508444  3
   1417   1416   1415   1422     1  0.0000000  0.6508444  3
   1417   1430   1412   1423     1  180.0000771  0.4184000  2
   1417   1430   1412   1423     1  0.0000000  1.6024720  3
   1421   1417   1416   1435     1  0.0000000  0.6508444  3
   1422   1415   1413   1433     1  0.0000000  4.9162000  2
   1422   1415   1413   1433     1  0.0000000  0.6024960  3
   1422   1415   1416   1435     1  0.0000000  0.6508444  3
   1423   1412   1413   1433     1  0.0000000  0.6508444  3
   1428   1423   1412   1430     1  0.0000000  4.9162000  2
   1428   1423   1412   1430     1  0.0000000  0.6024960  3
   1430   1412   1413   1433     1  0.0000000  4.9162000  2
   1430   1412   1413   1433     1  0.0000000  0.6024960  3
   1430   1417   1416   1435     1  0.0000000  0.6508444  3
   1437   1439   1441   1445     1  0.0000000  0.6508444  3
   1439   1441   1445   1446     1  0.0000000  0.6508444  3
   1439   1441   1445   1447     1  0.0000000  0.6508444  3
   1441   1445   1446   1457     1  0.0000000  0.6508444  3
   1441   1445   1447   1449     1  0.0000000  0.6508444  3
   1445   1446   1457   1460     1  0.0000000  0.6508444  3
   1445   1447   1449   1453     1  0.0000000  0.6508444  3
   1446   1457   1460   1461     1  180.0000771  0.0000000  2
   1446   1457   1460   1509     1  180.0000771  0.0000000  2
   1446   1445   1447   1449     1  0.0000000  0.6508444  3
   1447   1449   1453   1454     1  180.0000771  0.0000000  2
   1447   1449   1453   1485     1  180.0000771  0.0000000  2
   1447   1445   1446   1457     1  0.0000000  0.6508444  3
   1449   1453   1485   1466     1  180.0000771  6.0668000  2
   1449   1453   1485   1466     1  180.0000771  1.4644000  4
   1453   1485   1466   1467     1  0.0000000  1.2552000  3
   1453   1485   1466   1465     1  0.0000000  1.2552000  3
   1454   1453   1485   1466     1  180.0000771  6.0668000  2
   1454   1453   1485   1466     1  180.0000771  1.4644000  4
   1457   1460   1509   1490     1  180.0000771  6.0668000  2
   1457   1460   1509   1490     1  180.0000771  1.4644000  4
   1460   1509   1490   1491     1  0.0000000  1.2552000  3
   1460   1509   1490   1489     1  0.0000000  1.2552000  3
   1461   1460   1509   1490     1  180.0000771  6.0668000  2
   1461   1460   1509   1490     1  180.0000771  1.4644000  4
   1462   1463   1465   1466     1  180.0000771  0.8368000  1
   1462   1463   1465   1466     1  180.0000771  1.0460000  2
   1462   1463   1465   1466     1  0.0000000  0.7531200  3
   1462   1463   1465   1472     1  0.0000000  0.6508444  3
   1462   1480   1467   1471     1  0.0000000  1.6038667  3
   1462   1480   1467   1466     1  180.0000771  0.4184000  2
   1462   1480   1467   1466     1  0.0000000  1.6024720  3
   1463   1465   1466   1467     1  180.0000771  0.8368000  1
   1463   1465   1466   1467     1  180.0000771  1.0460000  2
   1463   1465   1466   1467     1  0.0000000  0.7531200  3
   1463   1465   1466   1485     1  0.0000000  0.6508444  3
   1463   1462   1473   1478     1  0.0000000  0.6508444  3
   1463   1462   1480   1467     1  180.0000771  0.4184000  2
   1463   1462   1480   1467     1  0.0000000  1.6024720  3
   1465   1466   1467   1471     1  0.0000000  0.6508444  3
   1465   1466   1467   1480     1  0.0000000  0.6508444  3
   1465   1463   1462   1473     1  180.0000771  0.8368000  1
   1465   1463   1462   1473     1  180.0000771  1.0460000  2
   1465   1463   1462   1473     1  0.0000000  0.7531200  3
   1465   1463   1462   1480     1  0.0000000  0.6508444  3
   1466   1465   1463   1483     1  0.0000000  0.6508444  3
   1467   1480   1462   1473     1  180.0000771  0.4184000  2
   1467   1480   1462   1473     1  0.0000000  1.6024720  3
   1467   1466   1465   1472     1  0.0000000  0.6508444  3
   1471   1467   1466   1485     1  0.0000000  0.6508444  3
   1472   1465   1466   1485     1  0.0000000  0.6508444  3
   1472   1465   1463   1483     1  0.0000000  4.9162000  2
   1472   1465   1463   1483     1  0.0000000  0.6024960  3
   1473   1462   1463   1483     1  0.0000000  0.6508444  3
   1478   1473   1462   1480     1  0.0000000  4.9162000  2
   1478   1473   1462   1480     1  0.0000000  0.6024960  3
   1480   1467   1466   1485     1  0.0000000  0.6508444  3
   1480   1462   1463   1483     1  0.0000000  4.9162000  2
   1480   1462   1463   1483     1  0.0000000  0.6024960  3
   1486   1487   1489   1490     1  180.0000771  0.8368000  1
   1486   1487   1489   1490     1  180.0000771  1.0460000  2
   1486   1487   1489   1490     1  0.0000000  0.7531200  3
   1486   1487   1489   1496     1  0.0000000  0.6508444  3
   1486   1504   1491   1495     1  0.0000000  1.6038667  3
   1486   1504   1491   1490     1  180.0000771  0.4184000  2
   1486   1504   1491   1490     1  0.0000000  1.6024720  3
   1487   1489   1490   1491     1  180.0000771  0.8368000  1
   1487   1489   1490   1491     1  180.0000771  1.0460000  2
   1487   1489   1490   1491     1  0.0000000  0.7531200  3
   1487   1489   1490   1509     1  0.0000000  0.6508444  3
   1487   1486   1497   1502     1  0.0000000  0.6508444  3
   1487   1486   1504   1491     1  180.0000771  0.4184000  2
   1487   1486   1504   1491     1  0.0000000  1.6024720  3
   1489   1490   1491   1495     1  0.0000000  0.6508444  3
   1489   1490   1491   1504     1  0.0000000  0.6508444  3
   1489   1487   1486   1497     1  180.0000771  0.8368000  1
   1489   1487   1486   1497     1  180.0000771  1.0460000  2
   1489   1487   1486   1497     1  0.0000000  0.7531200  3
   1489   1487   1486   1504     1  0.0000000  0.6508444  3
   1490   1489   1487   1507     1  0.0000000  0.6508444  3
   1491   1504   1486   1497     1  180.0000771  0.4184000  2
   1491   1504   1486   1497     1  0.0000000  1.6024720  3
   1491   1490   1489   1496     1  0.0000000  0.6508444  3
   1495   1491   1490   1509     1  0.0000000  0.6508444  3
   1496   1489   1490   1509     1  0.0000000  0.6508444  3
   1496   1489   1487   1507     1  0.0000000  4.9162000  2
   1496   1489   1487   1507     1  0.0000000  0.6024960  3
   1497   1486   1487   1507     1  0.0000000  0.6508444  3
   1502   1497   1486   1504     1  0.0000000  4.9162000  2
   1502   1497   1486   1504     1  0.0000000  0.6024960  3
   1504   1491   1490   1509     1  0.0000000  0.6508444  3
   1504   1486   1487   1507     1  0.0000000  4.9162000  2
   1504   1486   1487   1507     1  0.0000000  0.6024960  3
   1511   1513   1515   1519     1  0.0000000  0.6508444  3
   1513   1515   1519   1520     1  0.0000000  0.6508444  3
   1513   1515   1519   1521     1  0.0000000  0.6508444  3
   1515   1519   1520   1531     1  0.0000000  0.6508444  3
   1515   1519   1521   1523     1  0.0000000  0.6508444  3
   1519   1520   1531   1534     1  0.0000000  0.6508444  3
   1519   1521   1523   1527     1  0.0000000  0.6508444  3
   1520   1519   1521   1523     1  0.0000000  0.6508444  3
   1520   1531   1534   1535     1  180.0000771  0.0000000  2
   1520   1531   1534   1583     1  180.0000771  0.0000000  2
   1521   1519   1520   1531     1  0.0000000  0.6508444  3
   1521   1523   1527   1528     1  180.0000771  0.0000000  2
   1521   1523   1527   1559     1  180.0000771  0.0000000  2
   1523   1527   1559   1540     1  180.0000771  6.0668000  2
   1523   1527   1559   1540     1  180.0000771  1.4644000  4
   1527   1559   1540   1539     1  0.0000000  1.2552000  3
   1527   1559   1540   1541     1  0.0000000  1.2552000  3
   1528   1527   1559   1540     1  180.0000771  6.0668000  2
   1528   1527   1559   1540     1  180.0000771  1.4644000  4
   1531   1534   1583   1564     1  180.0000771  6.0668000  2
   1531   1534   1583   1564     1  180.0000771  1.4644000  4
   1534   1583   1564   1563     1  0.0000000  1.2552000  3
   1534   1583   1564   1565     1  0.0000000  1.2552000  3
   1535   1534   1583   1564     1  180.0000771  6.0668000  2
   1535   1534   1583   1564     1  180.0000771  1.4644000  4
   1536   1537   1539   1540     1  180.0000771  0.8368000  1
   1536   1537   1539   1540     1  180.0000771  1.0460000  2
   1536   1537   1539   1540     1  0.0000000  0.7531200  3
   1536   1537   1539   1546     1  0.0000000  0.6508444  3
   1536   1554   1541   1540     1  180.0000771  0.4184000  2
   1536   1554   1541   1540     1  0.0000000  1.6024720  3
   1536   1554   1541   1545     1  0.0000000  1.6038667  3
   1537   1536   1547   1552     1  0.0000000  0.6508444  3
   1537   1536   1554   1541     1  180.0000771  0.4184000  2
   1537   1536   1554   1541     1  0.0000000  1.6024720  3
   1537   1539   1540   1541     1  180.0000771  0.8368000  1
   1537   1539   1540   1541     1  180.0000771  1.0460000  2
   1537   1539   1540   1541     1  0.0000000  0.7531200  3
   1537   1539   1540   1559     1  0.0000000  0.6508444  3
   1539   1537   1536   1547     1  180.0000771  0.8368000  1
   1539   1537   1536   1547     1  180.0000771  1.0460000  2
   1539   1537   1536   1547     1  0.0000000  0.7531200  3
   1539   1537   1536   1554     1  0.0000000  0.6508444  3
   1539   1540   1541   1545     1  0.0000000  0.6508444  3
   1539   1540   1541   1554     1  0.0000000  0.6508444  3
   1540   1539   1537   1557     1  0.0000000  0.6508444  3
   1541   1540   1539   1546     1  0.0000000  0.6508444  3
   1541   1554   1536   1547     1  180.0000771  0.4184000  2
   1541   1554   1536   1547     1  0.0000000  1.6024720  3
   1545   1541   1540   1559     1  0.0000000  0.6508444  3
   1546   1539   1537   1557     1  0.0000000  4.9162000  2
   1546   1539   1537   1557     1  0.0000000  0.6024960  3
   1546   1539   1540   1559     1  0.0000000  0.6508444  3
   1547   1536   1537   1557     1  0.0000000  0.6508444  3
   1552   1547   1536   1554     1  0.0000000  4.9162000  2
   1552   1547   1536   1554     1  0.0000000  0.6024960  3
   1554   1536   1537   1557     1  0.0000000  4.9162000  2
   1554   1536   1537   1557     1  0.0000000  0.6024960  3
   1554   1541   1540   1559     1  0.0000000  0.6508444  3
   1560   1561   1563   1564     1  180.0000771  0.8368000  1
   1560   1561   1563   1564     1  180.0000771  1.0460000  2
   1560   1561   1563   1564     1  0.0000000  0.7531200  3
   1560   1561   1563   1570     1  0.0000000  0.6508444  3
   1560   1578   1565   1564     1  180.0000771  0.4184000  2
   1560   1578   1565   1564     1  0.0000000  1.6024720  3
   1560   1578   1565   1569     1  0.0000000  1.6038667  3
   1561   1560   1571   1576     1  0.0000000  0.6508444  3
   1561   1560   1578   1565     1  180.0000771  0.4184000  2
   1561   1560   1578   1565     1  0.0000000  1.6024720  3
   1561   1563   1564   1565     1  180.0000771  0.8368000  1
   1561   1563   1564   1565     1  180.0000771  1.0460000  2
   1561   1563   1564   1565     1  0.0000000  0.7531200  3
   1561   1563   1564   1583     1  0.0000000  0.6508444  3
   1563   1561   1560   1571     1  180.0000771  0.8368000  1
   1563   1561   1560   1571     1  180.0000771  1.0460000  2
   1563   1561   1560   1571     1  0.0000000  0.7531200  3
   1563   1561   1560   1578     1  0.0000000  0.6508444  3
   1563   1564   1565   1569     1  0.0000000  0.6508444  3
   1563   1564   1565   1578     1  0.0000000  0.6508444  3
   1564   1563   1561   1581     1  0.0000000  0.6508444  3
   1565   1564   1563   1570     1  0.0000000  0.6508444  3
   1565   1578   1560   1571     1  180.0000771  0.4184000  2
   1565   1578   1560   1571     1  0.0000000  1.6024720  3
   1569   1565   1564   1583     1  0.0000000  0.6508444  3
   1570   1563   1561   1581     1  0.0000000  4.9162000  2
   1570   1563   1561   1581     1  0.0000000  0.6024960  3
   1570   1563   1564   1583     1  0.0000000  0.6508444  3
   1571   1560   1561   1581     1  0.0000000  0.6508444  3
   1576   1571   1560   1578     1  0.0000000  4.9162000  2
   1576   1571   1560   1578     1  0.0000000  0.6024960  3
   1578   1560   1561   1581     1  0.0000000  4.9162000  2
   1578   1560   1561   1581     1  0.0000000  0.6024960  3
   1578   1565   1564   1583     1  0.0000000  0.6508444  3
   1585   1587   1589   1593     1  0.0000000  0.6508444  3
   1587   1589   1593   1594     1  0.0000000  0.6508444  3
   1587   1589   1593   1595     1  0.0000000  0.6508444  3
   1589   1593   1594   1605     1  0.0000000  0.6508444  3
   1589   1593   1595   1597     1  0.0000000  0.6508444  3
   1593   1594   1605   1608     1  0.0000000  0.6508444  3
   1593   1595   1597   1601     1  0.0000000  0.6508444  3
   1594   1605   1608   1609     1  180.0000771  0.0000000  2
   1594   1605   1608   1657     1  180.0000771  0.0000000  2
   1594   1593   1595   1597     1  0.0000000  0.6508444  3
   1595   1597   1601   1602     1  180.0000771  0.0000000  2
   1595   1597   1601   1633     1  180.0000771  0.0000000  2
   1595   1593   1594   1605     1  0.0000000  0.6508444  3
   1597   1601   1633   1614     1  180.0000771  6.0668000  2
   1597   1601   1633   1614     1  180.0000771  1.4644000  4
   1601   1633   1614   1615     1  0.0000000  1.2552000  3
   1601   1633   1614   1613     1  0.0000000  1.2552000  3
   1602   1601   1633   1614     1  180.0000771  6.0668000  2
   1602   1601   1633   1614     1  180.0000771  1.4644000  4
   1605   1608   1657   1638     1  180.0000771  6.0668000  2
   1605   1608   1657   1638     1  180.0000771  1.4644000  4
   1608   1657   1638   1639     1  0.0000000  1.2552000  3
   1608   1657   1638   1637     1  0.0000000  1.2552000  3
   1609   1608   1657   1638     1  180.0000771  6.0668000  2
   1609   1608   1657   1638     1  180.0000771  1.4644000  4
   1610   1611   1613   1614     1  180.0000771  0.8368000  1
   1610   1611   1613   1614     1  180.0000771  1.0460000  2
   1610   1611   1613   1614     1  0.0000000  0.7531200  3
   1610   1611   1613   1620     1  0.0000000  0.6508444  3
   1610   1628   1615   1619     1  0.0000000  1.6038667  3
   1610   1628   1615   1614     1  180.0000771  0.4184000  2
   1610   1628   1615   1614     1  0.0000000  1.6024720  3
   1611   1613   1614   1615     1  180.0000771  0.8368000  1
   1611   1613   1614   1615     1  180.0000771  1.0460000  2
   1611   1613   1614   1615     1  0.0000000  0.7531200  3
   1611   1613   1614   1633     1  0.0000000  0.6508444  3
   1611   1610   1621   1626     1  0.0000000  0.6508444  3
   1611   1610   1628   1615     1  180.0000771  0.4184000  2
   1611   1610   1628   1615     1  0.0000000  1.6024720  3
   1613   1614   1615   1619     1  0.0000000  0.6508444  3
   1613   1614   1615   1628     1  0.0000000  0.6508444  3
   1613   1611   1610   1621     1  180.0000771  0.8368000  1
   1613   1611   1610   1621     1  180.0000771  1.0460000  2
   1613   1611   1610   1621     1  0.0000000  0.7531200  3
   1613   1611   1610   1628     1  0.0000000  0.6508444  3
   1614   1613   1611   1631     1  0.0000000  0.6508444  3
   1615   1628   1610   1621     1  180.0000771  0.4184000  2
   1615   1628   1610   1621     1  0.0000000  1.6024720  3
   1615   1614   1613   1620     1  0.0000000  0.6508444  3
   1619   1615   1614   1633     1  0.0000000  0.6508444  3
   1620   1613   1614   1633     1  0.0000000  0.6508444  3
   1620   1613   1611   1631     1  0.0000000  4.9162000  2
   1620   1613   1611   1631     1  0.0000000  0.6024960  3
   1621   1610   1611   1631     1  0.0000000  0.6508444  3
   1626   1621   1610   1628     1  0.0000000  4.9162000  2
   1626   1621   1610   1628     1  0.0000000  0.6024960  3
   1628   1615   1614   1633     1  0.0000000  0.6508444  3
   1628   1610   1611   1631     1  0.0000000  4.9162000  2
   1628   1610   1611   1631     1  0.0000000  0.6024960  3
   1634   1635   1637   1638     1  180.0000771  0.8368000  1
   1634   1635   1637   1638     1  180.0000771  1.0460000  2
   1634   1635   1637   1638     1  0.0000000  0.7531200  3
   1634   1635   1637   1644     1  0.0000000  0.6508444  3
   1634   1652   1639   1643     1  0.0000000  1.6038667  3
   1634   1652   1639   1638     1  180.0000771  0.4184000  2
   1634   1652   1639   1638     1  0.0000000  1.6024720  3
   1635   1637   1638   1639     1  180.0000771  0.8368000  1
   1635   1637   1638   1639     1  180.0000771  1.0460000  2
   1635   1637   1638   1639     1  0.0000000  0.7531200  3
   1635   1637   1638   1657     1  0.0000000  0.6508444  3
   1635   1634   1645   1650     1  0.0000000  0.6508444  3
   1635   1634   1652   1639     1  180.0000771  0.4184000  2
   1635   1634   1652   1639     1  0.0000000  1.6024720  3
   1637   1638   1639   1643     1  0.0000000  0.6508444  3
   1637   1638   1639   1652     1  0.0000000  0.6508444  3
   1637   1635   1634   1645     1  180.0000771  0.8368000  1
   1637   1635   1634   1645     1  180.0000771  1.0460000  2
   1637   1635   1634   1645     1  0.0000000  0.7531200  3
   1637   1635   1634   1652     1  0.0000000  0.6508444  3
   1638   1637   1635   1655     1  0.0000000  0.6508444  3
   1639   1652   1634   1645     1  180.0000771  0.4184000  2
   1639   1652   1634   1645     1  0.0000000  1.6024720  3
   1639   1638   1637   1644     1  0.0000000  0.6508444  3
   1643   1639   1638   1657     1  0.0000000  0.6508444  3
   1644   1637   1638   1657     1  0.0000000  0.6508444  3
   1644   1637   1635   1655     1  0.0000000  4.9162000  2
   1644   1637   1635   1655     1  0.0000000  0.6024960  3
   1645   1634   1635   1655     1  0.0000000  0.6508444  3
   1650   1645   1634   1652     1  0.0000000  4.9162000  2
   1650   1645   1634   1652     1  0.0000000  0.6024960  3
   1652   1639   1638   1657     1  0.0000000  0.6508444  3
   1652   1634   1635   1655     1  0.0000000  4.9162000  2
   1652   1634   1635   1655     1  0.0000000  0.6024960  3
   1659   1661   1663   1667     1  0.0000000  0.6508444  3
   1661   1663   1667   1668     1  0.0000000  0.6508444  3
   1661   1663   1667   1669     1  0.0000000  0.6508444  3
   1663   1667   1668   1679     1  0.0000000  0.6508444  3
   1663   1667   1669   1671     1  0.0000000  0.6508444  3
   1667   1668   1679   1682     1  0.0000000  0.6508444  3
   1667   1669   1671   1675     1  0.0000000  0.6508444  3
   1668   1667   1669   1671     1  0.0000000  0.6508444  3
   1668   1679   1682   1683     1  180.0000771  0.0000000  2
   1668   1679   1682   1731     1  180.0000771  0.0000000  2
   1669   1667   1668   1679     1  0.0000000  0.6508444  3
   1669   1671   1675   1676     1  180.0000771  0.0000000  2
   1669   1671   1675   1707     1  180.0000771  0.0000000  2
   1671   1675   1707   1688     1  180.0000771  6.0668000  2
   1671   1675   1707   1688     1  180.0000771  1.4644000  4
   1675   1707   1688   1687     1  0.0000000  1.2552000  3
   1675   1707   1688   1689     1  0.0000000  1.2552000  3
   1676   1675   1707   1688     1  180.0000771  6.0668000  2
   1676   1675   1707   1688     1  180.0000771  1.4644000  4
   1679   1682   1731   1712     1  180.0000771  6.0668000  2
   1679   1682   1731   1712     1  180.0000771  1.4644000  4
   1682   1731   1712   1711     1  0.0000000  1.2552000  3
   1682   1731   1712   1713     1  0.0000000  1.2552000  3
   1683   1682   1731   1712     1  180.0000771  6.0668000  2
   1683   1682   1731   1712     1  180.0000771  1.4644000  4
   1684   1685   1687   1688     1  180.0000771  0.8368000  1
   1684   1685   1687   1688     1  180.0000771  1.0460000  2
   1684   1685   1687   1688     1  0.0000000  0.7531200  3
   1684   1685   1687   1694     1  0.0000000  0.6508444  3
   1684   1702   1689   1688     1  180.0000771  0.4184000  2
   1684   1702   1689   1688     1  0.0000000  1.6024720  3
   1684   1702   1689   1693     1  0.0000000  1.6038667  3
   1685   1684   1695   1700     1  0.0000000  0.6508444  3
   1685   1684   1702   1689     1  180.0000771  0.4184000  2
   1685   1684   1702   1689     1  0.0000000  1.6024720  3
   1685   1687   1688   1689     1  180.0000771  0.8368000  1
   1685   1687   1688   1689     1  180.0000771  1.0460000  2
   1685   1687   1688   1689     1  0.0000000  0.7531200  3
   1685   1687   1688   1707     1  0.0000000  0.6508444  3
   1687   1685   1684   1695     1  180.0000771  0.8368000  1
   1687   1685   1684   1695     1  180.0000771  1.0460000  2
   1687   1685   1684   1695     1  0.0000000  0.7531200  3
   1687   1685   1684   1702     1  0.0000000  0.6508444  3
   1687   1688   1689   1693     1  0.0000000  0.6508444  3
   1687   1688   1689   1702     1  0.0000000  0.6508444  3
   1688   1687   1685   1705     1  0.0000000  0.6508444  3
   1689   1688   1687   1694     1  0.0000000  0.6508444  3
   1689   1702   1684   1695     1  180.0000771  0.4184000  2
   1689   1702   1684   1695     1  0.0000000  1.6024720  3
   1693   1689   1688   1707     1  0.0000000  0.6508444  3
   1694   1687   1685   1705     1  0.0000000  4.9162000  2
   1694   1687   1685   1705     1  0.0000000  0.6024960  3
   1694   1687   1688   1707     1  0.0000000  0.6508444  3
   1695   1684   1685   1705     1  0.0000000  0.6508444  3
   1700   1695   1684   1702     1  0.0000000  4.9162000  2
   1700   1695   1684   1702     1  0.0000000  0.6024960  3
   1702   1684   1685   1705     1  0.0000000  4.9162000  2
   1702   1684   1685   1705     1  0.0000000  0.6024960  3
   1702   1689   1688   1707     1  0.0000000  0.6508444  3
   1708   1709   1711   1712     1  180.0000771  0.8368000  1
   1708   1709   1711   1712     1  180.0000771  1.0460000  2
   1708   1709   1711   1712     1  0.0000000  0.7531200  3
   1708   1709   1711   1718     1  0.0000000  0.6508444  3
   1708   1726   1713   1712     1  180.0000771  0.4184000  2
   1708   1726   1713   1712     1  0.0000000  1.6024720  3
   1708   1726   1713   1717     1  0.0000000  1.6038667  3
   1709   1708   1719   1724     1  0.0000000  0.6508444  3
   1709   1708   1726   1713     1  180.0000771  0.4184000  2
   1709   1708   1726   1713     1  0.0000000  1.6024720  3
   1709   1711   1712   1713     1  180.0000771  0.8368000  1
   1709   1711   1712   1713     1  180.0000771  1.0460000  2
   1709   1711   1712   1713     1  0.0000000  0.7531200  3
   1709   1711   1712   1731     1  0.0000000  0.6508444  3
   1711   1709   1708   1719     1  180.0000771  0.8368000  1
   1711   1709   1708   1719     1  180.0000771  1.0460000  2
   1711   1709   1708   1719     1  0.0000000  0.7531200  3
   1711   1709   1708   1726     1  0.0000000  0.6508444  3
   1711   1712   1713   1717     1  0.0000000  0.6508444  3
   1711   1712   1713   1726     1  0.0000000  0.6508444  3
   1712   1711   1709   1729     1  0.0000000  0.6508444  3
   1713   1712   1711   1718     1  0.0000000  0.6508444  3
   1713   1726   1708   1719     1  180.0000771  0.4184000  2
   1713   1726   1708   1719     1  0.0000000  1.6024720  3
   1717   1713   1712   1731     1  0.0000000  0.6508444  3
   1718   1711   1709   1729     1  0.0000000  4.9162000  2
   1718   1711   1709   1729     1  0.0000000  0.6024960  3
   1718   1711   1712   1731     1  0.0000000  0.6508444  3
   1719   1708   1709   1729     1  0.0000000  0.6508444  3
   1724   1719   1708   1726     1  0.0000000  4.9162000  2
   1724   1719   1708   1726     1  0.0000000  0.6024960  3
   1726   1708   1709   1729     1  0.0000000  4.9162000  2
   1726   1708   1709   1729     1  0.0000000  0.6024960  3
   1726   1713   1712   1731     1  0.0000000  0.6508444  3
   1733   1735   1737   1741     1  0.0000000  0.6508444  3
   1735   1737   1741   1742     1  0.0000000  0.6508444  3
   1735   1737   1741   1743     1  0.0000000  0.6508444  3
   1737   1741   1742   1753     1  0.0000000  0.6508444  3
   1737   1741   1743   1745     1  0.0000000  0.6508444  3
   1741   1742   1753   1756     1  0.0000000  0.6508444  3
   1741   1743   1745   1749     1  0.0000000  0.6508444  3
   1742   1753   1756   1757     1  180.0000771  0.0000000  2
   1742   1753   1756   1805     1  180.0000771  0.0000000  2
   1742   1741   1743   1745     1  0.0000000  0.6508444  3
   1743   1745   1749   1750     1  180.0000771  0.0000000  2
   1743   1745   1749   1781     1  180.0000771  0.0000000  2
   1743   1741   1742   1753     1  0.0000000  0.6508444  3
   1745   1749   1781   1762     1  180.0000771  6.0668000  2
   1745   1749   1781   1762     1  180.0000771  1.4644000  4
   1749   1781   1762   1763     1  0.0000000  1.2552000  3
   1749   1781   1762   1761     1  0.0000000  1.2552000  3
   1750   1749   1781   1762     1  180.0000771  6.0668000  2
   1750   1749   1781   1762     1  180.0000771  1.4644000  4
   1753   1756   1805   1786     1  180.0000771  6.0668000  2
   1753   1756   1805   1786     1  180.0000771  1.4644000  4
   1756   1805   1786   1787     1  0.0000000  1.2552000  3
   1756   1805   1786   1785     1  0.0000000  1.2552000  3
   1757   1756   1805   1786     1  180.0000771  6.0668000  2
   1757   1756   1805   1786     1  180.0000771  1.4644000  4
   1758   1759   1761   1762     1  180.0000771  0.8368000  1
   1758   1759   1761   1762     1  180.0000771  1.0460000  2
   1758   1759   1761   1762     1  0.0000000  0.7531200  3
   1758   1759   1761   1768     1  0.0000000  0.6508444  3
   1758   1776   1763   1767     1  0.0000000  1.6038667  3
   1758   1776   1763   1762     1  180.0000771  0.4184000  2
   1758   1776   1763   1762     1  0.0000000  1.6024720  3
   1759   1761   1762   1763     1  180.0000771  0.8368000  1
   1759   1761   1762   1763     1  180.0000771  1.0460000  2
   1759   1761   1762   1763     1  0.0000000  0.7531200  3
   1759   1761   1762   1781     1  0.0000000  0.6508444  3
   1759   1758   1769   1774     1  0.0000000  0.6508444  3
   1759   1758   1776   1763     1  180.0000771  0.4184000  2
   1759   1758   1776   1763     1  0.0000000  1.6024720  3
   1761   1762   1763   1767     1  0.0000000  0.6508444  3
   1761   1762   1763   1776     1  0.0000000  0.6508444  3
   1761   1759   1758   1769     1  180.0000771  0.8368000  1
   1761   1759   1758   1769     1  180.0000771  1.0460000  2
   1761   1759   1758   1769     1  0.0000000  0.7531200  3
   1761   1759   1758   1776     1  0.0000000  0.6508444  3
   1762   1761   1759   1779     1  0.0000000  0.6508444  3
   1763   1776   1758   1769     1  180.0000771  0.4184000  2
   1763   1776   1758   1769     1  0.0000000  1.6024720  3
   1763   1762   1761   1768     1  0.0000000  0.6508444  3
   1767   1763   1762   1781     1  0.0000000  0.6508444  3
   1768   1761   1762   1781     1  0.0000000  0.6508444  3
   1768   1761   1759   1779     1  0.0000000  4.9162000  2
   1768   1761   1759   1779     1  0.0000000  0.6024960  3
   1769   1758   1759   1779     1  0.0000000  0.6508444  3
   1774   1769   1758   1776     1  0.0000000  4.9162000  2
   1774   1769   1758   1776     1  0.0000000  0.6024960  3
   1776   1763   1762   1781     1  0.0000000  0.6508444  3
   1776   1758   1759   1779     1  0.0000000  4.9162000  2
   1776   1758   1759   1779     1  0.0000000  0.6024960  3
   1782   1783   1785   1786     1  180.0000771  0.8368000  1
   1782   1783   1785   1786     1  180.0000771  1.0460000  2
   1782   1783   1785   1786     1  0.0000000  0.7531200  3
   1782   1783   1785   1792     1  0.0000000  0.6508444  3
   1782   1800   1787   1791     1  0.0000000  1.6038667  3
   1782   1800   1787   1786     1  180.0000771  0.4184000  2
   1782   1800   1787   1786     1  0.0000000  1.6024720  3
   1783   1785   1786   1787     1  180.0000771  0.8368000  1
   1783   1785   1786   1787     1  180.0000771  1.0460000  2
   1783   1785   1786   1787     1  0.0000000  0.7531200  3
   1783   1785   1786   1805     1  0.0000000  0.6508444  3
   1783   1782   1793   1798     1  0.0000000  0.6508444  3
   1783   1782   1800   1787     1  180.0000771  0.4184000  2
   1783   1782   1800   1787     1  0.0000000  1.6024720  3
   1785   1786   1787   1791     1  0.0000000  0.6508444  3
   1785   1786   1787   1800     1  0.0000000  0.6508444  3
   1785   1783   1782   1793     1  180.0000771  0.8368000  1
   1785   1783   1782   1793     1  180.0000771  1.0460000  2
   1785   1783   1782   1793     1  0.0000000  0.7531200  3
   1785   1783   1782   1800     1  0.0000000  0.6508444  3
   1786   1785   1783   1803     1  0.0000000  0.6508444  3
   1787   1800   1782   1793     1  180.0000771  0.4184000  2
   1787   1800   1782   1793     1  0.0000000  1.6024720  3
   1787   1786   1785   1792     1  0.0000000  0.6508444  3
   1791   1787   1786   1805     1  0.0000000  0.6508444  3
   1792   1785   1786   1805     1  0.0000000  0.6508444  3
   1792   1785   1783   1803     1  0.0000000  4.9162000  2
   1792   1785   1783   1803     1  0.0000000  0.6024960  3
   1793   1782   1783   1803     1  0.0000000  0.6508444  3
   1798   1793   1782   1800     1  0.0000000  4.9162000  2
   1798   1793   1782   1800     1  0.0000000  0.6024960  3
   1800   1787   1786   1805     1  0.0000000  0.6508444  3
   1800   1782   1783   1803     1  0.0000000  4.9162000  2
   1800   1782   1783   1803     1  0.0000000  0.6024960  3
   1807   1809   1811   1815     1  0.0000000  0.6508444  3
   1809   1811   1815   1816     1  0.0000000  0.6508444  3
   1809   1811   1815   1817     1  0.0000000  0.6508444  3
   1811   1815   1816   1827     1  0.0000000  0.6508444  3
   1811   1815   1817   1819     1  0.0000000  0.6508444  3
   1815   1816   1827   1830     1  0.0000000  0.6508444  3
   1815   1817   1819   1823     1  0.0000000  0.6508444  3
   1816   1815   1817   1819     1  0.0000000  0.6508444  3
   1816   1827   1830   1831     1  180.0000771  0.0000000  2
   1816   1827   1830   1879     1  180.0000771  0.0000000  2
   1817   1815   1816   1827     1  0.0000000  0.6508444  3
   1817   1819   1823   1824     1  180.0000771  0.0000000  2
   1817   1819   1823   1855     1  180.0000771  0.0000000  2
   1819   1823   1855   1836     1  180.0000771  6.0668000  2
   1819   1823   1855   1836     1  180.0000771  1.4644000  4
   1823   1855   1836   1835     1  0.0000000  1.2552000  3
   1823   1855   1836   1837     1  0.0000000  1.2552000  3
   1824   1823   1855   1836     1  180.0000771  6.0668000  2
   1824   1823   1855   1836     1  180.0000771  1.4644000  4
   1827   1830   1879   1860     1  180.0000771  6.0668000  2
   1827   1830   1879   1860     1  180.0000771  1.4644000  4
   1830   1879   1860   1859     1  0.0000000  1.2552000  3
   1830   1879   1860   1861     1  0.0000000  1.2552000  3
   1831   1830   1879   1860     1  180.0000771  6.0668000  2
   1831   1830   1879   1860     1  180.0000771  1.4644000  4
   1832   1833   1835   1836     1  180.0000771  0.8368000  1
   1832   1833   1835   1836     1  180.0000771  1.0460000  2
   1832   1833   1835   1836     1  0.0000000  0.7531200  3
   1832   1833   1835   1842     1  0.0000000  0.6508444  3
   1832   1850   1837   1836     1  180.0000771  0.4184000  2
   1832   1850   1837   1836     1  0.0000000  1.6024720  3
   1832   1850   1837   1841     1  0.0000000  1.6038667  3
   1833   1832   1843   1848     1  0.0000000  0.6508444  3
   1833   1832   1850   1837     1  180.0000771  0.4184000  2
   1833   1832   1850   1837     1  0.0000000  1.6024720  3
   1833   1835   1836   1837     1  180.0000771  0.8368000  1
   1833   1835   1836   1837     1  180.0000771  1.0460000  2
   1833   1835   1836   1837     1  0.0000000  0.7531200  3
   1833   1835   1836   1855     1  0.0000000  0.6508444  3
   1835   1833   1832   1843     1  180.0000771  0.8368000  1
   1835   1833   1832   1843     1  180.0000771  1.0460000  2
   1835   1833   1832   1843     1  0.0000000  0.7531200  3
   1835   1833   1832   1850     1  0.0000000  0.6508444  3
   1835   1836   1837   1841     1  0.0000000  0.6508444  3
   1835   1836   1837   1850     1  0.0000000  0.6508444  3
   1836   1835   1833   1853     1  0.0000000  0.6508444  3
   1837   1836   1835   1842     1  0.0000000  0.6508444  3
   1837   1850   1832   1843     1  180.0000771  0.4184000  2
   1837   1850   1832   1843     1  0.0000000  1.6024720  3
   1841   1837   1836   1855     1  0.0000000  0.6508444  3
   1842   1835   1833   1853     1  0.0000000  4.9162000  2
   1842   1835   1833   1853     1  0.0000000  0.6024960  3
   1842   1835   1836   1855     1  0.0000000  0.6508444  3
   1843   1832   1833   1853     1  0.0000000  0.6508444  3
   1848   1843   1832   1850     1  0.0000000  4.9162000  2
   1848   1843   1832   1850     1  0.0000000  0.6024960  3
   1850   1832   1833   1853     1  0.0000000  4.9162000  2
   1850   1832   1833   1853     1  0.0000000  0.6024960  3
   1850   1837   1836   1855     1  0.0000000  0.6508444  3
   1856   1857   1859   1860     1  180.0000771  0.8368000  1
   1856   1857   1859   1860     1  180.0000771  1.0460000  2
   1856   1857   1859   1860     1  0.0000000  0.7531200  3
   1856   1857   1859   1866     1  0.0000000  0.6508444  3
   1856   1874   1861   1860     1  180.0000771  0.4184000  2
   1856   1874   1861   1860     1  0.0000000  1.6024720  3
   1856   1874   1861   1865     1  0.0000000  1.6038667  3
   1857   1856   1867   1872     1  0.0000000  0.6508444  3
   1857   1856   1874   1861     1  180.0000771  0.4184000  2
   1857   1856   1874   1861     1  0.0000000  1.6024720  3
   1857   1859   1860   1861     1  180.0000771  0.8368000  1
   1857   1859   1860   1861     1  180.0000771  1.0460000  2
   1857   1859   1860   1861     1  0.0000000  0.7531200  3
   1857   1859   1860   1879     1  0.0000000  0.6508444  3
   1859   1857   1856   1867     1  180.0000771  0.8368000  1
   1859   1857   1856   1867     1  180.0000771  1.0460000  2
   1859   1857   1856   1867     1  0.0000000  0.7531200  3
   1859   1857   1856   1874     1  0.0000000  0.6508444  3
   1859   1860   1861   1865     1  0.0000000  0.6508444  3
   1859   1860   1861   1874     1  0.0000000  0.6508444  3
   1860   1859   1857   1877     1  0.0000000  0.6508444  3
   1861   1860   1859   1866     1  0.0000000  0.6508444  3
   1861   1874   1856   1867     1  180.0000771  0.4184000  2
   1861   1874   1856   1867     1  0.0000000  1.6024720  3
   1865   1861   1860   1879     1  0.0000000  0.6508444  3
   1866   1859   1857   1877     1  0.0000000  4.9162000  2
   1866   1859   1857   1877     1  0.0000000  0.6024960  3
   1866   1859   1860   1879     1  0.0000000  0.6508444  3
   1867   1856   1857   1877     1  0.0000000  0.6508444  3
   1872   1867   1856   1874     1  0.0000000  4.9162000  2
   1872   1867   1856   1874     1  0.0000000  0.6024960  3
   1874   1856   1857   1877     1  0.0000000  4.9162000  2
   1874   1856   1857   1877     1  0.0000000  0.6024960  3
   1874   1861   1860   1879     1  0.0000000  0.6508444  3
   1881   1883   1885   1889     1  0.0000000  0.6508444  3
   1883   1885   1889   1890     1  0.0000000  0.6508444  3
   1883   1885   1889   1891     1  0.0000000  0.6508444  3
   1885   1889   1890   1901     1  0.0000000  0.6508444  3
   1885   1889   1891   1893     1  0.0000000  0.6508444  3
   1889   1890   1901   1904     1  0.0000000  0.6508444  3
   1889   1891   1893   1897     1  0.0000000  0.6508444  3
   1890   1901   1904   1905     1  180.0000771  0.0000000  2
   1890   1901   1904   1953     1  180.0000771  0.0000000  2
   1890   1889   1891   1893     1  0.0000000  0.6508444  3
   1891   1893   1897   1898     1  180.0000771  0.0000000  2
   1891   1893   1897   1929     1  180.0000771  0.0000000  2
   1891   1889   1890   1901     1  0.0000000  0.6508444  3
   1893   1897   1929   1910     1  180.0000771  6.0668000  2
   1893   1897   1929   1910     1  180.0000771  1.4644000  4
   1897   1929   1910   1911     1  0.0000000  1.2552000  3
   1897   1929   1910   1909     1  0.0000000  1.2552000  3
   1898   1897   1929   1910     1  180.0000771  6.0668000  2
   1898   1897   1929   1910     1  180.0000771  1.4644000  4
   1901   1904   1953   1934     1  180.0000771  6.0668000  2
   1901   1904   1953   1934     1  180.0000771  1.4644000  4
   1904   1953   1934   1935     1  0.0000000  1.2552000  3
   1904   1953   1934   1933     1  0.0000000  1.2552000  3
   1905   1904   1953   1934     1  180.0000771  6.0668000  2
   1905   1904   1953   1934     1  180.0000771  1.4644000  4
   1906   1907   1909   1910     1  180.0000771  0.8368000  1
   1906   1907   1909   1910     1  180.0000771  1.0460000  2
   1906   1907   1909   1910     1  0.0000000  0.7531200  3
   1906   1907   1909   1916     1  0.0000000  0.6508444  3
   1906   1924   1911   1915     1  0.0000000  1.6038667  3
   1906   1924   1911   1910     1  180.0000771  0.4184000  2
   1906   1924   1911   1910     1  0.0000000  1.6024720  3
   1907   1909   1910   1911     1  180.0000771  0.8368000  1
   1907   1909   1910   1911     1  180.0000771  1.0460000  2
   1907   1909   1910   1911     1  0.0000000  0.7531200  3
   1907   1909   1910   1929     1  0.0000000  0.6508444  3
   1907   1906   1917   1922     1  0.0000000  0.6508444  3
   1907   1906   1924   1911     1  180.0000771  0.4184000  2
   1907   1906   1924   1911     1  0.0000000  1.6024720  3
   1909   1910   1911   1915     1  0.0000000  0.6508444  3
   1909   1910   1911   1924     1  0.0000000  0.6508444  3
   1909   1907   1906   1917     1  180.0000771  0.8368000  1
   1909   1907   1906   1917     1  180.0000771  1.0460000  2
   1909   1907   1906   1917     1  0.0000000  0.7531200  3
   1909   1907   1906   1924     1  0.0000000  0.6508444  3
   1910   1909   1907   1927     1  0.0000000  0.6508444  3
   1911   1924   1906   1917     1  180.0000771  0.4184000  2
   1911   1924   1906   1917     1  0.0000000  1.6024720  3
   1911   1910   1909   1916     1  0.0000000  0.6508444  3
   1915   1911   1910   1929     1  0.0000000  0.6508444  3
   1916   1909   1910   1929     1  0.0000000  0.6508444  3
   1916   1909   1907   1927     1  0.0000000  4.9162000  2
   1916   1909   1907   1927     1  0.0000000  0.6024960  3
   1917   1906   1907   1927     1  0.0000000  0.6508444  3
   1922   1917   1906   1924     1  0.0000000  4.9162000  2
   1922   1917   1906   1924     1  0.0000000  0.6024960  3
   1924   1911   1910   1929     1  0.0000000  0.6508444  3
   1924   1906   1907   1927     1  0.0000000  4.9162000  2
   1924   1906   1907   1927     1  0.0000000  0.6024960  3
   1930   1931   1933   1934     1  180.0000771  0.8368000  1
   1930   1931   1933   1934     1  180.0000771  1.0460000  2
   1930   1931   1933   1934     1  0.0000000  0.7531200  3
   1930   1931   1933   1940     1  0.0000000  0.6508444  3
   1930   1948   1935   1939     1  0.0000000  1.6038667  3
   1930   1948   1935   1934     1  180.0000771  0.4184000  2
   1930   1948   1935   1934     1  0.0000000  1.6024720  3
   1931   1933   1934   1935     1  180.0000771  0.8368000  1
   1931   1933   1934   1935     1  180.0000771  1.0460000  2
   1931   1933   1934   1935     1  0.0000000  0.7531200  3
   1931   1933   1934   1953     1  0.0000000  0.6508444  3
   1931   1930   1941   1946     1  0.0000000  0.6508444  3
   1931   1930   1948   1935     1  180.0000771  0.4184000  2
   1931   1930   1948   1935     1  0.0000000  1.6024720  3
   1933   1934   1935   1939     1  0.0000000  0.6508444  3
   1933   1934   1935   1948     1  0.0000000  0.6508444  3
   1933   1931   1930   1941     1  180.0000771  0.8368000  1
   1933   1931   1930   1941     1  180.0000771  1.0460000  2
   1933   1931   1930   1941     1  0.0000000  0.7531200  3
   1933   1931   1930   1948     1  0.0000000  0.6508444  3
   1934   1933   1931   1951     1  0.0000000  0.6508444  3
   1935   1948   1930   1941     1  180.0000771  0.4184000  2
   1935   1948   1930   1941     1  0.0000000  1.6024720  3
   1935   1934   1933   1940     1  0.0000000  0.6508444  3
   1939   1935   1934   1953     1  0.0000000  0.6508444  3
   1940   1933   1934   1953     1  0.0000000  0.6508444  3
   1940   1933   1931   1951     1  0.0000000  4.9162000  2
   1940   1933   1931   1951     1  0.0000000  0.6024960  3
   1941   1930   1931   1951     1  0.0000000  0.6508444  3
   1946   1941   1930   1948     1  0.0000000  4.9162000  2
   1946   1941   1930   1948     1  0.0000000  0.6024960  3
   1948   1935   1934   1953     1  0.0000000  0.6508444  3
   1948   1930   1931   1951     1  0.0000000  4.9162000  2
   1948   1930   1931   1951     1  0.0000000  0.6024960  3
   1955   1957   1959   1963     1  0.0000000  0.6508444  3
   1957   1959   1963   1964     1  0.0000000  0.6508444  3
   1957   1959   1963   1965     1  0.0000000  0.6508444  3
   1959   1963   1964   1975     1  0.0000000  0.6508444  3
   1959   1963   1965   1967     1  0.0000000  0.6508444  3
   1963   1964   1975   1978     1  0.0000000  0.6508444  3
   1963   1965   1967   1971     1  0.0000000  0.6508444  3
   1964   1963   1965   1967     1  0.0000000  0.6508444  3
   1964   1975   1978   1979     1  180.0000771  0.0000000  2
   1964   1975   1978   2027     1  180.0000771  0.0000000  2
   1965   1963   1964   1975     1  0.0000000  0.6508444  3
   1965   1967   1971   1972     1  180.0000771  0.0000000  2
   1965   1967   1971   2003     1  180.0000771  0.0000000  2
   1967   1971   2003   1984     1  180.0000771  6.0668000  2
   1967   1971   2003   1984     1  180.0000771  1.4644000  4
   1971   2003   1984   1983     1  0.0000000  1.2552000  3
   1971   2003   1984   1985     1  0.0000000  1.2552000  3
   1972   1971   2003   1984     1  180.0000771  6.0668000  2
   1972   1971   2003   1984     1  180.0000771  1.4644000  4
   1975   1978   2027   2008     1  180.0000771  6.0668000  2
   1975   1978   2027   2008     1  180.0000771  1.4644000  4
   1978   2027   2008   2007     1  0.0000000  1.2552000  3
   1978   2027   2008   2009     1  0.0000000  1.2552000  3
   1979   1978   2027   2008     1  180.0000771  6.0668000  2
   1979   1978   2027   2008     1  180.0000771  1.4644000  4
   1980   1981   1983   1984     1  180.0000771  0.8368000  1
   1980   1981   1983   1984     1  180.0000771  1.0460000  2
   1980   1981   1983   1984     1  0.0000000  0.7531200  3
   1980   1981   1983   1990     1  0.0000000  0.6508444  3
   1980   1998   1985   1984     1  180.0000771  0.4184000  2
   1980   1998   1985   1984     1  0.0000000  1.6024720  3
   1980   1998   1985   1989     1  0.0000000  1.6038667  3
   1981   1980   1991   1996     1  0.0000000  0.6508444  3
   1981   1980   1998   1985     1  180.0000771  0.4184000  2
   1981   1980   1998   1985     1  0.0000000  1.6024720  3
   1981   1983   1984   1985     1  180.0000771  0.8368000  1
   1981   1983   1984   1985     1  180.0000771  1.0460000  2
   1981   1983   1984   1985     1  0.0000000  0.7531200  3
   1981   1983   1984   2003     1  0.0000000  0.6508444  3
   1983   1981   1980   1991     1  180.0000771  0.8368000  1
   1983   1981   1980   1991     1  180.0000771  1.0460000  2
   1983   1981   1980   1991     1  0.0000000  0.7531200  3
   1983   1981   1980   1998     1  0.0000000  0.6508444  3
   1983   1984   1985   1989     1  0.0000000  0.6508444  3
   1983   1984   1985   1998     1  0.0000000  0.6508444  3
   1984   1983   1981   2001     1  0.0000000  0.6508444  3
   1985   1984   1983   1990     1  0.0000000  0.6508444  3
   1985   1998   1980   1991     1  180.0000771  0.4184000  2
   1985   1998   1980   1991     1  0.0000000  1.6024720  3
   1989   1985   1984   2003     1  0.0000000  0.6508444  3
   1990   1983   1981   2001     1  0.0000000  4.9162000  2
   1990   1983   1981   2001     1  0.0000000  0.6024960  3
   1990   1983   1984   2003     1  0.0000000  0.6508444  3
   1991   1980   1981   2001     1  0.0000000  0.6508444  3
   1996   1991   1980   1998     1  0.0000000  4.9162000  2
   1996   1991   1980   1998     1  0.0000000  0.6024960  3
   1998   1980   1981   2001     1  0.0000000  4.9162000  2
   1998   1980   1981   2001     1  0.0000000  0.6024960  3
   1998   1985   1984   2003     1  0.0000000  0.6508444  3
   2004   2005   2007   2008     1  180.0000771  0.8368000  1
   2004   2005   2007   2008     1  180.0000771  1.0460000  2
   2004   2005   2007   2008     1  0.0000000  0.7531200  3
   2004   2005   2007   2014     1  0.0000000  0.6508444  3
   2004   2022   2009   2008     1  180.0000771  0.4184000  2
   2004   2022   2009   2008     1  0.0000000  1.6024720  3
   2004   2022   2009   2013     1  0.0000000  1.6038667  3
   2005   2004   2015   2020     1  0.0000000  0.6508444  3
   2005   2004   2022   2009     1  180.0000771  0.4184000  2
   2005   2004   2022   2009     1  0.0000000  1.6024720  3
   2005   2007   2008   2009     1  180.0000771  0.8368000  1
   2005   2007   2008   2009     1  180.0000771  1.0460000  2
   2005   2007   2008   2009     1  0.0000000  0.7531200  3
   2005   2007   2008   2027     1  0.0000000  0.6508444  3
   2007   2005   2004   2015     1  180.0000771  0.8368000  1
   2007   2005   2004   2015     1  180.0000771  1.0460000  2
   2007   2005   2004   2015     1  0.0000000  0.7531200  3
   2007   2005   2004   2022     1  0.0000000  0.6508444  3
   2007   2008   2009   2013     1  0.0000000  0.6508444  3
   2007   2008   2009   2022     1  0.0000000  0.6508444  3
   2008   2007   2005   2025     1  0.0000000  0.6508444  3
   2009   2008   2007   2014     1  0.0000000  0.6508444  3
   2009   2022   2004   2015     1  180.0000771  0.4184000  2
   2009   2022   2004   2015     1  0.0000000  1.6024720  3
   2013   2009   2008   2027     1  0.0000000  0.6508444  3
   2014   2007   2005   2025     1  0.0000000  4.9162000  2
   2014   2007   2005   2025     1  0.0000000  0.6024960  3
   2014   2007   2008   2027     1  0.0000000  0.6508444  3
   2015   2004   2005   2025     1  0.0000000  0.6508444  3
   2020   2015   2004   2022     1  0.0000000  4.9162000  2
   2020   2015   2004   2022     1  0.0000000  0.6024960  3
   2022   2004   2005   2025     1  0.0000000  4.9162000  2
   2022   2004   2005   2025     1  0.0000000  0.6024960  3
   2022   2009   2008   2027     1  0.0000000  0.6508444  3
   2029   2031   2033   2037     1  0.0000000  0.6508444  3
   2031   2033   2037   2038     1  0.0000000  0.6508444  3
   2031   2033   2037   2039     1  0.0000000  0.6508444  3
   2033   2037   2038   2049     1  0.0000000  0.6508444  3
   2033   2037   2039   2041     1  0.0000000  0.6508444  3
   2037   2038   2049   2052     1  0.0000000  0.6508444  3
   2037   2039   2041   2045     1  0.0000000  0.6508444  3
   2038   2049   2052   2053     1  180.0000771  0.0000000  2
   2038   2049   2052   2101     1  180.0000771  0.0000000  2
   2038   2037   2039   2041     1  0.0000000  0.6508444  3
   2039   2041   2045   2046     1  180.0000771  0.0000000  2
   2039   2041   2045   2077     1  180.0000771  0.0000000  2
   2039   2037   2038   2049     1  0.0000000  0.6508444  3
   2041   2045   2077   2058     1  180.0000771  6.0668000  2
   2041   2045   2077   2058     1  180.0000771  1.4644000  4
   2045   2077   2058   2059     1  0.0000000  1.2552000  3
   2045   2077   2058   2057     1  0.0000000  1.2552000  3
   2046   2045   2077   2058     1  180.0000771  6.0668000  2
   2046   2045   2077   2058     1  180.0000771  1.4644000  4
   2049   2052   2101   2082     1  180.0000771  6.0668000  2
   2049   2052   2101   2082     1  180.0000771  1.4644000  4
   2052   2101   2082   2083     1  0.0000000  1.2552000  3
   2052   2101   2082   2081     1  0.0000000  1.2552000  3
   2053   2052   2101   2082     1  180.0000771  6.0668000  2
   2053   2052   2101   2082     1  180.0000771  1.4644000  4
   2054   2055   2057   2058     1  180.0000771  0.8368000  1
   2054   2055   2057   2058     1  180.0000771  1.0460000  2
   2054   2055   2057   2058     1  0.0000000  0.7531200  3
   2054   2055   2057   2064     1  0.0000000  0.6508444  3
   2054   2072   2059   2063     1  0.0000000  1.6038667  3
   2054   2072   2059   2058     1  180.0000771  0.4184000  2
   2054   2072   2059   2058     1  0.0000000  1.6024720  3
   2055   2057   2058   2059     1  180.0000771  0.8368000  1
   2055   2057   2058   2059     1  180.0000771  1.0460000  2
   2055   2057   2058   2059     1  0.0000000  0.7531200  3
   2055   2057   2058   2077     1  0.0000000  0.6508444  3
   2055   2054   2065   2070     1  0.0000000  0.6508444  3
   2055   2054   2072   2059     1  180.0000771  0.4184000  2
   2055   2054   2072   2059     1  0.0000000  1.6024720  3
   2057   2058   2059   2063     1  0.0000000  0.6508444  3
   2057   2058   2059   2072     1  0.0000000  0.6508444  3
   2057   2055   2054   2065     1  180.0000771  0.8368000  1
   2057   2055   2054   2065     1  180.0000771  1.0460000  2
   2057   2055   2054   2065     1  0.0000000  0.7531200  3
   2057   2055   2054   2072     1  0.0000000  0.6508444  3
   2058   2057   2055   2075     1  0.0000000  0.6508444  3
   2059   2072   2054   2065     1  180.0000771  0.4184000  2
   2059   2072   2054   2065     1  0.0000000  1.6024720  3
   2059   2058   2057   2064     1  0.0000000  0.6508444  3
   2063   2059   2058   2077     1  0.0000000  0.6508444  3
   2064   2057   2058   2077     1  0.0000000  0.6508444  3
   2064   2057   2055   2075     1  0.0000000  4.9162000  2
   2064   2057   2055   2075     1  0.0000000  0.6024960  3
   2065   2054   2055   2075     1  0.0000000  0.6508444  3
   2070   2065   2054   2072     1  0.0000000  4.9162000  2
   2070   2065   2054   2072     1  0.0000000  0.6024960  3
   2072   2059   2058   2077     1  0.0000000  0.6508444  3
   2072   2054   2055   2075     1  0.0000000  4.9162000  2
   2072   2054   2055   2075     1  0.0000000  0.6024960  3
   2078   2079   2081   2082     1  180.0000771  0.8368000  1
   2078   2079   2081   2082     1  180.0000771  1.0460000  2
   2078   2079   2081   2082     1  0.0000000  0.7531200  3
   2078   2079   2081   2088     1  0.0000000  0.6508444  3
   2078   2096   2083   2087     1  0.0000000  1.6038667  3
   2078   2096   2083   2082     1  180.0000771  0.4184000  2
   2078   2096   2083   2082     1  0.0000000  1.6024720  3
   2079   2081   2082   2083     1  180.0000771  0.8368000  1
   2079   2081   2082   2083     1  180.0000771  1.0460000  2
   2079   2081   2082   2083     1  0.0000000  0.7531200  3
   2079   2081   2082   2101     1  0.0000000  0.6508444  3
   2079   2078   2089   2094     1  0.0000000  0.6508444  3
   2079   2078   2096   2083     1  180.0000771  0.4184000  2
   2079   2078   2096   2083     1  0.0000000  1.6024720  3
   2081   2082   2083   2087     1  0.0000000  0.6508444  3
   2081   2082   2083   2096     1  0.0000000  0.6508444  3
   2081   2079   2078   2089     1  180.0000771  0.8368000  1
   2081   2079   2078   2089     1  180.0000771  1.0460000  2
   2081   2079   2078   2089     1  0.0000000  0.7531200  3
   2081   2079   2078   2096     1  0.0000000  0.6508444  3
   2082   2081   2079   2099     1  0.0000000  0.6508444  3
   2083   2096   2078   2089     1  180.0000771  0.4184000  2
   2083   2096   2078   2089     1  0.0000000  1.6024720  3
   2083   2082   2081   2088     1  0.0000000  0.6508444  3
   2087   2083   2082   2101     1  0.0000000  0.6508444  3
   2088   2081   2082   2101     1  0.0000000  0.6508444  3
   2088   2081   2079   2099     1  0.0000000  4.9162000  2
   2088   2081   2079   2099     1  0.0000000  0.6024960  3
   2089   2078   2079   2099     1  0.0000000  0.6508444  3
   2094   2089   2078   2096     1  0.0000000  4.9162000  2
   2094   2089   2078   2096     1  0.0000000  0.6024960  3
   2096   2083   2082   2101     1  0.0000000  0.6508444  3
   2096   2078   2079   2099     1  0.0000000  4.9162000  2
   2096   2078   2079   2099     1  0.0000000  0.6024960  3
   2103   2105   2107   2111     1  0.0000000  0.6508444  3
   2105   2107   2111   2112     1  0.0000000  0.6508444  3
   2105   2107   2111   2113     1  0.0000000  0.6508444  3
   2107   2111   2112   2123     1  0.0000000  0.6508444  3
   2107   2111   2113   2115     1  0.0000000  0.6508444  3
   2111   2112   2123   2126     1  0.0000000  0.6508444  3
   2111   2113   2115   2119     1  0.0000000  0.6508444  3
   2112   2111   2113   2115     1  0.0000000  0.6508444  3
   2112   2123   2126   2127     1  180.0000771  0.0000000  2
   2112   2123   2126   2175     1  180.0000771  0.0000000  2
   2113   2111   2112   2123     1  0.0000000  0.6508444  3
   2113   2115   2119   2120     1  180.0000771  0.0000000  2
   2113   2115   2119   2151     1  180.0000771  0.0000000  2
   2115   2119   2151   2132     1  180.0000771  6.0668000  2
   2115   2119   2151   2132     1  180.0000771  1.4644000  4
   2119   2151   2132   2131     1  0.0000000  1.2552000  3
   2119   2151   2132   2133     1  0.0000000  1.2552000  3
   2120   2119   2151   2132     1  180.0000771  6.0668000  2
   2120   2119   2151   2132     1  180.0000771  1.4644000  4
   2123   2126   2175   2156     1  180.0000771  6.0668000  2
   2123   2126   2175   2156     1  180.0000771  1.4644000  4
   2126   2175   2156   2155     1  0.0000000  1.2552000  3
   2126   2175   2156   2157     1  0.0000000  1.2552000  3
   2127   2126   2175   2156     1  180.0000771  6.0668000  2
   2127   2126   2175   2156     1  180.0000771  1.4644000  4
   2128   2129   2131   2132     1  180.0000771  0.8368000  1
   2128   2129   2131   2132     1  180.0000771  1.0460000  2
   2128   2129   2131   2132     1  0.0000000  0.7531200  3
   2128   2129   2131   2138     1  0.0000000  0.6508444  3
   2128   2146   2133   2132     1  180.0000771  0.4184000  2
   2128   2146   2133   2132     1  0.0000000  1.6024720  3
   2128   2146   2133   2137     1  0.0000000  1.6038667  3
   2129   2128   2139   2144     1  0.0000000  0.6508444  3
   2129   2128   2146   2133     1  180.0000771  0.4184000  2
   2129   2128   2146   2133     1  0.0000000  1.6024720  3
   2129   2131   2132   2133     1  180.0000771  0.8368000  1
   2129   2131   2132   2133     1  180.0000771  1.0460000  2
   2129   2131   2132   2133     1  0.0000000  0.7531200  3
   2129   2131   2132   2151     1  0.0000000  0.6508444  3
   2131   2129   2128   2139     1  180.0000771  0.8368000  1
   2131   2129   2128   2139     1  180.0000771  1.0460000  2
   2131   2129   2128   2139     1  0.0000000  0.7531200  3
   2131   2129   2128   2146     1  0.0000000  0.6508444  3
   2131   2132   2133   2137     1  0.0000000  0.6508444  3
   2131   2132   2133   2146     1  0.0000000  0.6508444  3
   2132   2131   2129   2149     1  0.0000000  0.6508444  3
   2133   2132   2131   2138     1  0.0000000  0.6508444  3
   2133   2146   2128   2139     1  180.0000771  0.4184000  2
   2133   2146   2128   2139     1  0.0000000  1.6024720  3
   2137   2133   2132   2151     1  0.0000000  0.6508444  3
   2138   2131   2129   2149     1  0.0000000  4.9162000  2
   2138   2131   2129   2149     1  0.0000000  0.6024960  3
   2138   2131   2132   2151     1  0.0000000  0.6508444  3
   2139   2128   2129   2149     1  0.0000000  0.6508444  3
   2144   2139   2128   2146     1  0.0000000  4.9162000  2
   2144   2139   2128   2146     1  0.0000000  0.6024960  3
   2146   2128   2129   2149     1  0.0000000  4.9162000  2
   2146   2128   2129   2149     1  0.0000000  0.6024960  3
   2146   2133   2132   2151     1  0.0000000  0.6508444  3
   2152   2153   2155   2156     1  180.0000771  0.8368000  1
   2152   2153   2155   2156     1  180.0000771  1.0460000  2
   2152   2153   2155   2156     1  0.0000000  0.7531200  3
   2152   2153   2155   2162     1  0.0000000  0.6508444  3
   2152   2170   2157   2156     1  180.0000771  0.4184000  2
   2152   2170   2157   2156     1  0.0000000  1.6024720  3
   2152   2170   2157   2161     1  0.0000000  1.6038667  3
   2153   2152   2163   2168     1  0.0000000  0.6508444  3
   2153   2152   2170   2157     1  180.0000771  0.4184000  2
   2153   2152   2170   2157     1  0.0000000  1.6024720  3
   2153   2155   2156   2157     1  180.0000771  0.8368000  1
   2153   2155   2156   2157     1  180.0000771  1.0460000  2
   2153   2155   2156   2157     1  0.0000000  0.7531200  3
   2153   2155   2156   2175     1  0.0000000  0.6508444  3
   2155   2153   2152   2163     1  180.0000771  0.8368000  1
   2155   2153   2152   2163     1  180.0000771  1.0460000  2
   2155   2153   2152   2163     1  0.0000000  0.7531200  3
   2155   2153   2152   2170     1  0.0000000  0.6508444  3
   2155   2156   2157   2161     1  0.0000000  0.6508444  3
   2155   2156   2157   2170     1  0.0000000  0.6508444  3
   2156   2155   2153   2173     1  0.0000000  0.6508444  3
   2157   2156   2155   2162     1  0.0000000  0.6508444  3
   2157   2170   2152   2163     1  180.0000771  0.4184000  2
   2157   2170   2152   2163     1  0.0000000  1.6024720  3
   2161   2157   2156   2175     1  0.0000000  0.6508444  3
   2162   2155   2153   2173     1  0.0000000  4.9162000  2
   2162   2155   2153   2173     1  0.0000000  0.6024960  3
   2162   2155   2156   2175     1  0.0000000  0.6508444  3
   2163   2152   2153   2173     1  0.0000000  0.6508444  3
   2168   2163   2152   2170     1  0.0000000  4.9162000  2
   2168   2163   2152   2170     1  0.0000000  0.6024960  3
   2170   2152   2153   2173     1  0.0000000  4.9162000  2
   2170   2152   2153   2173     1  0.0000000  0.6024960  3
   2170   2157   2156   2175     1  0.0000000  0.6508444  3
   2177   2179   2181   2185     1  0.0000000  0.6508444  3
   2179   2181   2185   2186     1  0.0000000  0.6508444  3
   2179   2181   2185   2187     1  0.0000000  0.6508444  3
   2181   2185   2186   2197     1  0.0000000  0.6508444  3
   2181   2185   2187   2189     1  0.0000000  0.6508444  3
   2185   2186   2197   2200     1  0.0000000  0.6508444  3
   2185   2187   2189   2193     1  0.0000000  0.6508444  3
   2186   2197   2200   2201     1  180.0000771  0.0000000  2
   2186   2197   2200   2249     1  180.0000771  0.0000000  2
   2186   2185   2187   2189     1  0.0000000  0.6508444  3
   2187   2189   2193   2194     1  180.0000771  0.0000000  2
   2187   2189   2193   2225     1  180.0000771  0.0000000  2
   2187   2185   2186   2197     1  0.0000000  0.6508444  3
   2189   2193   2225   2206     1  180.0000771  6.0668000  2
   2189   2193   2225   2206     1  180.0000771  1.4644000  4
   2193   2225   2206   2207     1  0.0000000  1.2552000  3
   2193   2225   2206   2205     1  0.0000000  1.2552000  3
   2194   2193   2225   2206     1  180.0000771  6.0668000  2
   2194   2193   2225   2206     1  180.0000771  1.4644000  4
   2197   2200   2249   2230     1  180.0000771  6.0668000  2
   2197   2200   2249   2230     1  180.0000771  1.4644000  4
   2200   2249   2230   2231     1  0.0000000  1.2552000  3
   2200   2249   2230   2229     1  0.0000000  1.2552000  3
   2201   2200   2249   2230     1  180.0000771  6.0668000  2
   2201   2200   2249   2230     1  180.0000771  1.4644000  4
   2202   2203   2205   2206     1  180.0000771  0.8368000  1
   2202   2203   2205   2206     1  180.0000771  1.0460000  2
   2202   2203   2205   2206     1  0.0000000  0.7531200  3
   2202   2203   2205   2212     1  0.0000000  0.6508444  3
   2202   2220   2207   2211     1  0.0000000  1.6038667  3
   2202   2220   2207   2206     1  180.0000771  0.4184000  2
   2202   2220   2207   2206     1  0.0000000  1.6024720  3
   2203   2205   2206   2207     1  180.0000771  0.8368000  1
   2203   2205   2206   2207     1  180.0000771  1.0460000  2
   2203   2205   2206   2207     1  0.0000000  0.7531200  3
   2203   2205   2206   2225     1  0.0000000  0.6508444  3
   2203   2202   2213   2218     1  0.0000000  0.6508444  3
   2203   2202   2220   2207     1  180.0000771  0.4184000  2
   2203   2202   2220   2207     1  0.0000000  1.6024720  3
   2205   2206   2207   2211     1  0.0000000  0.6508444  3
   2205   2206   2207   2220     1  0.0000000  0.6508444  3
   2205   2203   2202   2213     1  180.0000771  0.8368000  1
   2205   2203   2202   2213     1  180.0000771  1.0460000  2
   2205   2203   2202   2213     1  0.0000000  0.7531200  3
   2205   2203   2202   2220     1  0.0000000  0.6508444  3
   2206   2205   2203   2223     1  0.0000000  0.6508444  3
   2207   2220   2202   2213     1  180.0000771  0.4184000  2
   2207   2220   2202   2213     1  0.0000000  1.6024720  3
   2207   2206   2205   2212     1  0.0000000  0.6508444  3
   2211   2207   2206   2225     1  0.0000000  0.6508444  3
   2212   2205   2206   2225     1  0.0000000  0.6508444  3
   2212   2205   2203   2223     1  0.0000000  4.9162000  2
   2212   2205   2203   2223     1  0.0000000  0.6024960  3
   2213   2202   2203   2223     1  0.0000000  0.6508444  3
   2218   2213   2202   2220     1  0.0000000  4.9162000  2
   2218   2213   2202   2220     1  0.0000000  0.6024960  3
   2220   2207   2206   2225     1  0.0000000  0.6508444  3
   2220   2202   2203   2223     1  0.0000000  4.9162000  2
   2220   2202   2203   2223     1  0.0000000  0.6024960  3
   2226   2227   2229   2230     1  180.0000771  0.8368000  1
   2226   2227   2229   2230     1  180.0000771  1.0460000  2
   2226   2227   2229   2230     1  0.0000000  0.7531200  3
   2226   2227   2229   2236     1  0.0000000  0.6508444  3
   2226   2244   2231   2235     1  0.0000000  1.6038667  3
   2226   2244   2231   2230     1  180.0000771  0.4184000  2
   2226   2244   2231   2230     1  0.0000000  1.6024720  3
   2227   2229   2230   2231     1  180.0000771  0.8368000  1
   2227   2229   2230   2231     1  180.0000771  1.0460000  2
   2227   2229   2230   2231     1  0.0000000  0.7531200  3
   2227   2229   2230   2249     1  0.0000000  0.6508444  3
   2227   2226   2237   2242     1  0.0000000  0.6508444  3
   2227   2226   2244   2231     1  180.0000771  0.4184000  2
   2227   2226   2244   2231     1  0.0000000  1.6024720  3
   2229   2230   2231   2235     1  0.0000000  0.6508444  3
   2229   2230   2231   2244     1  0.0000000  0.6508444  3
   2229   2227   2226   2237     1  180.0000771  0.8368000  1
   2229   2227   2226   2237     1  180.0000771  1.0460000  2
   2229   2227   2226   2237     1  0.0000000  0.7531200  3
   2229   2227   2226   2244     1  0.0000000  0.6508444  3
   2230   2229   2227   2247     1  0.0000000  0.6508444  3
   2231   2244   2226   2237     1  180.0000771  0.4184000  2
   2231   2244   2226   2237     1  0.0000000  1.6024720  3
   2231   2230   2229   2236     1  0.0000000  0.6508444  3
   2235   2231   2230   2249     1  0.0000000  0.6508444  3
   2236   2229   2230   2249     1  0.0000000  0.6508444  3
   2236   2229   2227   2247     1  0.0000000  4.9162000  2
   2236   2229   2227   2247     1  0.0000000  0.6024960  3
   2237   2226   2227   2247     1  0.0000000  0.6508444  3
   2242   2237   2226   2244     1  0.0000000  4.9162000  2
   2242   2237   2226   2244     1  0.0000000  0.6024960  3
   2244   2231   2230   2249     1  0.0000000  0.6508444  3
   2244   2226   2227   2247     1  0.0000000  4.9162000  2
   2244   2226   2227   2247     1  0.0000000  0.6024960  3
   2251   2253   2255   2259     1  0.0000000  0.6508444  3
   2253   2255   2259   2260     1  0.0000000  0.6508444  3
   2253   2255   2259   2261     1  0.0000000  0.6508444  3
   2255   2259   2260   2271     1  0.0000000  0.6508444  3
   2255   2259   2261   2263     1  0.0000000  0.6508444  3
   2259   2260   2271   2274     1  0.0000000  0.6508444  3
   2259   2261   2263   2267     1  0.0000000  0.6508444  3
   2260   2259   2261   2263     1  0.0000000  0.6508444  3
   2260   2271   2274   2275     1  180.0000771  0.0000000  2
   2260   2271   2274   2323     1  180.0000771  0.0000000  2
   2261   2259   2260   2271     1  0.0000000  0.6508444  3
   2261   2263   2267   2268     1  180.0000771  0.0000000  2
   2261   2263   2267   2299     1  180.0000771  0.0000000  2
   2263   2267   2299   2280     1  180.0000771  6.0668000  2
   2263   2267   2299   2280     1  180.0000771  1.4644000  4
   2267   2299   2280   2279     1  0.0000000  1.2552000  3
   2267   2299   2280   2281     1  0.0000000  1.2552000  3
   2268   2267   2299   2280     1  180.0000771  6.0668000  2
   2268   2267   2299   2280     1  180.0000771  1.4644000  4
   2271   2274   2323   2304     1  180.0000771  6.0668000  2
   2271   2274   2323   2304     1  180.0000771  1.4644000  4
   2274   2323   2304   2303     1  0.0000000  1.2552000  3
   2274   2323   2304   2305     1  0.0000000  1.2552000  3
   2275   2274   2323   2304     1  180.0000771  6.0668000  2
   2275   2274   2323   2304     1  180.0000771  1.4644000  4
   2276   2277   2279   2280     1  180.0000771  0.8368000  1
   2276   2277   2279   2280     1  180.0000771  1.0460000  2
   2276   2277   2279   2280     1  0.0000000  0.7531200  3
   2276   2277   2279   2286     1  0.0000000  0.6508444  3
   2276   2294   2281   2280     1  180.0000771  0.4184000  2
   2276   2294   2281   2280     1  0.0000000  1.6024720  3
   2276   2294   2281   2285     1  0.0000000  1.6038667  3
   2277   2276   2287   2292     1  0.0000000  0.6508444  3
   2277   2276   2294   2281     1  180.0000771  0.4184000  2
   2277   2276   2294   2281     1  0.0000000  1.6024720  3
   2277   2279   2280   2281     1  180.0000771  0.8368000  1
   2277   2279   2280   2281     1  180.0000771  1.0460000  2
   2277   2279   2280   2281     1  0.0000000  0.7531200  3
   2277   2279   2280   2299     1  0.0000000  0.6508444  3
   2279   2277   2276   2287     1  180.0000771  0.8368000  1
   2279   2277   2276   2287     1  180.0000771  1.0460000  2
   2279   2277   2276   2287     1  0.0000000  0.7531200  3
   2279   2277   2276   2294     1  0.0000000  0.6508444  3
   2279   2280   2281   2285     1  0.0000000  0.6508444  3
   2279   2280   2281   2294     1  0.0000000  0.6508444  3
   2280   2279   2277   2297     1  0.0000000  0.6508444  3
   2281   2280   2279   2286     1  0.0000000  0.6508444  3
   2281   2294   2276   2287     1  180.0000771  0.4184000  2
   2281   2294   2276   2287     1  0.0000000  1.6024720  3
   2285   2281   2280   2299     1  0.0000000  0.6508444  3
   2286   2279   2277   2297     1  0.0000000  4.9162000  2
   2286   2279   2277   2297     1  0.0000000  0.6024960  3
   2286   2279   2280   2299     1  0.0000000  0.6508444  3
   2287   2276   2277   2297     1  0.0000000  0.6508444  3
   2292   2287   2276   2294     1  0.0000000  4.9162000  2
   2292   2287   2276   2294     1  0.0000000  0.6024960  3
   2294   2276   2277   2297     1  0.0000000  4.9162000  2
   2294   2276   2277   2297     1  0.0000000  0.6024960  3
   2294   2281   2280   2299     1  0.0000000  0.6508444  3
   2300   2301   2303   2304     1  180.0000771  0.8368000  1
   2300   2301   2303   2304     1  180.0000771  1.0460000  2
   2300   2301   2303   2304     1  0.0000000  0.7531200  3
   2300   2301   2303   2310     1  0.0000000  0.6508444  3
   2300   2318   2305   2304     1  180.0000771  0.4184000  2
   2300   2318   2305   2304     1  0.0000000  1.6024720  3
   2300   2318   2305   2309     1  0.0000000  1.6038667  3
   2301   2300   2311   2316     1  0.0000000  0.6508444  3
   2301   2300   2318   2305     1  180.0000771  0.4184000  2
   2301   2300   2318   2305     1  0.0000000  1.6024720  3
   2301   2303   2304   2305     1  180.0000771  0.8368000  1
   2301   2303   2304   2305     1  180.0000771  1.0460000  2
   2301   2303   2304   2305     1  0.0000000  0.7531200  3
   2301   2303   2304   2323     1  0.0000000  0.6508444  3
   2303   2301   2300   2311     1  180.0000771  0.8368000  1
   2303   2301   2300   2311     1  180.0000771  1.0460000  2
   2303   2301   2300   2311     1  0.0000000  0.7531200  3
   2303   2301   2300   2318     1  0.0000000  0.6508444  3
   2303   2304   2305   2309     1  0.0000000  0.6508444  3
   2303   2304   2305   2318     1  0.0000000  0.6508444  3
   2304   2303   2301   2321     1  0.0000000  0.6508444  3
   2305   2304   2303   2310     1  0.0000000  0.6508444  3
   2305   2318   2300   2311     1  180.0000771  0.4184000  2
   2305   2318   2300   2311     1  0.0000000  1.6024720  3
   2309   2305   2304   2323     1  0.0000000  0.6508444  3
   2310   2303   2301   2321     1  0.0000000  4.9162000  2
   2310   2303   2301   2321     1  0.0000000  0.6024960  3
   2310   2303   2304   2323     1  0.0000000  0.6508444  3
   2311   2300   2301   2321     1  0.0000000  0.6508444  3
   2316   2311   2300   2318     1  0.0000000  4.9162000  2
   2316   2311   2300   2318     1  0.0000000  0.6024960  3
   2318   2300   2301   2321     1  0.0000000  4.9162000  2
   2318   2300   2301   2321     1  0.0000000  0.6024960  3
   2318   2305   2304   2323     1  0.0000000  0.6508444  3
   2325   2327   2329   2333     1  0.0000000  0.6508444  3
   2327   2329   2333   2334     1  0.0000000  0.6508444  3
   2327   2329   2333   2335     1  0.0000000  0.6508444  3
   2329   2333   2334   2345     1  0.0000000  0.6508444  3
   2329   2333   2335   2337     1  0.0000000  0.6508444  3
   2333   2334   2345   2348     1  0.0000000  0.6508444  3
   2333   2335   2337   2341     1  0.0000000  0.6508444  3
   2334   2345   2348   2349     1  180.0000771  0.0000000  2
   2334   2345   2348   2397     1  180.0000771  0.0000000  2
   2334   2333   2335   2337     1  0.0000000  0.6508444  3
   2335   2337   2341   2342     1  180.0000771  0.0000000  2
   2335   2337   2341   2373     1  180.0000771  0.0000000  2
   2335   2333   2334   2345     1  0.0000000  0.6508444  3
   2337   2341   2373   2354     1  180.0000771  6.0668000  2
   2337   2341   2373   2354     1  180.0000771  1.4644000  4
   2341   2373   2354   2355     1  0.0000000  1.2552000  3
   2341   2373   2354   2353     1  0.0000000  1.2552000  3
   2342   2341   2373   2354     1  180.0000771  6.0668000  2
   2342   2341   2373   2354     1  180.0000771  1.4644000  4
   2345   2348   2397   2378     1  180.0000771  6.0668000  2
   2345   2348   2397   2378     1  180.0000771  1.4644000  4
   2348   2397   2378   2379     1  0.0000000  1.2552000  3
   2348   2397   2378   2377     1  0.0000000  1.2552000  3
   2349   2348   2397   2378     1  180.0000771  6.0668000  2
   2349   2348   2397   2378     1  180.0000771  1.4644000  4
   2350   2351   2353   2354     1  180.0000771  0.8368000  1
   2350   2351   2353   2354     1  180.0000771  1.0460000  2
   2350   2351   2353   2354     1  0.0000000  0.7531200  3
   2350   2351   2353   2360     1  0.0000000  0.6508444  3
   2350   2368   2355   2359     1  0.0000000  1.6038667  3
   2350   2368   2355   2354     1  180.0000771  0.4184000  2
   2350   2368   2355   2354     1  0.0000000  1.6024720  3
   2351   2353   2354   2355     1  180.0000771  0.8368000  1
   2351   2353   2354   2355     1  180.0000771  1.0460000  2
   2351   2353   2354   2355     1  0.0000000  0.7531200  3
   2351   2353   2354   2373     1  0.0000000  0.6508444  3
   2351   2350   2361   2366     1  0.0000000  0.6508444  3
   2351   2350   2368   2355     1  180.0000771  0.4184000  2
   2351   2350   2368   2355     1  0.0000000  1.6024720  3
   2353   2354   2355   2359     1  0.0000000  0.6508444  3
   2353   2354   2355   2368     1  0.0000000  0.6508444  3
   2353   2351   2350   2361     1  180.0000771  0.8368000  1
   2353   2351   2350   2361     1  180.0000771  1.0460000  2
   2353   2351   2350   2361     1  0.0000000  0.7531200  3
   2353   2351   2350   2368     1  0.0000000  0.6508444  3
   2354   2353   2351   2371     1  0.0000000  0.6508444  3
   2355   2368   2350   2361     1  180.0000771  0.4184000  2
   2355   2368   2350   2361     1  0.0000000  1.6024720  3
   2355   2354   2353   2360     1  0.0000000  0.6508444  3
   2359   2355   2354   2373     1  0.0000000  0.6508444  3
   2360   2353   2354   2373     1  0.0000000  0.6508444  3
   2360   2353   2351   2371     1  0.0000000  4.9162000  2
   2360   2353   2351   2371     1  0.0000000  0.6024960  3
   2361   2350   2351   2371     1  0.0000000  0.6508444  3
   2366   2361   2350   2368     1  0.0000000  4.9162000  2
   2366   2361   2350   2368     1  0.0000000  0.6024960  3
   2368   2355   2354   2373     1  0.0000000  0.6508444  3
   2368   2350   2351   2371     1  0.0000000  4.9162000  2
   2368   2350   2351   2371     1  0.0000000  0.6024960  3
   2374   2375   2377   2378     1  180.0000771  0.8368000  1
   2374   2375   2377   2378     1  180.0000771  1.0460000  2
   2374   2375   2377   2378     1  0.0000000  0.7531200  3
   2374   2375   2377   2384     1  0.0000000  0.6508444  3
   2374   2392   2379   2383     1  0.0000000  1.6038667  3
   2374   2392   2379   2378     1  180.0000771  0.4184000  2
   2374   2392   2379   2378     1  0.0000000  1.6024720  3
   2375   2377   2378   2379     1  180.0000771  0.8368000  1
   2375   2377   2378   2379     1  180.0000771  1.0460000  2
   2375   2377   2378   2379     1  0.0000000  0.7531200  3
   2375   2377   2378   2397     1  0.0000000  0.6508444  3
   2375   2374   2385   2390     1  0.0000000  0.6508444  3
   2375   2374   2392   2379     1  180.0000771  0.4184000  2
   2375   2374   2392   2379     1  0.0000000  1.6024720  3
   2377   2378   2379   2383     1  0.0000000  0.6508444  3
   2377   2378   2379   2392     1  0.0000000  0.6508444  3
   2377   2375   2374   2385     1  180.0000771  0.8368000  1
   2377   2375   2374   2385     1  180.0000771  1.0460000  2
   2377   2375   2374   2385     1  0.0000000  0.7531200  3
   2377   2375   2374   2392     1  0.0000000  0.6508444  3
   2378   2377   2375   2395     1  0.0000000  0.6508444  3
   2379   2392   2374   2385     1  180.0000771  0.4184000  2
   2379   2392   2374   2385     1  0.0000000  1.6024720  3
   2379   2378   2377   2384     1  0.0000000  0.6508444  3
   2383   2379   2378   2397     1  0.0000000  0.6508444  3
   2384   2377   2378   2397     1  0.0000000  0.6508444  3
   2384   2377   2375   2395     1  0.0000000  4.9162000  2
   2384   2377   2375   2395     1  0.0000000  0.6024960  3
   2385   2374   2375   2395     1  0.0000000  0.6508444  3
   2390   2385   2374   2392     1  0.0000000  4.9162000  2
   2390   2385   2374   2392     1  0.0000000  0.6024960  3
   2392   2379   2378   2397     1  0.0000000  0.6508444  3
   2392   2374   2375   2395     1  0.0000000  4.9162000  2
   2392   2374   2375   2395     1  0.0000000  0.6024960  3
   2399   2401   2403   2407     1  0.0000000  0.6508444  3
   2401   2403   2407   2408     1  0.0000000  0.6508444  3
   2401   2403   2407   2409     1  0.0000000  0.6508444  3
   2403   2407   2408   2419     1  0.0000000  0.6508444  3
   2403   2407   2409   2411     1  0.0000000  0.6508444  3
   2407   2408   2419   2422     1  0.0000000  0.6508444  3
   2407   2409   2411   2415     1  0.0000000  0.6508444  3
   2408   2407   2409   2411     1  0.0000000  0.6508444  3
   2408   2419   2422   2423     1  180.0000771  0.0000000  2
   2408   2419   2422   2471     1  180.0000771  0.0000000  2
   2409   2407   2408   2419     1  0.0000000  0.6508444  3
   2409   2411   2415   2416     1  180.0000771  0.0000000  2
   2409   2411   2415   2447     1  180.0000771  0.0000000  2
   2411   2415   2447   2428     1  180.0000771  6.0668000  2
   2411   2415   2447   2428     1  180.0000771  1.4644000  4
   2415   2447   2428   2427     1  0.0000000  1.2552000  3
   2415   2447   2428   2429     1  0.0000000  1.2552000  3
   2416   2415   2447   2428     1  180.0000771  6.0668000  2
   2416   2415   2447   2428     1  180.0000771  1.4644000  4
   2419   2422   2471   2452     1  180.0000771  6.0668000  2
   2419   2422   2471   2452     1  180.0000771  1.4644000  4
   2422   2471   2452   2451     1  0.0000000  1.2552000  3
   2422   2471   2452   2453     1  0.0000000  1.2552000  3
   2423   2422   2471   2452     1  180.0000771  6.0668000  2
   2423   2422   2471   2452     1  180.0000771  1.4644000  4
   2424   2425   2427   2428     1  180.0000771  0.8368000  1
   2424   2425   2427   2428     1  180.0000771  1.0460000  2
   2424   2425   2427   2428     1  0.0000000  0.7531200  3
   2424   2425   2427   2434     1  0.0000000  0.6508444  3
   2424   2442   2429   2428     1  180.0000771  0.4184000  2
   2424   2442   2429   2428     1  0.0000000  1.6024720  3
   2424   2442   2429   2433     1  0.0000000  1.6038667  3
   2425   2424   2435   2440     1  0.0000000  0.6508444  3
   2425   2424   2442   2429     1  180.0000771  0.4184000  2
   2425   2424   2442   2429     1  0.0000000  1.6024720  3
   2425   2427   2428   2429     1  180.0000771  0.8368000  1
   2425   2427   2428   2429     1  180.0000771  1.0460000  2
   2425   2427   2428   2429     1  0.0000000  0.7531200  3
   2425   2427   2428   2447     1  0.0000000  0.6508444  3
   2427   2425   2424   2435     1  180.0000771  0.8368000  1
   2427   2425   2424   2435     1  180.0000771  1.0460000  2
   2427   2425   2424   2435     1  0.0000000  0.7531200  3
   2427   2425   2424   2442     1  0.0000000  0.6508444  3
   2427   2428   2429   2433     1  0.0000000  0.6508444  3
   2427   2428   2429   2442     1  0.0000000  0.6508444  3
   2428   2427   2425   2445     1  0.0000000  0.6508444  3
   2429   2428   2427   2434     1  0.0000000  0.6508444  3
   2429   2442   2424   2435     1  180.0000771  0.4184000  2
   2429   2442   2424   2435     1  0.0000000  1.6024720  3
   2433   2429   2428   2447     1  0.0000000  0.6508444  3
   2434   2427   2425   2445     1  0.0000000  4.9162000  2
   2434   2427   2425   2445     1  0.0000000  0.6024960  3
   2434   2427   2428   2447     1  0.0000000  0.6508444  3
   2435   2424   2425   2445     1  0.0000000  0.6508444  3
   2440   2435   2424   2442     1  0.0000000  4.9162000  2
   2440   2435   2424   2442     1  0.0000000  0.6024960  3
   2442   2424   2425   2445     1  0.0000000  4.9162000  2
   2442   2424   2425   2445     1  0.0000000  0.6024960  3
   2442   2429   2428   2447     1  0.0000000  0.6508444  3
   2448   2449   2451   2452     1  180.0000771  0.8368000  1
   2448   2449   2451   2452     1  180.0000771  1.0460000  2
   2448   2449   2451   2452     1  0.0000000  0.7531200  3
   2448   2449   2451   2458     1  0.0000000  0.6508444  3
   2448   2466   2453   2452     1  180.0000771  0.4184000  2
   2448   2466   2453   2452     1  0.0000000  1.6024720  3
   2448   2466   2453   2457     1  0.0000000  1.6038667  3
   2449   2448   2459   2464     1  0.0000000  0.6508444  3
   2449   2448   2466   2453     1  180.0000771  0.4184000  2
   2449   2448   2466   2453     1  0.0000000  1.6024720  3
   2449   2451   2452   2453     1  180.0000771  0.8368000  1
   2449   2451   2452   2453     1  180.0000771  1.0460000  2
   2449   2451   2452   2453     1  0.0000000  0.7531200  3
   2449   2451   2452   2471     1  0.0000000  0.6508444  3
   2451   2449   2448   2459     1  180.0000771  0.8368000  1
   2451   2449   2448   2459     1  180.0000771  1.0460000  2
   2451   2449   2448   2459     1  0.0000000  0.7531200  3
   2451   2449   2448   2466     1  0.0000000  0.6508444  3
   2451   2452   2453   2457     1  0.0000000  0.6508444  3
   2451   2452   2453   2466     1  0.0000000  0.6508444  3
   2452   2451   2449   2469     1  0.0000000  0.6508444  3
   2453   2452   2451   2458     1  0.0000000  0.6508444  3
   2453   2466   2448   2459     1  180.0000771  0.4184000  2
   2453   2466   2448   2459     1  0.0000000  1.6024720  3
   2457   2453   2452   2471     1  0.0000000  0.6508444  3
   2458   2451   2449   2469     1  0.0000000  4.9162000  2
   2458   2451   2449   2469     1  0.0000000  0.6024960  3
   2458   2451   2452   2471     1  0.0000000  0.6508444  3
   2459   2448   2449   2469     1  0.0000000  0.6508444  3
   2464   2459   2448   2466     1  0.0000000  4.9162000  2
   2464   2459   2448   2466     1  0.0000000  0.6024960  3
   2466   2448   2449   2469     1  0.0000000  4.9162000  2
   2466   2448   2449   2469     1  0.0000000  0.6024960  3
   2466   2453   2452   2471     1  0.0000000  0.6508444  3
   2473   2475   2477   2481     1  0.0000000  0.6508444  3
   2475   2477   2481   2482     1  0.0000000  0.6508444  3
   2475   2477   2481   2483     1  0.0000000  0.6508444  3
   2477   2481   2482   2493     1  0.0000000  0.6508444  3
   2477   2481   2483   2485     1  0.0000000  0.6508444  3
   2481   2482   2493   2496     1  0.0000000  0.6508444  3
   2481   2483   2485   2489     1  0.0000000  0.6508444  3
   2482   2493   2496   2497     1  180.0000771  0.0000000  2
   2482   2493   2496   2545     1  180.0000771  0.0000000  2
   2482   2481   2483   2485     1  0.0000000  0.6508444  3
   2483   2485   2489   2490     1  180.0000771  0.0000000  2
   2483   2485   2489   2521     1  180.0000771  0.0000000  2
   2483   2481   2482   2493     1  0.0000000  0.6508444  3
   2485   2489   2521   2502     1  180.0000771  6.0668000  2
   2485   2489   2521   2502     1  180.0000771  1.4644000  4
   2489   2521   2502   2503     1  0.0000000  1.2552000  3
   2489   2521   2502   2501     1  0.0000000  1.2552000  3
   2490   2489   2521   2502     1  180.0000771  6.0668000  2
   2490   2489   2521   2502     1  180.0000771  1.4644000  4
   2493   2496   2545   2526     1  180.0000771  6.0668000  2
   2493   2496   2545   2526     1  180.0000771  1.4644000  4
   2496   2545   2526   2527     1  0.0000000  1.2552000  3
   2496   2545   2526   2525     1  0.0000000  1.2552000  3
   2497   2496   2545   2526     1  180.0000771  6.0668000  2
   2497   2496   2545   2526     1  180.0000771  1.4644000  4
   2498   2499   2501   2502     1  180.0000771  0.8368000  1
   2498   2499   2501   2502     1  180.0000771  1.0460000  2
   2498   2499   2501   2502     1  0.0000000  0.7531200  3
   2498   2499   2501   2508     1  0.0000000  0.6508444  3
   2498   2516   2503   2507     1  0.0000000  1.6038667  3
   2498   2516   2503   2502     1  180.0000771  0.4184000  2
   2498   2516   2503   2502     1  0.0000000  1.6024720  3
   2499   2501   2502   2503     1  180.0000771  0.8368000  1
   2499   2501   2502   2503     1  180.0000771  1.0460000  2
   2499   2501   2502   2503     1  0.0000000  0.7531200  3
   2499   2501   2502   2521     1  0.0000000  0.6508444  3
   2499   2498   2509   2514     1  0.0000000  0.6508444  3
   2499   2498   2516   2503     1  180.0000771  0.4184000  2
   2499   2498   2516   2503     1  0.0000000  1.6024720  3
   2501   2502   2503   2507     1  0.0000000  0.6508444  3
   2501   2502   2503   2516     1  0.0000000  0.6508444  3
   2501   2499   2498   2509     1  180.0000771  0.8368000  1
   2501   2499   2498   2509     1  180.0000771  1.0460000  2
   2501   2499   2498   2509     1  0.0000000  0.7531200  3
   2501   2499   2498   2516     1  0.0000000  0.6508444  3
   2502   2501   2499   2519     1  0.0000000  0.6508444  3
   2503   2516   2498   2509     1  180.0000771  0.4184000  2
   2503   2516   2498   2509     1  0.0000000  1.6024720  3
   2503   2502   2501   2508     1  0.0000000  0.6508444  3
   2507   2503   2502   2521     1  0.0000000  0.6508444  3
   2508   2501   2502   2521     1  0.0000000  0.6508444  3
   2508   2501   2499   2519     1  0.0000000  4.9162000  2
   2508   2501   2499   2519     1  0.0000000  0.6024960  3
   2509   2498   2499   2519     1  0.0000000  0.6508444  3
   2514   2509   2498   2516     1  0.0000000  4.9162000  2
   2514   2509   2498   2516     1  0.0000000  0.6024960  3
   2516   2503   2502   2521     1  0.0000000  0.6508444  3
   2516   2498   2499   2519     1  0.0000000  4.9162000  2
   2516   2498   2499   2519     1  0.0000000  0.6024960  3
   2522   2523   2525   2526     1  180.0000771  0.8368000  1
   2522   2523   2525   2526     1  180.0000771  1.0460000  2
   2522   2523   2525   2526     1  0.0000000  0.7531200  3
   2522   2523   2525   2532     1  0.0000000  0.6508444  3
   2522   2540   2527   2531     1  0.0000000  1.6038667  3
   2522   2540   2527   2526     1  180.0000771  0.4184000  2
   2522   2540   2527   2526     1  0.0000000  1.6024720  3
   2523   2525   2526   2527     1  180.0000771  0.8368000  1
   2523   2525   2526   2527     1  180.0000771  1.0460000  2
   2523   2525   2526   2527     1  0.0000000  0.7531200  3
   2523   2525   2526   2545     1  0.0000000  0.6508444  3
   2523   2522   2533   2538     1  0.0000000  0.6508444  3
   2523   2522   2540   2527     1  180.0000771  0.4184000  2
   2523   2522   2540   2527     1  0.0000000  1.6024720  3
   2525   2526   2527   2531     1  0.0000000  0.6508444  3
   2525   2526   2527   2540     1  0.0000000  0.6508444  3
   2525   2523   2522   2533     1  180.0000771  0.8368000  1
   2525   2523   2522   2533     1  180.0000771  1.0460000  2
   2525   2523   2522   2533     1  0.0000000  0.7531200  3
   2525   2523   2522   2540     1  0.0000000  0.6508444  3
   2526   2525   2523   2543     1  0.0000000  0.6508444  3
   2527   2540   2522   2533     1  180.0000771  0.4184000  2
   2527   2540   2522   2533     1  0.0000000  1.6024720  3
   2527   2526   2525   2532     1  0.0000000  0.6508444  3
   2531   2527   2526   2545     1  0.0000000  0.6508444  3
   2532   2525   2526   2545     1  0.0000000  0.6508444  3
   2532   2525   2523   2543     1  0.0000000  4.9162000  2
   2532   2525   2523   2543     1  0.0000000  0.6024960  3
   2533   2522   2523   2543     1  0.0000000  0.6508444  3
   2538   2533   2522   2540     1  0.0000000  4.9162000  2
   2538   2533   2522   2540     1  0.0000000  0.6024960  3
   2540   2527   2526   2545     1  0.0000000  0.6508444  3
   2540   2522   2523   2543     1  0.0000000  4.9162000  2
   2540   2522   2523   2543     1  0.0000000  0.6024960  3
   2547   2549   2551   2555     1  0.0000000  0.6508444  3
   2549   2551   2555   2556     1  0.0000000  0.6508444  3
   2549   2551   2555   2557     1  0.0000000  0.6508444  3
   2551   2555   2556   2567     1  0.0000000  0.6508444  3
   2551   2555   2557   2559     1  0.0000000  0.6508444  3
   2555   2556   2567   2570     1  0.0000000  0.6508444  3
   2555   2557   2559   2563     1  0.0000000  0.6508444  3
   2556   2555   2557   2559     1  0.0000000  0.6508444  3
   2556   2567   2570   2571     1  180.0000771  0.0000000  2
   2556   2567   2570   2619     1  180.0000771  0.0000000  2
   2557   2555   2556   2567     1  0.0000000  0.6508444  3
   2557   2559   2563   2564     1  180.0000771  0.0000000  2
   2557   2559   2563   2595     1  180.0000771  0.0000000  2
   2559   2563   2595   2576     1  180.0000771  6.0668000  2
   2559   2563   2595   2576     1  180.0000771  1.4644000  4
   2563   2595   2576   2575     1  0.0000000  1.2552000  3
   2563   2595   2576   2577     1  0.0000000  1.2552000  3
   2564   2563   2595   2576     1  180.0000771  6.0668000  2
   2564   2563   2595   2576     1  180.0000771  1.4644000  4
   2567   2570   2619   2600     1  180.0000771  6.0668000  2
   2567   2570   2619   2600     1  180.0000771  1.4644000  4
   2570   2619   2600   2599     1  0.0000000  1.2552000  3
   2570   2619   2600   2601     1  0.0000000  1.2552000  3
   2571   2570   2619   2600     1  180.0000771  6.0668000  2
   2571   2570   2619   2600     1  180.0000771  1.4644000  4
   2572   2573   2575   2576     1  180.0000771  0.8368000  1
   2572   2573   2575   2576     1  180.0000771  1.0460000  2
   2572   2573   2575   2576     1  0.0000000  0.7531200  3
   2572   2573   2575   2582     1  0.0000000  0.6508444  3
   2572   2590   2577   2576     1  180.0000771  0.4184000  2
   2572   2590   2577   2576     1  0.0000000  1.6024720  3
   2572   2590   2577   2581     1  0.0000000  1.6038667  3
   2573   2572   2583   2588     1  0.0000000  0.6508444  3
   2573   2572   2590   2577     1  180.0000771  0.4184000  2
   2573   2572   2590   2577     1  0.0000000  1.6024720  3
   2573   2575   2576   2577     1  180.0000771  0.8368000  1
   2573   2575   2576   2577     1  180.0000771  1.0460000  2
   2573   2575   2576   2577     1  0.0000000  0.7531200  3
   2573   2575   2576   2595     1  0.0000000  0.6508444  3
   2575   2573   2572   2583     1  180.0000771  0.8368000  1
   2575   2573   2572   2583     1  180.0000771  1.0460000  2
   2575   2573   2572   2583     1  0.0000000  0.7531200  3
   2575   2573   2572   2590     1  0.0000000  0.6508444  3
   2575   2576   2577   2581     1  0.0000000  0.6508444  3
   2575   2576   2577   2590     1  0.0000000  0.6508444  3
   2576   2575   2573   2593     1  0.0000000  0.6508444  3
   2577   2576   2575   2582     1  0.0000000  0.6508444  3
   2577   2590   2572   2583     1  180.0000771  0.4184000  2
   2577   2590   2572   2583     1  0.0000000  1.6024720  3
   2581   2577   2576   2595     1  0.0000000  0.6508444  3
   2582   2575   2573   2593     1  0.0000000  4.9162000  2
   2582   2575   2573   2593     1  0.0000000  0.6024960  3
   2582   2575   2576   2595     1  0.0000000  0.6508444  3
   2583   2572   2573   2593     1  0.0000000  0.6508444  3
   2588   2583   2572   2590     1  0.0000000  4.9162000  2
   2588   2583   2572   2590     1  0.0000000  0.6024960  3
   2590   2572   2573   2593     1  0.0000000  4.9162000  2
   2590   2572   2573   2593     1  0.0000000  0.6024960  3
   2590   2577   2576   2595     1  0.0000000  0.6508444  3
   2596   2597   2599   2600     1  180.0000771  0.8368000  1
   2596   2597   2599   2600     1  180.0000771  1.0460000  2
   2596   2597   2599   2600     1  0.0000000  0.7531200  3
   2596   2597   2599   2606     1  0.0000000  0.6508444  3
   2596   2614   2601   2600     1  180.0000771  0.4184000  2
   2596   2614   2601   2600     1  0.0000000  1.6024720  3
   2596   2614   2601   2605     1  0.0000000  1.6038667  3
   2597   2596   2607   2612     1  0.0000000  0.6508444  3
   2597   2596   2614   2601     1  180.0000771  0.4184000  2
   2597   2596   2614   2601     1  0.0000000  1.6024720  3
   2597   2599   2600   2601     1  180.0000771  0.8368000  1
   2597   2599   2600   2601     1  180.0000771  1.0460000  2
   2597   2599   2600   2601     1  0.0000000  0.7531200  3
   2597   2599   2600   2619     1  0.0000000  0.6508444  3
   2599   2597   2596   2607     1  180.0000771  0.8368000  1
   2599   2597   2596   2607     1  180.0000771  1.0460000  2
   2599   2597   2596   2607     1  0.0000000  0.7531200  3
   2599   2597   2596   2614     1  0.0000000  0.6508444  3
   2599   2600   2601   2605     1  0.0000000  0.6508444  3
   2599   2600   2601   2614     1  0.0000000  0.6508444  3
   2600   2599   2597   2617     1  0.0000000  0.6508444  3
   2601   2600   2599   2606     1  0.0000000  0.6508444  3
   2601   2614   2596   2607     1  180.0000771  0.4184000  2
   2601   2614   2596   2607     1  0.0000000  1.6024720  3
   2605   2601   2600   2619     1  0.0000000  0.6508444  3
   2606   2599   2597   2617     1  0.0000000  4.9162000  2
   2606   2599   2597   2617     1  0.0000000  0.6024960  3
   2606   2599   2600   2619     1  0.0000000  0.6508444  3
   2607   2596   2597   2617     1  0.0000000  0.6508444  3
   2612   2607   2596   2614     1  0.0000000  4.9162000  2
   2612   2607   2596   2614     1  0.0000000  0.6024960  3
   2614   2596   2597   2617     1  0.0000000  4.9162000  2
   2614   2596   2597   2617     1  0.0000000  0.6024960  3
   2614   2601   2600   2619     1  0.0000000  0.6508444  3
   2621   2623   2625   2629     1  0.0000000  0.6508444  3
   2623   2625   2629   2630     1  0.0000000  0.6508444  3
   2623   2625   2629   2631     1  0.0000000  0.6508444  3
   2625   2629   2630   2641     1  0.0000000  0.6508444  3
   2625   2629   2631   2633     1  0.0000000  0.6508444  3
   2629   2630   2641   2644     1  0.0000000  0.6508444  3
   2629   2631   2633   2637     1  0.0000000  0.6508444  3
   2630   2641   2644   2645     1  180.0000771  0.0000000  2
   2630   2641   2644   2693     1  180.0000771  0.0000000  2
   2630   2629   2631   2633     1  0.0000000  0.6508444  3
   2631   2633   2637   2638     1  180.0000771  0.0000000  2
   2631   2633   2637   2669     1  180.0000771  0.0000000  2
   2631   2629   2630   2641     1  0.0000000  0.6508444  3
   2633   2637   2669   2650     1  180.0000771  6.0668000  2
   2633   2637   2669   2650     1  180.0000771  1.4644000  4
   2637   2669   2650   2651     1  0.0000000  1.2552000  3
   2637   2669   2650   2649     1  0.0000000  1.2552000  3
   2638   2637   2669   2650     1  180.0000771  6.0668000  2
   2638   2637   2669   2650     1  180.0000771  1.4644000  4
   2641   2644   2693   2674     1  180.0000771  6.0668000  2
   2641   2644   2693   2674     1  180.0000771  1.4644000  4
   2644   2693   2674   2675     1  0.0000000  1.2552000  3
   2644   2693   2674   2673     1  0.0000000  1.2552000  3
   2645   2644   2693   2674     1  180.0000771  6.0668000  2
   2645   2644   2693   2674     1  180.0000771  1.4644000  4
   2646   2647   2649   2650     1  180.0000771  0.8368000  1
   2646   2647   2649   2650     1  180.0000771  1.0460000  2
   2646   2647   2649   2650     1  0.0000000  0.7531200  3
   2646   2647   2649   2656     1  0.0000000  0.6508444  3
   2646   2664   2651   2655     1  0.0000000  1.6038667  3
   2646   2664   2651   2650     1  180.0000771  0.4184000  2
   2646   2664   2651   2650     1  0.0000000  1.6024720  3
   2647   2649   2650   2651     1  180.0000771  0.8368000  1
   2647   2649   2650   2651     1  180.0000771  1.0460000  2
   2647   2649   2650   2651     1  0.0000000  0.7531200  3
   2647   2649   2650   2669     1  0.0000000  0.6508444  3
   2647   2646   2657   2662     1  0.0000000  0.6508444  3
   2647   2646   2664   2651     1  180.0000771  0.4184000  2
   2647   2646   2664   2651     1  0.0000000  1.6024720  3
   2649   2650   2651   2655     1  0.0000000  0.6508444  3
   2649   2650   2651   2664     1  0.0000000  0.6508444  3
   2649   2647   2646   2657     1  180.0000771  0.8368000  1
   2649   2647   2646   2657     1  180.0000771  1.0460000  2
   2649   2647   2646   2657     1  0.0000000  0.7531200  3
   2649   2647   2646   2664     1  0.0000000  0.6508444  3
   2650   2649   2647   2667     1  0.0000000  0.6508444  3
   2651   2664   2646   2657     1  180.0000771  0.4184000  2
   2651   2664   2646   2657     1  0.0000000  1.6024720  3
   2651   2650   2649   2656     1  0.0000000  0.6508444  3
   2655   2651   2650   2669     1  0.0000000  0.6508444  3
   2656   2649   2650   2669     1  0.0000000  0.6508444  3
   2656   2649   2647   2667     1  0.0000000  4.9162000  2
   2656   2649   2647   2667     1  0.0000000  0.6024960  3
   2657   2646   2647   2667     1  0.0000000  0.6508444  3
   2662   2657   2646   2664     1  0.0000000  4.9162000  2
   2662   2657   2646   2664     1  0.0000000  0.6024960  3
   2664   2651   2650   2669     1  0.0000000  0.6508444  3
   2664   2646   2647   2667     1  0.0000000  4.9162000  2
   2664   2646   2647   2667     1  0.0000000  0.6024960  3
   2670   2671   2673   2674     1  180.0000771  0.8368000  1
   2670   2671   2673   2674     1  180.0000771  1.0460000  2
   2670   2671   2673   2674     1  0.0000000  0.7531200  3
   2670   2671   2673   2680     1  0.0000000  0.6508444  3
   2670   2688   2675   2679     1  0.0000000  1.6038667  3
   2670   2688   2675   2674     1  180.0000771  0.4184000  2
   2670   2688   2675   2674     1  0.0000000  1.6024720  3
   2671   2673   2674   2675     1  180.0000771  0.8368000  1
   2671   2673   2674   2675     1  180.0000771  1.0460000  2
   2671   2673   2674   2675     1  0.0000000  0.7531200  3
   2671   2673   2674   2693     1  0.0000000  0.6508444  3
   2671   2670   2681   2686     1  0.0000000  0.6508444  3
   2671   2670   2688   2675     1  180.0000771  0.4184000  2
   2671   2670   2688   2675     1  0.0000000  1.6024720  3
   2673   2674   2675   2679     1  0.0000000  0.6508444  3
   2673   2674   2675   2688     1  0.0000000  0.6508444  3
   2673   2671   2670   2681     1  180.0000771  0.8368000  1
   2673   2671   2670   2681     1  180.0000771  1.0460000  2
   2673   2671   2670   2681     1  0.0000000  0.7531200  3
   2673   2671   2670   2688     1  0.0000000  0.6508444  3
   2674   2673   2671   2691     1  0.0000000  0.6508444  3
   2675   2688   2670   2681     1  180.0000771  0.4184000  2
   2675   2688   2670   2681     1  0.0000000  1.6024720  3
   2675   2674   2673   2680     1  0.0000000  0.6508444  3
   2679   2675   2674   2693     1  0.0000000  0.6508444  3
   2680   2673   2674   2693     1  0.0000000  0.6508444  3
   2680   2673   2671   2691     1  0.0000000  4.9162000  2
   2680   2673   2671   2691     1  0.0000000  0.6024960  3
   2681   2670   2671   2691     1  0.0000000  0.6508444  3
   2686   2681   2670   2688     1  0.0000000  4.9162000  2
   2686   2681   2670   2688     1  0.0000000  0.6024960  3
   2688   2675   2674   2693     1  0.0000000  0.6508444  3
   2688   2670   2671   2691     1  0.0000000  4.9162000  2
   2688   2670   2671   2691     1  0.0000000  0.6024960  3
   2695   2697   2699   2703     1  0.0000000  0.6508444  3
   2697   2699   2703   2704     1  0.0000000  0.6508444  3
   2697   2699   2703   2705     1  0.0000000  0.6508444  3
   2699   2703   2704   2715     1  0.0000000  0.6508444  3
   2699   2703   2705   2707     1  0.0000000  0.6508444  3
   2703   2704   2715   2718     1  0.0000000  0.6508444  3
   2703   2705   2707   2711     1  0.0000000  0.6508444  3
   2704   2703   2705   2707     1  0.0000000  0.6508444  3
   2704   2715   2718   2719     1  180.0000771  0.0000000  2
   2704   2715   2718   2767     1  180.0000771  0.0000000  2
   2705   2703   2704   2715     1  0.0000000  0.6508444  3
   2705   2707   2711   2712     1  180.0000771  0.0000000  2
   2705   2707   2711   2743     1  180.0000771  0.0000000  2
   2707   2711   2743   2724     1  180.0000771  6.0668000  2
   2707   2711   2743   2724     1  180.0000771  1.4644000  4
   2711   2743   2724   2723     1  0.0000000  1.2552000  3
   2711   2743   2724   2725     1  0.0000000  1.2552000  3
   2712   2711   2743   2724     1  180.0000771  6.0668000  2
   2712   2711   2743   2724     1  180.0000771  1.4644000  4
   2715   2718   2767   2748     1  180.0000771  6.0668000  2
   2715   2718   2767   2748     1  180.0000771  1.4644000  4
   2718   2767   2748   2747     1  0.0000000  1.2552000  3
   2718   2767   2748   2749     1  0.0000000  1.2552000  3
   2719   2718   2767   2748     1  180.0000771  6.0668000  2
   2719   2718   2767   2748     1  180.0000771  1.4644000  4
   2720   2721   2723   2724     1  180.0000771  0.8368000  1
   2720   2721   2723   2724     1  180.0000771  1.0460000  2
   2720   2721   2723   2724     1  0.0000000  0.7531200  3
   2720   2721   2723   2730     1  0.0000000  0.6508444  3
   2720   2738   2725   2724     1  180.0000771  0.4184000  2
   2720   2738   2725   2724     1  0.0000000  1.6024720  3
   2720   2738   2725   2729     1  0.0000000  1.6038667  3
   2721   2720   2731   2736     1  0.0000000  0.6508444  3
   2721   2720   2738   2725     1  180.0000771  0.4184000  2
   2721   2720   2738   2725     1  0.0000000  1.6024720  3
   2721   2723   2724   2725     1  180.0000771  0.8368000  1
   2721   2723   2724   2725     1  180.0000771  1.0460000  2
   2721   2723   2724   2725     1  0.0000000  0.7531200  3
   2721   2723   2724   2743     1  0.0000000  0.6508444  3
   2723   2721   2720   2731     1  180.0000771  0.8368000  1
   2723   2721   2720   2731     1  180.0000771  1.0460000  2
   2723   2721   2720   2731     1  0.0000000  0.7531200  3
   2723   2721   2720   2738     1  0.0000000  0.6508444  3
   2723   2724   2725   2729     1  0.0000000  0.6508444  3
   2723   2724   2725   2738     1  0.0000000  0.6508444  3
   2724   2723   2721   2741     1  0.0000000  0.6508444  3
   2725   2724   2723   2730     1  0.0000000  0.6508444  3
   2725   2738   2720   2731     1  180.0000771  0.4184000  2
   2725   2738   2720   2731     1  0.0000000  1.6024720  3
   2729   2725   2724   2743     1  0.0000000  0.6508444  3
   2730   2723   2721   2741     1  0.0000000  4.9162000  2
   2730   2723   2721   2741     1  0.0000000  0.6024960  3
   2730   2723   2724   2743     1  0.0000000  0.6508444  3
   2731   2720   2721   2741     1  0.0000000  0.6508444  3
   2736   2731   2720   2738     1  0.0000000  4.9162000  2
   2736   2731   2720   2738     1  0.0000000  0.6024960  3
   2738   2720   2721   2741     1  0.0000000  4.9162000  2
   2738   2720   2721   2741     1  0.0000000  0.6024960  3
   2738   2725   2724   2743     1  0.0000000  0.6508444  3
   2744   2745   2747   2748     1  180.0000771  0.8368000  1
   2744   2745   2747   2748     1  180.0000771  1.0460000  2
   2744   2745   2747   2748     1  0.0000000  0.7531200  3
   2744   2745   2747   2754     1  0.0000000  0.6508444  3
   2744   2762   2749   2748     1  180.0000771  0.4184000  2
   2744   2762   2749   2748     1  0.0000000  1.6024720  3
   2744   2762   2749   2753     1  0.0000000  1.6038667  3
   2745   2744   2755   2760     1  0.0000000  0.6508444  3
   2745   2744   2762   2749     1  180.0000771  0.4184000  2
   2745   2744   2762   2749     1  0.0000000  1.6024720  3
   2745   2747   2748   2749     1  180.0000771  0.8368000  1
   2745   2747   2748   2749     1  180.0000771  1.0460000  2
   2745   2747   2748   2749     1  0.0000000  0.7531200  3
   2745   2747   2748   2767     1  0.0000000  0.6508444  3
   2747   2745   2744   2755     1  180.0000771  0.8368000  1
   2747   2745   2744   2755     1  180.0000771  1.0460000  2
   2747   2745   2744   2755     1  0.0000000  0.7531200  3
   2747   2745   2744   2762     1  0.0000000  0.6508444  3
   2747   2748   2749   2753     1  0.0000000  0.6508444  3
   2747   2748   2749   2762     1  0.0000000  0.6508444  3
   2748   2747   2745   2765     1  0.0000000  0.6508444  3
   2749   2748   2747   2754     1  0.0000000  0.6508444  3
   2749   2762   2744   2755     1  180.0000771  0.4184000  2
   2749   2762   2744   2755     1  0.0000000  1.6024720  3
   2753   2749   2748   2767     1  0.0000000  0.6508444  3
   2754   2747   2745   2765     1  0.0000000  4.9162000  2
   2754   2747   2745   2765     1  0.0000000  0.6024960  3
   2754   2747   2748   2767     1  0.0000000  0.6508444  3
   2755   2744   2745   2765     1  0.0000000  0.6508444  3
   2760   2755   2744   2762     1  0.0000000  4.9162000  2
   2760   2755   2744   2762     1  0.0000000  0.6024960  3
   2762   2744   2745   2765     1  0.0000000  4.9162000  2
   2762   2744   2745   2765     1  0.0000000  0.6024960  3
   2762   2749   2748   2767     1  0.0000000  0.6508444  3
   2769   2771   2773   2777     1  0.0000000  0.6508444  3
   2771   2773   2777   2778     1  0.0000000  0.6508444  3
   2771   2773   2777   2779     1  0.0000000  0.6508444  3
   2773   2777   2778   2789     1  0.0000000  0.6508444  3
   2773   2777   2779   2781     1  0.0000000  0.6508444  3
   2777   2778   2789   2792     1  0.0000000  0.6508444  3
   2777   2779   2781   2785     1  0.0000000  0.6508444  3
   2778   2789   2792   2793     1  180.0000771  0.0000000  2
   2778   2789   2792   2841     1  180.0000771  0.0000000  2
   2778   2777   2779   2781     1  0.0000000  0.6508444  3
   2779   2781   2785   2786     1  180.0000771  0.0000000  2
   2779   2781   2785   2817     1  180.0000771  0.0000000  2
   2779   2777   2778   2789     1  0.0000000  0.6508444  3
   2781   2785   2817   2798     1  180.0000771  6.0668000  2
   2781   2785   2817   2798     1  180.0000771  1.4644000  4
   2785   2817   2798   2799     1  0.0000000  1.2552000  3
   2785   2817   2798   2797     1  0.0000000  1.2552000  3
   2786   2785   2817   2798     1  180.0000771  6.0668000  2
   2786   2785   2817   2798     1  180.0000771  1.4644000  4
   2789   2792   2841   2822     1  180.0000771  6.0668000  2
   2789   2792   2841   2822     1  180.0000771  1.4644000  4
   2792   2841   2822   2823     1  0.0000000  1.2552000  3
   2792   2841   2822   2821     1  0.0000000  1.2552000  3
   2793   2792   2841   2822     1  180.0000771  6.0668000  2
   2793   2792   2841   2822     1  180.0000771  1.4644000  4
   2794   2795   2797   2798     1  180.0000771  0.8368000  1
   2794   2795   2797   2798     1  180.0000771  1.0460000  2
   2794   2795   2797   2798     1  0.0000000  0.7531200  3
   2794   2795   2797   2804     1  0.0000000  0.6508444  3
   2794   2812   2799   2803     1  0.0000000  1.6038667  3
   2794   2812   2799   2798     1  180.0000771  0.4184000  2
   2794   2812   2799   2798     1  0.0000000  1.6024720  3
   2795   2797   2798   2799     1  180.0000771  0.8368000  1
   2795   2797   2798   2799     1  180.0000771  1.0460000  2
   2795   2797   2798   2799     1  0.0000000  0.7531200  3
   2795   2797   2798   2817     1  0.0000000  0.6508444  3
   2795   2794   2805   2810     1  0.0000000  0.6508444  3
   2795   2794   2812   2799     1  180.0000771  0.4184000  2
   2795   2794   2812   2799     1  0.0000000  1.6024720  3
   2797   2798   2799   2803     1  0.0000000  0.6508444  3
   2797   2798   2799   2812     1  0.0000000  0.6508444  3
   2797   2795   2794   2805     1  180.0000771  0.8368000  1
   2797   2795   2794   2805     1  180.0000771  1.0460000  2
   2797   2795   2794   2805     1  0.0000000  0.7531200  3
   2797   2795   2794   2812     1  0.0000000  0.6508444  3
   2798   2797   2795   2815     1  0.0000000  0.6508444  3
   2799   2812   2794   2805     1  180.0000771  0.4184000  2
   2799   2812   2794   2805     1  0.0000000  1.6024720  3
   2799   2798   2797   2804     1  0.0000000  0.6508444  3
   2803   2799   2798   2817     1  0.0000000  0.6508444  3
   2804   2797   2798   2817     1  0.0000000  0.6508444  3
   2804   2797   2795   2815     1  0.0000000  4.9162000  2
   2804   2797   2795   2815     1  0.0000000  0.6024960  3
   2805   2794   2795   2815     1  0.0000000  0.6508444  3
   2810   2805   2794   2812     1  0.0000000  4.9162000  2
   2810   2805   2794   2812     1  0.0000000  0.6024960  3
   2812   2799   2798   2817     1  0.0000000  0.6508444  3
   2812   2794   2795   2815     1  0.0000000  4.9162000  2
   2812   2794   2795   2815     1  0.0000000  0.6024960  3
   2818   2819   2821   2822     1  180.0000771  0.8368000  1
   2818   2819   2821   2822     1  180.0000771  1.0460000  2
   2818   2819   2821   2822     1  0.0000000  0.7531200  3
   2818   2819   2821   2828     1  0.0000000  0.6508444  3
   2818   2836   2823   2827     1  0.0000000  1.6038667  3
   2818   2836   2823   2822     1  180.0000771  0.4184000  2
   2818   2836   2823   2822     1  0.0000000  1.6024720  3
   2819   2821   2822   2823     1  180.0000771  0.8368000  1
   2819   2821   2822   2823     1  180.0000771  1.0460000  2
   2819   2821   2822   2823     1  0.0000000  0.7531200  3
   2819   2821   2822   2841     1  0.0000000  0.6508444  3
   2819   2818   2829   2834     1  0.0000000  0.6508444  3
   2819   2818   2836   2823     1  180.0000771  0.4184000  2
   2819   2818   2836   2823     1  0.0000000  1.6024720  3
   2821   2822   2823   2827     1  0.0000000  0.6508444  3
   2821   2822   2823   2836     1  0.0000000  0.6508444  3
   2821   2819   2818   2829     1  180.0000771  0.8368000  1
   2821   2819   2818   2829     1  180.0000771  1.0460000  2
   2821   2819   2818   2829     1  0.0000000  0.7531200  3
   2821   2819   2818   2836     1  0.0000000  0.6508444  3
   2822   2821   2819   2839     1  0.0000000  0.6508444  3
   2823   2836   2818   2829     1  180.0000771  0.4184000  2
   2823   2836   2818   2829     1  0.0000000  1.6024720  3
   2823   2822   2821   2828     1  0.0000000  0.6508444  3
   2827   2823   2822   2841     1  0.0000000  0.6508444  3
   2828   2821   2822   2841     1  0.0000000  0.6508444  3
   2828   2821   2819   2839     1  0.0000000  4.9162000  2
   2828   2821   2819   2839     1  0.0000000  0.6024960  3
   2829   2818   2819   2839     1  0.0000000  0.6508444  3
   2834   2829   2818   2836     1  0.0000000  4.9162000  2
   2834   2829   2818   2836     1  0.0000000  0.6024960  3
   2836   2823   2822   2841     1  0.0000000  0.6508444  3
   2836   2818   2819   2839     1  0.0000000  4.9162000  2
   2836   2818   2819   2839     1  0.0000000  0.6024960  3
   2843   2845   2847   2851     1  0.0000000  0.6508444  3
   2845   2847   2851   2852     1  0.0000000  0.6508444  3
   2845   2847   2851   2853     1  0.0000000  0.6508444  3
   2847   2851   2852   2863     1  0.0000000  0.6508444  3
   2847   2851   2853   2855     1  0.0000000  0.6508444  3
   2851   2852   2863   2866     1  0.0000000  0.6508444  3
   2851   2853   2855   2859     1  0.0000000  0.6508444  3
   2852   2851   2853   2855     1  0.0000000  0.6508444  3
   2852   2863   2866   2867     1  180.0000771  0.0000000  2
   2852   2863   2866   2915     1  180.0000771  0.0000000  2
   2853   2851   2852   2863     1  0.0000000  0.6508444  3
   2853   2855   2859   2860     1  180.0000771  0.0000000  2
   2853   2855   2859   2891     1  180.0000771  0.0000000  2
   2855   2859   2891   2872     1  180.0000771  6.0668000  2
   2855   2859   2891   2872     1  180.0000771  1.4644000  4
   2859   2891   2872   2871     1  0.0000000  1.2552000  3
   2859   2891   2872   2873     1  0.0000000  1.2552000  3
   2860   2859   2891   2872     1  180.0000771  6.0668000  2
   2860   2859   2891   2872     1  180.0000771  1.4644000  4
   2863   2866   2915   2896     1  180.0000771  6.0668000  2
   2863   2866   2915   2896     1  180.0000771  1.4644000  4
   2866   2915   2896   2895     1  0.0000000  1.2552000  3
   2866   2915   2896   2897     1  0.0000000  1.2552000  3
   2867   2866   2915   2896     1  180.0000771  6.0668000  2
   2867   2866   2915   2896     1  180.0000771  1.4644000  4
   2868   2869   2871   2872     1  180.0000771  0.8368000  1
   2868   2869   2871   2872     1  180.0000771  1.0460000  2
   2868   2869   2871   2872     1  0.0000000  0.7531200  3
   2868   2869   2871   2878     1  0.0000000  0.6508444  3
   2868   2886   2873   2872     1  180.0000771  0.4184000  2
   2868   2886   2873   2872     1  0.0000000  1.6024720  3
   2868   2886   2873   2877     1  0.0000000  1.6038667  3
   2869   2868   2879   2884     1  0.0000000  0.6508444  3
   2869   2868   2886   2873     1  180.0000771  0.4184000  2
   2869   2868   2886   2873     1  0.0000000  1.6024720  3
   2869   2871   2872   2873     1  180.0000771  0.8368000  1
   2869   2871   2872   2873     1  180.0000771  1.0460000  2
   2869   2871   2872   2873     1  0.0000000  0.7531200  3
   2869   2871   2872   2891     1  0.0000000  0.6508444  3
   2871   2869   2868   2879     1  180.0000771  0.8368000  1
   2871   2869   2868   2879     1  180.0000771  1.0460000  2
   2871   2869   2868   2879     1  0.0000000  0.7531200  3
   2871   2869   2868   2886     1  0.0000000  0.6508444  3
   2871   2872   2873   2877     1  0.0000000  0.6508444  3
   2871   2872   2873   2886     1  0.0000000  0.6508444  3
   2872   2871   2869   2889     1  0.0000000  0.6508444  3
   2873   2872   2871   2878     1  0.0000000  0.6508444  3
   2873   2886   2868   2879     1  180.0000771  0.4184000  2
   2873   2886   2868   2879     1  0.0000000  1.6024720  3
   2877   2873   2872   2891     1  0.0000000  0.6508444  3
   2878   2871   2869   2889     1  0.0000000  4.9162000  2
   2878   2871   2869   2889     1  0.0000000  0.6024960  3
   2878   2871   2872   2891     1  0.0000000  0.6508444  3
   2879   2868   2869   2889     1  0.0000000  0.6508444  3
   2884   2879   2868   2886     1  0.0000000  4.9162000  2
   2884   2879   2868   2886     1  0.0000000  0.6024960  3
   2886   2868   2869   2889     1  0.0000000  4.9162000  2
   2886   2868   2869   2889     1  0.0000000  0.6024960  3
   2886   2873   2872   2891     1  0.0000000  0.6508444  3
   2892   2893   2895   2896     1  180.0000771  0.8368000  1
   2892   2893   2895   2896     1  180.0000771  1.0460000  2
   2892   2893   2895   2896     1  0.0000000  0.7531200  3
   2892   2893   2895   2902     1  0.0000000  0.6508444  3
   2892   2910   2897   2896     1  180.0000771  0.4184000  2
   2892   2910   2897   2896     1  0.0000000  1.6024720  3
   2892   2910   2897   2901     1  0.0000000  1.6038667  3
   2893   2892   2903   2908     1  0.0000000  0.6508444  3
   2893   2892   2910   2897     1  180.0000771  0.4184000  2
   2893   2892   2910   2897     1  0.0000000  1.6024720  3
   2893   2895   2896   2897     1  180.0000771  0.8368000  1
   2893   2895   2896   2897     1  180.0000771  1.0460000  2
   2893   2895   2896   2897     1  0.0000000  0.7531200  3
   2893   2895   2896   2915     1  0.0000000  0.6508444  3
   2895   2893   2892   2903     1  180.0000771  0.8368000  1
   2895   2893   2892   2903     1  180.0000771  1.0460000  2
   2895   2893   2892   2903     1  0.0000000  0.7531200  3
   2895   2893   2892   2910     1  0.0000000  0.6508444  3
   2895   2896   2897   2901     1  0.0000000  0.6508444  3
   2895   2896   2897   2910     1  0.0000000  0.6508444  3
   2896   2895   2893   2913     1  0.0000000  0.6508444  3
   2897   2896   2895   2902     1  0.0000000  0.6508444  3
   2897   2910   2892   2903     1  180.0000771  0.4184000  2
   2897   2910   2892   2903     1  0.0000000  1.6024720  3
   2901   2897   2896   2915     1  0.0000000  0.6508444  3
   2902   2895   2893   2913     1  0.0000000  4.9162000  2
   2902   2895   2893   2913     1  0.0000000  0.6024960  3
   2902   2895   2896   2915     1  0.0000000  0.6508444  3
   2903   2892   2893   2913     1  0.0000000  0.6508444  3
   2908   2903   2892   2910     1  0.0000000  4.9162000  2
   2908   2903   2892   2910     1  0.0000000  0.6024960  3
   2910   2892   2893   2913     1  0.0000000  4.9162000  2
   2910   2892   2893   2913     1  0.0000000  0.6024960  3
   2910   2897   2896   2915     1  0.0000000  0.6508444  3
   2917   2919   2921   2925     1  0.0000000  0.6508444  3
   2919   2921   2925   2926     1  0.0000000  0.6508444  3
   2919   2921   2925   2927     1  0.0000000  0.6508444  3
   2921   2925   2926   2937     1  0.0000000  0.6508444  3
   2921   2925   2927   2929     1  0.0000000  0.6508444  3
   2925   2926   2937   2940     1  0.0000000  0.6508444  3
   2925   2927   2929   2933     1  0.0000000  0.6508444  3
   2926   2937   2940   2941     1  180.0000771  0.0000000  2
   2926   2937   2940   2989     1  180.0000771  0.0000000  2
   2926   2925   2927   2929     1  0.0000000  0.6508444  3
   2927   2929   2933   2934     1  180.0000771  0.0000000  2
   2927   2929   2933   2965     1  180.0000771  0.0000000  2
   2927   2925   2926   2937     1  0.0000000  0.6508444  3
   2929   2933   2965   2946     1  180.0000771  6.0668000  2
   2929   2933   2965   2946     1  180.0000771  1.4644000  4
   2933   2965   2946   2947     1  0.0000000  1.2552000  3
   2933   2965   2946   2945     1  0.0000000  1.2552000  3
   2934   2933   2965   2946     1  180.0000771  6.0668000  2
   2934   2933   2965   2946     1  180.0000771  1.4644000  4
   2937   2940   2989   2970     1  180.0000771  6.0668000  2
   2937   2940   2989   2970     1  180.0000771  1.4644000  4
   2940   2989   2970   2971     1  0.0000000  1.2552000  3
   2940   2989   2970   2969     1  0.0000000  1.2552000  3
   2941   2940   2989   2970     1  180.0000771  6.0668000  2
   2941   2940   2989   2970     1  180.0000771  1.4644000  4
   2942   2943   2945   2946     1  180.0000771  0.8368000  1
   2942   2943   2945   2946     1  180.0000771  1.0460000  2
   2942   2943   2945   2946     1  0.0000000  0.7531200  3
   2942   2943   2945   2952     1  0.0000000  0.6508444  3
   2942   2960   2947   2951     1  0.0000000  1.6038667  3
   2942   2960   2947   2946     1  180.0000771  0.4184000  2
   2942   2960   2947   2946     1  0.0000000  1.6024720  3
   2943   2945   2946   2947     1  180.0000771  0.8368000  1
   2943   2945   2946   2947     1  180.0000771  1.0460000  2
   2943   2945   2946   2947     1  0.0000000  0.7531200  3
   2943   2945   2946   2965     1  0.0000000  0.6508444  3
   2943   2942   2953   2958     1  0.0000000  0.6508444  3
   2943   2942   2960   2947     1  180.0000771  0.4184000  2
   2943   2942   2960   2947     1  0.0000000  1.6024720  3
   2945   2946   2947   2951     1  0.0000000  0.6508444  3
   2945   2946   2947   2960     1  0.0000000  0.6508444  3
   2945   2943   2942   2953     1  180.0000771  0.8368000  1
   2945   2943   2942   2953     1  180.0000771  1.0460000  2
   2945   2943   2942   2953     1  0.0000000  0.7531200  3
   2945   2943   2942   2960     1  0.0000000  0.6508444  3
   2946   2945   2943   2963     1  0.0000000  0.6508444  3
   2947   2960   2942   2953     1  180.0000771  0.4184000  2
   2947   2960   2942   2953     1  0.0000000  1.6024720  3
   2947   2946   2945   2952     1  0.0000000  0.6508444  3
   2951   2947   2946   2965     1  0.0000000  0.6508444  3
   2952   2945   2946   2965     1  0.0000000  0.6508444  3
   2952   2945   2943   2963     1  0.0000000  4.9162000  2
   2952   2945   2943   2963     1  0.0000000  0.6024960  3
   2953   2942   2943   2963     1  0.0000000  0.6508444  3
   2958   2953   2942   2960     1  0.0000000  4.9162000  2
   2958   2953   2942   2960     1  0.0000000  0.6024960  3
   2960   2947   2946   2965     1  0.0000000  0.6508444  3
   2960   2942   2943   2963     1  0.0000000  4.9162000  2
   2960   2942   2943   2963     1  0.0000000  0.6024960  3
   2966   2967   2969   2970     1  180.0000771  0.8368000  1
   2966   2967   2969   2970     1  180.0000771  1.0460000  2
   2966   2967   2969   2970     1  0.0000000  0.7531200  3
   2966   2967   2969   2976     1  0.0000000  0.6508444  3
   2966   2984   2971   2975     1  0.0000000  1.6038667  3
   2966   2984   2971   2970     1  180.0000771  0.4184000  2
   2966   2984   2971   2970     1  0.0000000  1.6024720  3
   2967   2969   2970   2971     1  180.0000771  0.8368000  1
   2967   2969   2970   2971     1  180.0000771  1.0460000  2
   2967   2969   2970   2971     1  0.0000000  0.7531200  3
   2967   2969   2970   2989     1  0.0000000  0.6508444  3
   2967   2966   2977   2982     1  0.0000000  0.6508444  3
   2967   2966   2984   2971     1  180.0000771  0.4184000  2
   2967   2966   2984   2971     1  0.0000000  1.6024720  3
   2969   2970   2971   2975     1  0.0000000  0.6508444  3
   2969   2970   2971   2984     1  0.0000000  0.6508444  3
   2969   2967   2966   2977     1  180.0000771  0.8368000  1
   2969   2967   2966   2977     1  180.0000771  1.0460000  2
   2969   2967   2966   2977     1  0.0000000  0.7531200  3
   2969   2967   2966   2984     1  0.0000000  0.6508444  3
   2970   2969   2967   2987     1  0.0000000  0.6508444  3
   2971   2984   2966   2977     1  180.0000771  0.4184000  2
   2971   2984   2966   2977     1  0.0000000  1.6024720  3
   2971   2970   2969   2976     1  0.0000000  0.6508444  3
   2975   2971   2970   2989     1  0.0000000  0.6508444  3
   2976   2969   2970   2989     1  0.0000000  0.6508444  3
   2976   2969   2967   2987     1  0.0000000  4.9162000  2
   2976   2969   2967   2987     1  0.0000000  0.6024960  3
   2977   2966   2967   2987     1  0.0000000  0.6508444  3
   2982   2977   2966   2984     1  0.0000000  4.9162000  2
   2982   2977   2966   2984     1  0.0000000  0.6024960  3
   2984   2971   2970   2989     1  0.0000000  0.6508444  3
   2984   2966   2967   2987     1  0.0000000  4.9162000  2
   2984   2966   2967   2987     1  0.0000000  0.6024960  3
   2991   2993   2995   2999     1  0.0000000  0.6508444  3
   2993   2995   2999   3000     1  0.0000000  0.6508444  3
   2993   2995   2999   3001     1  0.0000000  0.6508444  3
   2995   2999   3000   3011     1  0.0000000  0.6508444  3
   2995   2999   3001   3003     1  0.0000000  0.6508444  3
   2999   3000   3011   3014     1  0.0000000  0.6508444  3
   2999   3001   3003   3007     1  0.0000000  0.6508444  3
   3000   2999   3001   3003     1  0.0000000  0.6508444  3
   3000   3011   3014   3015     1  180.0000771  0.0000000  2
   3000   3011   3014   3063     1  180.0000771  0.0000000  2
   3001   2999   3000   3011     1  0.0000000  0.6508444  3
   3001   3003   3007   3008     1  180.0000771  0.0000000  2
   3001   3003   3007   3039     1  180.0000771  0.0000000  2
   3003   3007   3039   3020     1  180.0000771  6.0668000  2
   3003   3007   3039   3020     1  180.0000771  1.4644000  4
   3007   3039   3020   3019     1  0.0000000  1.2552000  3
   3007   3039   3020   3021     1  0.0000000  1.2552000  3
   3008   3007   3039   3020     1  180.0000771  6.0668000  2
   3008   3007   3039   3020     1  180.0000771  1.4644000  4
   3011   3014   3063   3044     1  180.0000771  6.0668000  2
   3011   3014   3063   3044     1  180.0000771  1.4644000  4
   3014   3063   3044   3043     1  0.0000000  1.2552000  3
   3014   3063   3044   3045     1  0.0000000  1.2552000  3
   3015   3014   3063   3044     1  180.0000771  6.0668000  2
   3015   3014   3063   3044     1  180.0000771  1.4644000  4
   3016   3017   3019   3020     1  180.0000771  0.8368000  1
   3016   3017   3019   3020     1  180.0000771  1.0460000  2
   3016   3017   3019   3020     1  0.0000000  0.7531200  3
   3016   3017   3019   3026     1  0.0000000  0.6508444  3
   3016   3034   3021   3020     1  180.0000771  0.4184000  2
   3016   3034   3021   3020     1  0.0000000  1.6024720  3
   3016   3034   3021   3025     1  0.0000000  1.6038667  3
   3017   3016   3027   3032     1  0.0000000  0.6508444  3
   3017   3016   3034   3021     1  180.0000771  0.4184000  2
   3017   3016   3034   3021     1  0.0000000  1.6024720  3
   3017   3019   3020   3021     1  180.0000771  0.8368000  1
   3017   3019   3020   3021     1  180.0000771  1.0460000  2
   3017   3019   3020   3021     1  0.0000000  0.7531200  3
   3017   3019   3020   3039     1  0.0000000  0.6508444  3
   3019   3017   3016   3027     1  180.0000771  0.8368000  1
   3019   3017   3016   3027     1  180.0000771  1.0460000  2
   3019   3017   3016   3027     1  0.0000000  0.7531200  3
   3019   3017   3016   3034     1  0.0000000  0.6508444  3
   3019   3020   3021   3025     1  0.0000000  0.6508444  3
   3019   3020   3021   3034     1  0.0000000  0.6508444  3
   3020   3019   3017   3037     1  0.0000000  0.6508444  3
   3021   3020   3019   3026     1  0.0000000  0.6508444  3
   3021   3034   3016   3027     1  180.0000771  0.4184000  2
   3021   3034   3016   3027     1  0.0000000  1.6024720  3
   3025   3021   3020   3039     1  0.0000000  0.6508444  3
   3026   3019   3017   3037     1  0.0000000  4.9162000  2
   3026   3019   3017   3037     1  0.0000000  0.6024960  3
   3026   3019   3020   3039     1  0.0000000  0.6508444  3
   3027   3016   3017   3037     1  0.0000000  0.6508444  3
   3032   3027   3016   3034     1  0.0000000  4.9162000  2
   3032   3027   3016   3034     1  0.0000000  0.6024960  3
   3034   3016   3017   3037     1  0.0000000  4.9162000  2
   3034   3016   3017   3037     1  0.0000000  0.6024960  3
   3034   3021   3020   3039     1  0.0000000  0.6508444  3
   3040   3041   3043   3044     1  180.0000771  0.8368000  1
   3040   3041   3043   3044     1  180.0000771  1.0460000  2
   3040   3041   3043   3044     1  0.0000000  0.7531200  3
   3040   3041   3043   3050     1  0.0000000  0.6508444  3
   3040   3058   3045   3044     1  180.0000771  0.4184000  2
   3040   3058   3045   3044     1  0.0000000  1.6024720  3
   3040   3058   3045   3049     1  0.0000000  1.6038667  3
   3041   3040   3051   3056     1  0.0000000  0.6508444  3
   3041   3040   3058   3045     1  180.0000771  0.4184000  2
   3041   3040   3058   3045     1  0.0000000  1.6024720  3
   3041   3043   3044   3045     1  180.0000771  0.8368000  1
   3041   3043   3044   3045     1  180.0000771  1.0460000  2
   3041   3043   3044   3045     1  0.0000000  0.7531200  3
   3041   3043   3044   3063     1  0.0000000  0.6508444  3
   3043   3041   3040   3051     1  180.0000771  0.8368000  1
   3043   3041   3040   3051     1  180.0000771  1.0460000  2
   3043   3041   3040   3051     1  0.0000000  0.7531200  3
   3043   3041   3040   3058     1  0.0000000  0.6508444  3
   3043   3044   3045   3049     1  0.0000000  0.6508444  3
   3043   3044   3045   3058     1  0.0000000  0.6508444  3
   3044   3043   3041   3061     1  0.0000000  0.6508444  3
   3045   3044   3043   3050     1  0.0000000  0.6508444  3
   3045   3058   3040   3051     1  180.0000771  0.4184000  2
   3045   3058   3040   3051     1  0.0000000  1.6024720  3
   3049   3045   3044   3063     1  0.0000000  0.6508444  3
   3050   3043   3041   3061     1  0.0000000  4.9162000  2
   3050   3043   3041   3061     1  0.0000000  0.6024960  3
   3050   3043   3044   3063     1  0.0000000  0.6508444  3
   3051   3040   3041   3061     1  0.0000000  0.6508444  3
   3056   3051   3040   3058     1  0.0000000  4.9162000  2
   3056   3051   3040   3058     1  0.0000000  0.6024960  3
   3058   3040   3041   3061     1  0.0000000  4.9162000  2
   3058   3040   3041   3061     1  0.0000000  0.6024960  3
   3058   3045   3044   3063     1  0.0000000  0.6508444  3
   3065   3067   3069   3073     1  0.0000000  0.6508444  3
   3067   3069   3073   3074     1  0.0000000  0.6508444  3
   3067   3069   3073   3075     1  0.0000000  0.6508444  3
   3069   3073   3074   3085     1  0.0000000  0.6508444  3
   3069   3073   3075   3077     1  0.0000000  0.6508444  3
   3073   3074   3085   3088     1  0.0000000  0.6508444  3
   3073   3075   3077   3081     1  0.0000000  0.6508444  3
   3074   3085   3088   3089     1  180.0000771  0.0000000  2
   3074   3085   3088   3137     1  180.0000771  0.0000000  2
   3074   3073   3075   3077     1  0.0000000  0.6508444  3
   3075   3077   3081   3082     1  180.0000771  0.0000000  2
   3075   3077   3081   3113     1  180.0000771  0.0000000  2
   3075   3073   3074   3085     1  0.0000000  0.6508444  3
   3077   3081   3113   3094     1  180.0000771  6.0668000  2
   3077   3081   3113   3094     1  180.0000771  1.4644000  4
   3081   3113   3094   3095     1  0.0000000  1.2552000  3
   3081   3113   3094   3093     1  0.0000000  1.2552000  3
   3082   3081   3113   3094     1  180.0000771  6.0668000  2
   3082   3081   3113   3094     1  180.0000771  1.4644000  4
   3085   3088   3137   3118     1  180.0000771  6.0668000  2
   3085   3088   3137   3118     1  180.0000771  1.4644000  4
   3088   3137   3118   3119     1  0.0000000  1.2552000  3
   3088   3137   3118   3117     1  0.0000000  1.2552000  3
   3089   3088   3137   3118     1  180.0000771  6.0668000  2
   3089   3088   3137   3118     1  180.0000771  1.4644000  4
   3090   3091   3093   3094     1  180.0000771  0.8368000  1
   3090   3091   3093   3094     1  180.0000771  1.0460000  2
   3090   3091   3093   3094     1  0.0000000  0.7531200  3
   3090   3091   3093   3100     1  0.0000000  0.6508444  3
   3090   3108   3095   3099     1  0.0000000  1.6038667  3
   3090   3108   3095   3094     1  180.0000771  0.4184000  2
   3090   3108   3095   3094     1  0.0000000  1.6024720  3
   3091   3093   3094   3095     1  180.0000771  0.8368000  1
   3091   3093   3094   3095     1  180.0000771  1.0460000  2
   3091   3093   3094   3095     1  0.0000000  0.7531200  3
   3091   3093   3094   3113     1  0.0000000  0.6508444  3
   3091   3090   3101   3106     1  0.0000000  0.6508444  3
   3091   3090   3108   3095     1  180.0000771  0.4184000  2
   3091   3090   3108   3095     1  0.0000000  1.6024720  3
   3093   3094   3095   3099     1  0.0000000  0.6508444  3
   3093   3094   3095   3108     1  0.0000000  0.6508444  3
   3093   3091   3090   3101     1  180.0000771  0.8368000  1
   3093   3091   3090   3101     1  180.0000771  1.0460000  2
   3093   3091   3090   3101     1  0.0000000  0.7531200  3
   3093   3091   3090   3108     1  0.0000000  0.6508444  3
   3094   3093   3091   3111     1  0.0000000  0.6508444  3
   3095   3108   3090   3101     1  180.0000771  0.4184000  2
   3095   3108   3090   3101     1  0.0000000  1.6024720  3
   3095   3094   3093   3100     1  0.0000000  0.6508444  3
   3099   3095   3094   3113     1  0.0000000  0.6508444  3
   3100   3093   3094   3113     1  0.0000000  0.6508444  3
   3100   3093   3091   3111     1  0.0000000  4.9162000  2
   3100   3093   3091   3111     1  0.0000000  0.6024960  3
   3101   3090   3091   3111     1  0.0000000  0.6508444  3
   3106   3101   3090   3108     1  0.0000000  4.9162000  2
   3106   3101   3090   3108     1  0.0000000  0.6024960  3
   3108   3095   3094   3113     1  0.0000000  0.6508444  3
   3108   3090   3091   3111     1  0.0000000  4.9162000  2
   3108   3090   3091   3111     1  0.0000000  0.6024960  3
   3114   3115   3117   3118     1  180.0000771  0.8368000  1
   3114   3115   3117   3118     1  180.0000771  1.0460000  2
   3114   3115   3117   3118     1  0.0000000  0.7531200  3
   3114   3115   3117   3124     1  0.0000000  0.6508444  3
   3114   3132   3119   3123     1  0.0000000  1.6038667  3
   3114   3132   3119   3118     1  180.0000771  0.4184000  2
   3114   3132   3119   3118     1  0.0000000  1.6024720  3
   3115   3117   3118   3119     1  180.0000771  0.8368000  1
   3115   3117   3118   3119     1  180.0000771  1.0460000  2
   3115   3117   3118   3119     1  0.0000000  0.7531200  3
   3115   3117   3118   3137     1  0.0000000  0.6508444  3
   3115   3114   3125   3130     1  0.0000000  0.6508444  3
   3115   3114   3132   3119     1  180.0000771  0.4184000  2
   3115   3114   3132   3119     1  0.0000000  1.6024720  3
   3117   3118   3119   3123     1  0.0000000  0.6508444  3
   3117   3118   3119   3132     1  0.0000000  0.6508444  3
   3117   3115   3114   3125     1  180.0000771  0.8368000  1
   3117   3115   3114   3125     1  180.0000771  1.0460000  2
   3117   3115   3114   3125     1  0.0000000  0.7531200  3
   3117   3115   3114   3132     1  0.0000000  0.6508444  3
   3118   3117   3115   3135     1  0.0000000  0.6508444  3
   3119   3132   3114   3125     1  180.0000771  0.4184000  2
   3119   3132   3114   3125     1  0.0000000  1.6024720  3
   3119   3118   3117   3124     1  0.0000000  0.6508444  3
   3123   3119   3118   3137     1  0.0000000  0.6508444  3
   3124   3117   3118   3137     1  0.0000000  0.6508444  3
   3124   3117   3115   3135     1  0.0000000  4.9162000  2
   3124   3117   3115   3135     1  0.0000000  0.6024960  3
   3125   3114   3115   3135     1  0.0000000  0.6508444  3
   3130   3125   3114   3132     1  0.0000000  4.9162000  2
   3130   3125   3114   3132     1  0.0000000  0.6024960  3
   3132   3119   3118   3137     1  0.0000000  0.6508444  3
   3132   3114   3115   3135     1  0.0000000  4.9162000  2
   3132   3114   3115   3135     1  0.0000000  0.6024960  3
      9     52     10     18     4  180.0000771  43.9320000  2
     11     78     12     17     4  180.0000771  43.9320000  2
     13    104     14     20     4  180.0000771  43.9320000  2
     15    130     16     19     4  180.0000771  43.9320000  2
     46    156     47     53     4  180.0000771  43.9320000  2
     48    182     49     54     4  180.0000771  43.9320000  2
     72    208     73     79     4  180.0000771  43.9320000  2
     74    234     75     80     4  180.0000771  43.9320000  2
     98    260     99    105     4  180.0000771  43.9320000  2
    100    286    101    106     4  180.0000771  43.9320000  2
    124    312    125    131     4  180.0000771  43.9320000  2
    126    338    127    132     4  180.0000771  43.9320000  2
    150    364    151    157     4  180.0000771  43.9320000  2
    152    390    153    158     4  180.0000771  43.9320000  2
    176    416    177    183     4  180.0000771  43.9320000  2
    178    442    179    184     4  180.0000771  43.9320000  2
    202    468    203    209     4  180.0000771  43.9320000  2
    204    494    205    210     4  180.0000771  43.9320000  2
    228    520    229    235     4  180.0000771  43.9320000  2
    230    546    231    236     4  180.0000771  43.9320000  2
    254    572    255    261     4  180.0000771  43.9320000  2
    256    598    257    262     4  180.0000771  43.9320000  2
    280    624    281    287     4  180.0000771  43.9320000  2
    282    650    283    288     4  180.0000771  43.9320000  2
    306    676    307    313     4  180.0000771  43.9320000  2
    308    702    309    314     4  180.0000771  43.9320000  2
    332    728    333    339     4  180.0000771  43.9320000  2
    334    754    335    340     4  180.0000771  43.9320000  2
    358    771    359    365     4  180.0000771  43.9320000  2
    360    845    361    366     4  180.0000771  43.9320000  2
    384    919    385    391     4  180.0000771  43.9320000  2
    386    993    387    392     4  180.0000771  43.9320000  2
    410   1067    411    417     4  180.0000771  43.9320000  2
    412   1141    413    418     4  180.0000771  43.9320000  2
    436   1215    437    443     4  180.0000771  43.9320000  2
    438   1289    439    444     4  180.0000771  43.9320000  2
    462   1363    463    469     4  180.0000771  43.9320000  2
    464   1437    465    470     4  180.0000771  43.9320000  2
    488   1511    489    495     4  180.0000771  43.9320000  2
    490   1585    491    496     4  180.0000771  43.9320000  2
    514   1659    515    521     4  180.0000771  43.9320000  2
    516   1733    517    522     4  180.0000771  43.9320000  2
    540   1807    541    547     4  180.0000771  43.9320000  2
    542   1881    543    548     4  180.0000771  43.9320000  2
    566   1955    567    573     4  180.0000771  43.9320000  2
    568   2029    569    574     4  180.0000771  43.9320000  2
    592   2103    593    599     4  180.0000771  43.9320000  2
    594   2177    595    600     4  180.0000771  43.9320000  2
    618   2251    619    625     4  180.0000771  43.9320000  2
    620   2325    621    626     4  180.0000771  43.9320000  2
    644   2399    645    651     4  180.0000771  43.9320000  2
    646   2473    647    652     4  180.0000771  43.9320000  2
    670   2547    671    677     4  180.0000771  43.9320000  2
    672   2621    673    678     4  180.0000771  43.9320000  2
    696   2695    697    703     4  180.0000771  43.9320000  2
    698   2769    699    704     4  180.0000771  43.9320000  2
    722   2843    723    729     4  180.0000771  43.9320000  2
    724   2917    725    730     4  180.0000771  43.9320000  2
    748   2991    749    755     4  180.0000771  43.9320000  2
    750   3065    751    756     4  180.0000771  43.9320000  2
    783    819    787    788     4  180.0000771  43.9320000  2
    791    843    794    795     4  180.0000771  43.9320000  2
    857    893    861    862     4  180.0000771  43.9320000  2
    865    917    868    869     4  180.0000771  43.9320000  2
    931    967    935    936     4  180.0000771  43.9320000  2
    939    991    942    943     4  180.0000771  43.9320000  2
   1005   1041   1009   1010     4  180.0000771  43.9320000  2
   1013   1065   1016   1017     4  180.0000771  43.9320000  2
   1079   1115   1083   1084     4  180.0000771  43.9320000  2
   1087   1139   1090   1091     4  180.0000771  43.9320000  2
   1153   1189   1157   1158     4  180.0000771  43.9320000  2
   1161   1213   1164   1165     4  180.0000771  43.9320000  2
   1227   1263   1231   1232     4  180.0000771  43.9320000  2
   1235   1287   1238   1239     4  180.0000771  43.9320000  2
   1301   1337   1305   1306     4  180.0000771  43.9320000  2
   1309   1361   1312   1313     4  180.0000771  43.9320000  2
   1375   1411   1379   1380     4  180.0000771  43.9320000  2
   1383   1435   1386   1387     4  180.0000771  43.9320000  2
   1449   1485   1453   1454     4  180.0000771  43.9320000  2
   1457   1509   1460   1461     4  180.0000771  43.9320000  2
   1523   1559   1527   1528     4  180.0000771  43.9320000  2
   1531   1583   1534   1535     4  180.0000771  43.9320000  2
   1597   1633   1601   1602     4  180.0000771  43.9320000  2
   1605   1657   1608   1609     4  180.0000771  43.9320000  2
   1671   1707   1675   1676     4  180.0000771  43.9320000  2
   1679   1731   1682   1683     4  180.0000771  43.9320000  2
   1745   1781   1749   1750     4  180.0000771  43.9320000  2
   1753   1805   1756   1757     4  180.0000771  43.9320000  2
   1819   1855   1823   1824     4  180.0000771  43.9320000  2
   1827   1879   1830   1831     4  180.0000771  43.9320000  2
   1893   1929   1897   1898     4  180.0000771  43.9320000  2
   1901   1953   1904   1905     4  180.0000771  43.9320000  2
   1967   2003   1971   1972     4  180.0000771  43.9320000  2
   1975   2027   1978   1979     4  180.0000771  43.9320000  2
   2041   2077   2045   2046     4  180.0000771  43.9320000  2
   2049   2101   2052   2053     4  180.0000771  43.9320000  2
   2115   2151   2119   2120     4  180.0000771  43.9320000  2
   2123   2175   2126   2127     4  180.0000771  43.9320000  2
   2189   2225   2193   2194     4  180.0000771  43.9320000  2
   2197   2249   2200   2201     4  180.0000771  43.9320000  2
   2263   2299   2267   2268     4  180.0000771  43.9320000  2
   2271   2323   2274   2275     4  180.0000771  43.9320000  2
   2337   2373   2341   2342     4  180.0000771  43.9320000  2
   2345   2397   2348   2349     4  180.0000771  43.9320000  2
   2411   2447   2415   2416     4  180.0000771  43.9320000  2
   2419   2471   2422   2423     4  180.0000771  43.9320000  2
   2485   2521   2489   2490     4  180.0000771  43.9320000  2
   2493   2545   2496   2497     4  180.0000771  43.9320000  2
   2559   2595   2563   2564     4  180.0000771  43.9320000  2
   2567   2619   2570   2571     4  180.0000771  43.9320000  2
   2633   2669   2637   2638     4  180.0000771  43.9320000  2
   2641   2693   2644   2645     4  180.0000771  43.9320000  2
   2707   2743   2711   2712     4  180.0000771  43.9320000  2
   2715   2767   2718   2719     4  180.0000771  43.9320000  2
   2781   2817   2785   2786     4  180.0000771  43.9320000  2
   2789   2841   2792   2793     4  180.0000771  43.9320000  2
   2855   2891   2859   2860     4  180.0000771  43.9320000  2
   2863   2915   2866   2867     4  180.0000771  43.9320000  2
   2929   2965   2933   2934     4  180.0000771  43.9320000  2
   2937   2989   2940   2941     4  180.0000771  43.9320000  2
   3003   3039   3007   3008     4  180.0000771  43.9320000  2
   3011   3063   3014   3015     4  180.0000771  43.9320000  2
   3077   3113   3081   3082     4  180.0000771  43.9320000  2
   3085   3137   3088   3089     4  180.0000771  43.9320000  2
      1      2      3     23     1  0.0000000  0.6508444  3
      1      2      3     24     1  0.0000000  0.6508444  3
      1      7     13     37     1  0.0000000  0.6508444  3
      1      7     13     38     1  0.0000000  0.6508444  3
      1      8     15     39     1  0.0000000  0.6508444  3
      1      8     15     40     1  0.0000000  0.6508444  3
      2      1      7     29     1  0.0000000  0.6508444  3
      2      1      7     30     1  0.0000000  0.6508444  3
      2      1      8     31     1  0.0000000  0.6508444  3
      2      1      8     32     1  0.0000000  0.6508444  3
      2      3      4     42     1  0.0000000  0.6508444  3
     41      1      2      3     1  0.0000000  0.6508444  3
      3      4      5     25     1  0.0000000  0.6508444  3
      3      4      5     26     1  0.0000000  0.6508444  3
      3      4      6     27     1  0.0000000  0.6508444  3
      3      4      6     28     1  0.0000000  0.6508444  3
      4      3      2     21     1  0.0000000  0.6508444  3
      4      3      2     22     1  0.0000000  0.6508444  3
      4      5     11     35     1  0.0000000  0.6508444  3
      4      5     11     36     1  0.0000000  0.6508444  3
      4      6      9     33     1  0.0000000  0.6508444  3
      4      6      9     34     1  0.0000000  0.6508444  3
      5      4      3     23     1  0.0000000  0.6508444  3
      5      4      3     24     1  0.0000000  0.6508444  3
      5      4      6     27     1  0.0000000  0.6508444  3
      5      4      6     28     1  0.0000000  0.6508444  3
      6      4      3     23     1  0.0000000  0.6508444  3
      6      4      3     24     1  0.0000000  0.6508444  3
      6      4      5     25     1  0.0000000  0.6508444  3
      6      4      5     26     1  0.0000000  0.6508444  3
      7      1      2     21     1  0.0000000  0.6508444  3
      7      1      2     22     1  0.0000000  0.6508444  3
      7      1      8     31     1  0.0000000  0.6508444  3
      7      1      8     32     1  0.0000000  0.6508444  3
      8      1      2     21     1  0.0000000  0.6508444  3
      8      1      2     22     1  0.0000000  0.6508444  3
      8      1      7     29     1  0.0000000  0.6508444  3
      8      1      7     30     1  0.0000000  0.6508444  3
      9      6      4     42     1  0.0000000  0.6508444  3
      9     10     52     67     1  180.0000771  10.4600000  2
     10      9      6     27     1  0.0000000  0.6508444  3
     10      9      6     28     1  0.0000000  0.6508444  3
     10     52     51     65     1  0.0000000  0.0000000  2
     10     52     51     66     1  0.0000000  0.0000000  2
     11      5      4     42     1  0.0000000  0.6508444  3
     11     12     78     93     1  180.0000771  10.4600000  2
     12     11      5     25     1  0.0000000  0.6508444  3
     12     11      5     26     1  0.0000000  0.6508444  3
     12     78     77     91     1  0.0000000  0.0000000  2
     12     78     77     92     1  0.0000000  0.0000000  2
     41      1      7     13     1  0.0000000  0.6508444  3
     13     14    104    119     1  180.0000771  10.4600000  2
     14     13      7     29     1  0.0000000  0.6508444  3
     14     13      7     30     1  0.0000000  0.6508444  3
     14    104    103    117     1  0.0000000  0.0000000  2
     14    104    103    118     1  0.0000000  0.0000000  2
     41      1      8     15     1  0.0000000  0.6508444  3
     15     16    130    145     1  180.0000771  10.4600000  2
     16     15      8     31     1  0.0000000  0.6508444  3
     16     15      8     32     1  0.0000000  0.6508444  3
     16    130    129    143     1  0.0000000  0.0000000  2
     16    130    129    144     1  0.0000000  0.0000000  2
     17     12     11     35     1  0.0000000  3.3472000  1
     17     12     11     35     1  0.0000000  0.0000000  2
     17     12     11     35     1  180.0000771  0.3347200  3
     17     12     11     36     1  0.0000000  3.3472000  1
     17     12     11     36     1  0.0000000  0.0000000  2
     17     12     11     36     1  180.0000771  0.3347200  3
     17     12     78     93     1  0.0000000  8.3680000  1
     17     12     78     93     1  180.0000771  10.4600000  2
     18     10      9     33     1  0.0000000  3.3472000  1
     18     10      9     33     1  0.0000000  0.0000000  2
     18     10      9     33     1  180.0000771  0.3347200  3
     18     10      9     34     1  0.0000000  3.3472000  1
     18     10      9     34     1  0.0000000  0.0000000  2
     18     10      9     34     1  180.0000771  0.3347200  3
     18     10     52     67     1  0.0000000  8.3680000  1
     18     10     52     67     1  180.0000771  10.4600000  2
     19     16     15     39     1  0.0000000  3.3472000  1
     19     16     15     39     1  0.0000000  0.0000000  2
     19     16     15     39     1  180.0000771  0.3347200  3
     19     16     15     40     1  0.0000000  3.3472000  1
     19     16     15     40     1  0.0000000  0.0000000  2
     19     16     15     40     1  180.0000771  0.3347200  3
     19     16    130    145     1  0.0000000  8.3680000  1
     19     16    130    145     1  180.0000771  10.4600000  2
     20     14     13     37     1  0.0000000  3.3472000  1
     20     14     13     37     1  0.0000000  0.0000000  2
     20     14     13     37     1  180.0000771  0.3347200  3
     20     14     13     38     1  0.0000000  3.3472000  1
     20     14     13     38     1  0.0000000  0.0000000  2
     20     14     13     38     1  180.0000771  0.3347200  3
     20     14    104    119     1  0.0000000  8.3680000  1
     20     14    104    119     1  180.0000771  10.4600000  2
     41      1      2     21     1  0.0000000  0.6508444  3
     21      2      3     23     1  0.0000000  0.6508444  3
     21      2      3     24     1  0.0000000  0.6508444  3
     41      1      2     22     1  0.0000000  0.6508444  3
     22      2      3     23     1  0.0000000  0.6508444  3
     22      2      3     24     1  0.0000000  0.6508444  3
     23      3      4     42     1  0.0000000  0.6508444  3
     24      3      4     42     1  0.0000000  0.6508444  3
     25      5      4     42     1  0.0000000  0.6508444  3
     25      5     11     35     1  0.0000000  0.6508444  3
     25      5     11     36     1  0.0000000  0.6508444  3
     26      5      4     42     1  0.0000000  0.6508444  3
     26      5     11     35     1  0.0000000  0.6508444  3
     26      5     11     36     1  0.0000000  0.6508444  3
     27      6      4     42     1  0.0000000  0.6508444  3
     27      6      9     33     1  0.0000000  0.6508444  3
     27      6      9     34     1  0.0000000  0.6508444  3
     28      6      4     42     1  0.0000000  0.6508444  3
     28      6      9     33     1  0.0000000  0.6508444  3
     28      6      9     34     1  0.0000000  0.6508444  3
     41      1      7     29     1  0.0000000  0.6508444  3
     29      7     13     37     1  0.0000000  0.6508444  3
     29      7     13     38     1  0.0000000  0.6508444  3
     41      1      7     30     1  0.0000000  0.6508444  3
     30      7     13     37     1  0.0000000  0.6508444  3
     30      7     13     38     1  0.0000000  0.6508444  3
     41      1      8     31     1  0.0000000  0.6508444  3
     31      8     15     39     1  0.0000000  0.6508444  3
     31      8     15     40     1  0.0000000  0.6508444  3
     41      1      8     32     1  0.0000000  0.6508444  3
     32      8     15     39     1  0.0000000  0.6508444  3
     32      8     15     40     1  0.0000000  0.6508444  3
     33      9     10     52     1  180.0000771  0.0000000  2
     34      9     10     52     1  180.0000771  0.0000000  2
     35     11     12     78     1  180.0000771  0.0000000  2
     36     11     12     78     1  180.0000771  0.0000000  2
     37     13     14    104     1  180.0000771  0.0000000  2
     38     13     14    104     1  180.0000771  0.0000000  2
     39     15     16    130     1  180.0000771  0.0000000  2
     40     15     16    130     1  180.0000771  0.0000000  2
     43     44     46     59     1  0.0000000  0.6508444  3
     43     44     46     60     1  0.0000000  0.6508444  3
     43     45     48     61     1  0.0000000  0.6508444  3
     43     45     48     62     1  0.0000000  0.6508444  3
     43     50     51     65     1  0.0000000  0.6508444  3
     43     50     51     66     1  0.0000000  0.6508444  3
     44     43     45     57     1  0.0000000  0.6508444  3
     44     43     45     58     1  0.0000000  0.6508444  3
     44     43     50     63     1  0.0000000  0.6508444  3
     44     43     50     64     1  0.0000000  0.6508444  3
     45     43     44     55     1  0.0000000  0.6508444  3
     45     43     44     56     1  0.0000000  0.6508444  3
     45     43     50     63     1  0.0000000  0.6508444  3
     45     43     50     64     1  0.0000000  0.6508444  3
     46     44     43     68     1  0.0000000  0.6508444  3
     46     47    156    171     1  180.0000771  10.4600000  2
     47     46     44     55     1  0.0000000  0.6508444  3
     47     46     44     56     1  0.0000000  0.6508444  3
     47    156    155    169     1  0.0000000  0.0000000  2
     47    156    155    170     1  0.0000000  0.0000000  2
     48     45     43     68     1  0.0000000  0.6508444  3
     48     49    182    197     1  180.0000771  10.4600000  2
     49     48     45     57     1  0.0000000  0.6508444  3
     49     48     45     58     1  0.0000000  0.6508444  3
     49    182    181    195     1  0.0000000  0.0000000  2
     49    182    181    196     1  0.0000000  0.0000000  2
     50     43     44     55     1  0.0000000  0.6508444  3
     50     43     44     56     1  0.0000000  0.6508444  3
     50     43     45     57     1  0.0000000  0.6508444  3
     50     43     45     58     1  0.0000000  0.6508444  3
     50     51     52     67     1  0.0000000  0.0000000  2
     51     50     43     68     1  0.0000000  0.6508444  3
     52     51     50     63     1  0.0000000  0.6508444  3
     52     51     50     64     1  0.0000000  0.6508444  3
     53     47     46     59     1  0.0000000  3.3472000  1
     53     47     46     59     1  0.0000000  0.0000000  2
     53     47     46     59     1  180.0000771  0.3347200  3
     53     47     46     60     1  0.0000000  3.3472000  1
     53     47     46     60     1  0.0000000  0.0000000  2
     53     47     46     60     1  180.0000771  0.3347200  3
     53     47    156    171     1  0.0000000  8.3680000  1
     53     47    156    171     1  180.0000771  10.4600000  2
     54     49     48     61     1  0.0000000  3.3472000  1
     54     49     48     61     1  0.0000000  0.0000000  2
     54     49     48     61     1  180.0000771  0.3347200  3
     54     49     48     62     1  0.0000000  3.3472000  1
     54     49     48     62     1  0.0000000  0.0000000  2
     54     49     48     62     1  180.0000771  0.3347200  3
     54     49    182    197     1  0.0000000  8.3680000  1
     54     49    182    197     1  180.0000771  10.4600000  2
     55     44     43     68     1  0.0000000  0.6508444  3
     55     44     46     59     1  0.0000000  0.6508444  3
     55     44     46     60     1  0.0000000  0.6508444  3
     56     44     43     68     1  0.0000000  0.6508444  3
     56     44     46     59     1  0.0000000  0.6508444  3
     56     44     46     60     1  0.0000000  0.6508444  3
     57     45     43     68     1  0.0000000  0.6508444  3
     57     45     48     61     1  0.0000000  0.6508444  3
     57     45     48     62     1  0.0000000  0.6508444  3
     58     45     43     68     1  0.0000000  0.6508444  3
     58     45     48     61     1  0.0000000  0.6508444  3
     58     45     48     62     1  0.0000000  0.6508444  3
     59     46     47    156     1  180.0000771  0.0000000  2
     60     46     47    156     1  180.0000771  0.0000000  2
     61     48     49    182     1  180.0000771  0.0000000  2
     62     48     49    182     1  180.0000771  0.0000000  2
     63     50     43     68     1  0.0000000  0.6508444  3
     63     50     51     65     1  0.0000000  0.6508444  3
     63     50     51     66     1  0.0000000  0.6508444  3
     64     50     43     68     1  0.0000000  0.6508444  3
     64     50     51     65     1  0.0000000  0.6508444  3
     64     50     51     66     1  0.0000000  0.6508444  3
     65     51     52     67     1  0.0000000  0.0000000  2
     66     51     52     67     1  0.0000000  0.0000000  2
     69     70     72     85     1  0.0000000  0.6508444  3
     69     70     72     86     1  0.0000000  0.6508444  3
     69     71     74     87     1  0.0000000  0.6508444  3
     69     71     74     88     1  0.0000000  0.6508444  3
     69     76     77     91     1  0.0000000  0.6508444  3
     69     76     77     92     1  0.0000000  0.6508444  3
     70     69     71     83     1  0.0000000  0.6508444  3
     70     69     71     84     1  0.0000000  0.6508444  3
     70     69     76     89     1  0.0000000  0.6508444  3
     70     69     76     90     1  0.0000000  0.6508444  3
     71     69     70     81     1  0.0000000  0.6508444  3
     71     69     70     82     1  0.0000000  0.6508444  3
     71     69     76     89     1  0.0000000  0.6508444  3
     71     69     76     90     1  0.0000000  0.6508444  3
     72     70     69     94     1  0.0000000  0.6508444  3
     72     73    208    223     1  180.0000771  10.4600000  2
     73     72     70     81     1  0.0000000  0.6508444  3
     73     72     70     82     1  0.0000000  0.6508444  3
     73    208    207    221     1  0.0000000  0.0000000  2
     73    208    207    222     1  0.0000000  0.0000000  2
     74     71     69     94     1  0.0000000  0.6508444  3
     74     75    234    249     1  180.0000771  10.4600000  2
     75     74     71     83     1  0.0000000  0.6508444  3
     75     74     71     84     1  0.0000000  0.6508444  3
     75    234    233    247     1  0.0000000  0.0000000  2
     75    234    233    248     1  0.0000000  0.0000000  2
     76     69     70     81     1  0.0000000  0.6508444  3
     76     69     70     82     1  0.0000000  0.6508444  3
     76     69     71     83     1  0.0000000  0.6508444  3
     76     69     71     84     1  0.0000000  0.6508444  3
     76     77     78     93     1  0.0000000  0.0000000  2
     77     76     69     94     1  0.0000000  0.6508444  3
     78     77     76     89     1  0.0000000  0.6508444  3
     78     77     76     90     1  0.0000000  0.6508444  3
     79     73     72     85     1  0.0000000  3.3472000  1
     79     73     72     85     1  0.0000000  0.0000000  2
     79     73     72     85     1  180.0000771  0.3347200  3
     79     73     72     86     1  0.0000000  3.3472000  1
     79     73     72     86     1  0.0000000  0.0000000  2
     79     73     72     86     1  180.0000771  0.3347200  3
     79     73    208    223     1  0.0000000  8.3680000  1
     79     73    208    223     1  180.0000771  10.4600000  2
     80     75     74     87     1  0.0000000  3.3472000  1
     80     75     74     87     1  0.0000000  0.0000000  2
     80     75     74     87     1  180.0000771  0.3347200  3
     80     75     74     88     1  0.0000000  3.3472000  1
     80     75     74     88     1  0.0000000  0.0000000  2
     80     75     74     88     1  180.0000771  0.3347200  3
     80     75    234    249     1  0.0000000  8.3680000  1
     80     75    234    249     1  180.0000771  10.4600000  2
     81     70     69     94     1  0.0000000  0.6508444  3
     81     70     72     85     1  0.0000000  0.6508444  3
     81     70     72     86     1  0.0000000  0.6508444  3
     82     70     69     94     1  0.0000000  0.6508444  3
     82     70     72     85     1  0.0000000  0.6508444  3
     82     70     72     86     1  0.0000000  0.6508444  3
     83     71     69     94     1  0.0000000  0.6508444  3
     83     71     74     87     1  0.0000000  0.6508444  3
     83     71     74     88     1  0.0000000  0.6508444  3
     84     71     69     94     1  0.0000000  0.6508444  3
     84     71     74     87     1  0.0000000  0.6508444  3
     84     71     74     88     1  0.0000000  0.6508444  3
     85     72     73    208     1  180.0000771  0.0000000  2
     86     72     73    208     1  180.0000771  0.0000000  2
     87     74     75    234     1  180.0000771  0.0000000  2
     88     74     75    234     1  180.0000771  0.0000000  2
     89     76     69     94     1  0.0000000  0.6508444  3
     89     76     77     91     1  0.0000000  0.6508444  3
     89     76     77     92     1  0.0000000  0.6508444  3
     90     76     69     94     1  0.0000000  0.6508444  3
     90     76     77     91     1  0.0000000  0.6508444  3
     90     76     77     92     1  0.0000000  0.6508444  3
     91     77     78     93     1  0.0000000  0.0000000  2
     92     77     78     93     1  0.0000000  0.0000000  2
     95     96     98    111     1  0.0000000  0.6508444  3
     95     96     98    112     1  0.0000000  0.6508444  3
     95     97    100    113     1  0.0000000  0.6508444  3
     95     97    100    114     1  0.0000000  0.6508444  3
     95    102    103    117     1  0.0000000  0.6508444  3
     95    102    103    118     1  0.0000000  0.6508444  3
     96     95     97    109     1  0.0000000  0.6508444  3
     96     95     97    110     1  0.0000000  0.6508444  3
     96     95    102    115     1  0.0000000  0.6508444  3
     96     95    102    116     1  0.0000000  0.6508444  3
     97     95     96    107     1  0.0000000  0.6508444  3
     97     95     96    108     1  0.0000000  0.6508444  3
     97     95    102    115     1  0.0000000  0.6508444  3
     97     95    102    116     1  0.0000000  0.6508444  3
     98     96     95    120     1  0.0000000  0.6508444  3
     98     99    260    275     1  180.0000771  10.4600000  2
     99     98     96    107     1  0.0000000  0.6508444  3
     99     98     96    108     1  0.0000000  0.6508444  3
     99    260    259    273     1  0.0000000  0.0000000  2
     99    260    259    274     1  0.0000000  0.0000000  2
    100     97     95    120     1  0.0000000  0.6508444  3
    100    101    286    301     1  180.0000771  10.4600000  2
    101    100     97    109     1  0.0000000  0.6508444  3
    101    100     97    110     1  0.0000000  0.6508444  3
    101    286    285    299     1  0.0000000  0.0000000  2
    101    286    285    300     1  0.0000000  0.0000000  2
    102     95     96    107     1  0.0000000  0.6508444  3
    102     95     96    108     1  0.0000000  0.6508444  3
    102     95     97    109     1  0.0000000  0.6508444  3
    102     95     97    110     1  0.0000000  0.6508444  3
    102    103    104    119     1  0.0000000  0.0000000  2
    103    102     95    120     1  0.0000000  0.6508444  3
    104    103    102    115     1  0.0000000  0.6508444  3
    104    103    102    116     1  0.0000000  0.6508444  3
    105     99     98    111     1  0.0000000  3.3472000  1
    105     99     98    111     1  0.0000000  0.0000000  2
    105     99     98    111     1  180.0000771  0.3347200  3
    105     99     98    112     1  0.0000000  3.3472000  1
    105     99     98    112     1  0.0000000  0.0000000  2
    105     99     98    112     1  180.0000771  0.3347200  3
    105     99    260    275     1  0.0000000  8.3680000  1
    105     99    260    275     1  180.0000771  10.4600000  2
    106    101    100    113     1  0.0000000  3.3472000  1
    106    101    100    113     1  0.0000000  0.0000000  2
    106    101    100    113     1  180.0000771  0.3347200  3
    106    101    100    114     1  0.0000000  3.3472000  1
    106    101    100    114     1  0.0000000  0.0000000  2
    106    101    100    114     1  180.0000771  0.3347200  3
    106    101    286    301     1  0.0000000  8.3680000  1
    106    101    286    301     1  180.0000771  10.4600000  2
    107     96     95    120     1  0.0000000  0.6508444  3
    107     96     98    111     1  0.0000000  0.6508444  3
    107     96     98    112     1  0.0000000  0.6508444  3
    108     96     95    120     1  0.0000000  0.6508444  3
    108     96     98    111     1  0.0000000  0.6508444  3
    108     96     98    112     1  0.0000000  0.6508444  3
    109     97     95    120     1  0.0000000  0.6508444  3
    109     97    100    113     1  0.0000000  0.6508444  3
    109     97    100    114     1  0.0000000  0.6508444  3
    110     97     95    120     1  0.0000000  0.6508444  3
    110     97    100    113     1  0.0000000  0.6508444  3
    110     97    100    114     1  0.0000000  0.6508444  3
    111     98     99    260     1  180.0000771  0.0000000  2
    112     98     99    260     1  180.0000771  0.0000000  2
    113    100    101    286     1  180.0000771  0.0000000  2
    114    100    101    286     1  180.0000771  0.0000000  2
    115    102     95    120     1  0.0000000  0.6508444  3
    115    102    103    117     1  0.0000000  0.6508444  3
    115    102    103    118     1  0.0000000  0.6508444  3
    116    102     95    120     1  0.0000000  0.6508444  3
    116    102    103    117     1  0.0000000  0.6508444  3
    116    102    103    118     1  0.0000000  0.6508444  3
    117    103    104    119     1  0.0000000  0.0000000  2
    118    103    104    119     1  0.0000000  0.0000000  2
    121    122    124    137     1  0.0000000  0.6508444  3
    121    122    124    138     1  0.0000000  0.6508444  3
    121    123    126    139     1  0.0000000  0.6508444  3
    121    123    126    140     1  0.0000000  0.6508444  3
    121    128    129    143     1  0.0000000  0.6508444  3
    121    128    129    144     1  0.0000000  0.6508444  3
    122    121    123    135     1  0.0000000  0.6508444  3
    122    121    123    136     1  0.0000000  0.6508444  3
    122    121    128    141     1  0.0000000  0.6508444  3
    122    121    128    142     1  0.0000000  0.6508444  3
    123    121    122    133     1  0.0000000  0.6508444  3
    123    121    122    134     1  0.0000000  0.6508444  3
    123    121    128    141     1  0.0000000  0.6508444  3
    123    121    128    142     1  0.0000000  0.6508444  3
    124    122    121    146     1  0.0000000  0.6508444  3
    124    125    312    327     1  180.0000771  10.4600000  2
    125    124    122    133     1  0.0000000  0.6508444  3
    125    124    122    134     1  0.0000000  0.6508444  3
    125    312    311    325     1  0.0000000  0.0000000  2
    125    312    311    326     1  0.0000000  0.0000000  2
    126    123    121    146     1  0.0000000  0.6508444  3
    126    127    338    353     1  180.0000771  10.4600000  2
    127    126    123    135     1  0.0000000  0.6508444  3
    127    126    123    136     1  0.0000000  0.6508444  3
    127    338    337    351     1  0.0000000  0.0000000  2
    127    338    337    352     1  0.0000000  0.0000000  2
    128    121    122    133     1  0.0000000  0.6508444  3
    128    121    122    134     1  0.0000000  0.6508444  3
    128    121    123    135     1  0.0000000  0.6508444  3
    128    121    123    136     1  0.0000000  0.6508444  3
    128    129    130    145     1  0.0000000  0.0000000  2
    129    128    121    146     1  0.0000000  0.6508444  3
    130    129    128    141     1  0.0000000  0.6508444  3
    130    129    128    142     1  0.0000000  0.6508444  3
    131    125    124    137     1  0.0000000  3.3472000  1
    131    125    124    137     1  0.0000000  0.0000000  2
    131    125    124    137     1  180.0000771  0.3347200  3
    131    125    124    138     1  0.0000000  3.3472000  1
    131    125    124    138     1  0.0000000  0.0000000  2
    131    125    124    138     1  180.0000771  0.3347200  3
    131    125    312    327     1  0.0000000  8.3680000  1
    131    125    312    327     1  180.0000771  10.4600000  2
    132    127    126    139     1  0.0000000  3.3472000  1
    132    127    126    139     1  0.0000000  0.0000000  2
    132    127    126    139     1  180.0000771  0.3347200  3
    132    127    126    140     1  0.0000000  3.3472000  1
    132    127    126    140     1  0.0000000  0.0000000  2
    132    127    126    140     1  180.0000771  0.3347200  3
    132    127    338    353     1  0.0000000  8.3680000  1
    132    127    338    353     1  180.0000771  10.4600000  2
    133    122    121    146     1  0.0000000  0.6508444  3
    133    122    124    137     1  0.0000000  0.6508444  3
    133    122    124    138     1  0.0000000  0.6508444  3
    134    122    121    146     1  0.0000000  0.6508444  3
    134    122    124    137     1  0.0000000  0.6508444  3
    134    122    124    138     1  0.0000000  0.6508444  3
    135    123    121    146     1  0.0000000  0.6508444  3
    135    123    126    139     1  0.0000000  0.6508444  3
    135    123    126    140     1  0.0000000  0.6508444  3
    136    123    121    146     1  0.0000000  0.6508444  3
    136    123    126    139     1  0.0000000  0.6508444  3
    136    123    126    140     1  0.0000000  0.6508444  3
    137    124    125    312     1  180.0000771  0.0000000  2
    138    124    125    312     1  180.0000771  0.0000000  2
    139    126    127    338     1  180.0000771  0.0000000  2
    140    126    127    338     1  180.0000771  0.0000000  2
    141    128    121    146     1  0.0000000  0.6508444  3
    141    128    129    143     1  0.0000000  0.6508444  3
    141    128    129    144     1  0.0000000  0.6508444  3
    142    128    121    146     1  0.0000000  0.6508444  3
    142    128    129    143     1  0.0000000  0.6508444  3
    142    128    129    144     1  0.0000000  0.6508444  3
    143    129    130    145     1  0.0000000  0.0000000  2
    144    129    130    145     1  0.0000000  0.0000000  2
    147    148    150    163     1  0.0000000  0.6508444  3
    147    148    150    164     1  0.0000000  0.6508444  3
    147    149    152    165     1  0.0000000  0.6508444  3
    147    149    152    166     1  0.0000000  0.6508444  3
    147    154    155    169     1  0.0000000  0.6508444  3
    147    154    155    170     1  0.0000000  0.6508444  3
    148    147    149    161     1  0.0000000  0.6508444  3
    148    147    149    162     1  0.0000000  0.6508444  3
    148    147    154    167     1  0.0000000  0.6508444  3
    148    147    154    168     1  0.0000000  0.6508444  3
    149    147    148    159     1  0.0000000  0.6508444  3
    149    147    148    160     1  0.0000000  0.6508444  3
    149    147    154    167     1  0.0000000  0.6508444  3
    149    147    154    168     1  0.0000000  0.6508444  3
    150    148    147    172     1  0.0000000  0.6508444  3
    150    151    364    379     1  180.0000771  10.4600000  2
    151    150    148    159     1  0.0000000  0.6508444  3
    151    150    148    160     1  0.0000000  0.6508444  3
    151    364    363    377     1  0.0000000  0.0000000  2
    151    364    363    378     1  0.0000000  0.0000000  2
    152    149    147    172     1  0.0000000  0.6508444  3
    152    153    390    405     1  180.0000771  10.4600000  2
    153    152    149    161     1  0.0000000  0.6508444  3
    153    152    149    162     1  0.0000000  0.6508444  3
    153    390    389    403     1  0.0000000  0.0000000  2
    153    390    389    404     1  0.0000000  0.0000000  2
    154    147    148    159     1  0.0000000  0.6508444  3
    154    147    148    160     1  0.0000000  0.6508444  3
    154    147    149    161     1  0.0000000  0.6508444  3
    154    147    149    162     1  0.0000000  0.6508444  3
    154    155    156    171     1  0.0000000  0.0000000  2
    155    154    147    172     1  0.0000000  0.6508444  3
    156    155    154    167     1  0.0000000  0.6508444  3
    156    155    154    168     1  0.0000000  0.6508444  3
    157    151    150    163     1  0.0000000  3.3472000  1
    157    151    150    163     1  0.0000000  0.0000000  2
    157    151    150    163     1  180.0000771  0.3347200  3
    157    151    150    164     1  0.0000000  3.3472000  1
    157    151    150    164     1  0.0000000  0.0000000  2
    157    151    150    164     1  180.0000771  0.3347200  3
    157    151    364    379     1  0.0000000  8.3680000  1
    157    151    364    379     1  180.0000771  10.4600000  2
    158    153    152    165     1  0.0000000  3.3472000  1
    158    153    152    165     1  0.0000000  0.0000000  2
    158    153    152    165     1  180.0000771  0.3347200  3
    158    153    152    166     1  0.0000000  3.3472000  1
    158    153    152    166     1  0.0000000  0.0000000  2
    158    153    152    166     1  180.0000771  0.3347200  3
    158    153    390    405     1  0.0000000  8.3680000  1
    158    153    390    405     1  180.0000771  10.4600000  2
    159    148    147    172     1  0.0000000  0.6508444  3
    159    148    150    163     1  0.0000000  0.6508444  3
    159    148    150    164     1  0.0000000  0.6508444  3
    160    148    147    172     1  0.0000000  0.6508444  3
    160    148    150    163     1  0.0000000  0.6508444  3
    160    148    150    164     1  0.0000000  0.6508444  3
    161    149    147    172     1  0.0000000  0.6508444  3
    161    149    152    165     1  0.0000000  0.6508444  3
    161    149    152    166     1  0.0000000  0.6508444  3
    162    149    147    172     1  0.0000000  0.6508444  3
    162    149    152    165     1  0.0000000  0.6508444  3
    162    149    152    166     1  0.0000000  0.6508444  3
    163    150    151    364     1  180.0000771  0.0000000  2
    164    150    151    364     1  180.0000771  0.0000000  2
    165    152    153    390     1  180.0000771  0.0000000  2
    166    152    153    390     1  180.0000771  0.0000000  2
    167    154    147    172     1  0.0000000  0.6508444  3
    167    154    155    169     1  0.0000000  0.6508444  3
    167    154    155    170     1  0.0000000  0.6508444  3
    168    154    147    172     1  0.0000000  0.6508444  3
    168    154    155    169     1  0.0000000  0.6508444  3
    168    154    155    170     1  0.0000000  0.6508444  3
    169    155    156    171     1  0.0000000  0.0000000  2
    170    155    156    171     1  0.0000000  0.0000000  2
    173    174    176    189     1  0.0000000  0.6508444  3
    173    174    176    190     1  0.0000000  0.6508444  3
    173    175    178    191     1  0.0000000  0.6508444  3
    173    175    178    192     1  0.0000000  0.6508444  3
    173    180    181    195     1  0.0000000  0.6508444  3
    173    180    181    196     1  0.0000000  0.6508444  3
    174    173    175    187     1  0.0000000  0.6508444  3
    174    173    175    188     1  0.0000000  0.6508444  3
    174    173    180    193     1  0.0000000  0.6508444  3
    174    173    180    194     1  0.0000000  0.6508444  3
    175    173    174    185     1  0.0000000  0.6508444  3
    175    173    174    186     1  0.0000000  0.6508444  3
    175    173    180    193     1  0.0000000  0.6508444  3
    175    173    180    194     1  0.0000000  0.6508444  3
    176    174    173    198     1  0.0000000  0.6508444  3
    176    177    416    431     1  180.0000771  10.4600000  2
    177    176    174    185     1  0.0000000  0.6508444  3
    177    176    174    186     1  0.0000000  0.6508444  3
    177    416    415    429     1  0.0000000  0.0000000  2
    177    416    415    430     1  0.0000000  0.0000000  2
    178    175    173    198     1  0.0000000  0.6508444  3
    178    179    442    457     1  180.0000771  10.4600000  2
    179    178    175    187     1  0.0000000  0.6508444  3
    179    178    175    188     1  0.0000000  0.6508444  3
    179    442    441    455     1  0.0000000  0.0000000  2
    179    442    441    456     1  0.0000000  0.0000000  2
    180    173    174    185     1  0.0000000  0.6508444  3
    180    173    174    186     1  0.0000000  0.6508444  3
    180    173    175    187     1  0.0000000  0.6508444  3
    180    173    175    188     1  0.0000000  0.6508444  3
    180    181    182    197     1  0.0000000  0.0000000  2
    181    180    173    198     1  0.0000000  0.6508444  3
    182    181    180    193     1  0.0000000  0.6508444  3
    182    181    180    194     1  0.0000000  0.6508444  3
    183    177    176    189     1  0.0000000  3.3472000  1
    183    177    176    189     1  0.0000000  0.0000000  2
    183    177    176    189     1  180.0000771  0.3347200  3
    183    177    176    190     1  0.0000000  3.3472000  1
    183    177    176    190     1  0.0000000  0.0000000  2
    183    177    176    190     1  180.0000771  0.3347200  3
    183    177    416    431     1  0.0000000  8.3680000  1
    183    177    416    431     1  180.0000771  10.4600000  2
    184    179    178    191     1  0.0000000  3.3472000  1
    184    179    178    191     1  0.0000000  0.0000000  2
    184    179    178    191     1  180.0000771  0.3347200  3
    184    179    178    192     1  0.0000000  3.3472000  1
    184    179    178    192     1  0.0000000  0.0000000  2
    184    179    178    192     1  180.0000771  0.3347200  3
    184    179    442    457     1  0.0000000  8.3680000  1
    184    179    442    457     1  180.0000771  10.4600000  2
    185    174    173    198     1  0.0000000  0.6508444  3
    185    174    176    189     1  0.0000000  0.6508444  3
    185    174    176    190     1  0.0000000  0.6508444  3
    186    174    173    198     1  0.0000000  0.6508444  3
    186    174    176    189     1  0.0000000  0.6508444  3
    186    174    176    190     1  0.0000000  0.6508444  3
    187    175    173    198     1  0.0000000  0.6508444  3
    187    175    178    191     1  0.0000000  0.6508444  3
    187    175    178    192     1  0.0000000  0.6508444  3
    188    175    173    198     1  0.0000000  0.6508444  3
    188    175    178    191     1  0.0000000  0.6508444  3
    188    175    178    192     1  0.0000000  0.6508444  3
    189    176    177    416     1  180.0000771  0.0000000  2
    190    176    177    416     1  180.0000771  0.0000000  2
    191    178    179    442     1  180.0000771  0.0000000  2
    192    178    179    442     1  180.0000771  0.0000000  2
    193    180    173    198     1  0.0000000  0.6508444  3
    193    180    181    195     1  0.0000000  0.6508444  3
    193    180    181    196     1  0.0000000  0.6508444  3
    194    180    173    198     1  0.0000000  0.6508444  3
    194    180    181    195     1  0.0000000  0.6508444  3
    194    180    181    196     1  0.0000000  0.6508444  3
    195    181    182    197     1  0.0000000  0.0000000  2
    196    181    182    197     1  0.0000000  0.0000000  2
    199    200    202    215     1  0.0000000  0.6508444  3
    199    200    202    216     1  0.0000000  0.6508444  3
    199    201    204    217     1  0.0000000  0.6508444  3
    199    201    204    218     1  0.0000000  0.6508444  3
    199    206    207    221     1  0.0000000  0.6508444  3
    199    206    207    222     1  0.0000000  0.6508444  3
    200    199    201    213     1  0.0000000  0.6508444  3
    200    199    201    214     1  0.0000000  0.6508444  3
    200    199    206    219     1  0.0000000  0.6508444  3
    200    199    206    220     1  0.0000000  0.6508444  3
    201    199    200    211     1  0.0000000  0.6508444  3
    201    199    200    212     1  0.0000000  0.6508444  3
    201    199    206    219     1  0.0000000  0.6508444  3
    201    199    206    220     1  0.0000000  0.6508444  3
    202    200    199    224     1  0.0000000  0.6508444  3
    202    203    468    483     1  180.0000771  10.4600000  2
    203    202    200    211     1  0.0000000  0.6508444  3
    203    202    200    212     1  0.0000000  0.6508444  3
    203    468    467    481     1  0.0000000  0.0000000  2
    203    468    467    482     1  0.0000000  0.0000000  2
    204    201    199    224     1  0.0000000  0.6508444  3
    204    205    494    509     1  180.0000771  10.4600000  2
    205    204    201    213     1  0.0000000  0.6508444  3
    205    204    201    214     1  0.0000000  0.6508444  3
    205    494    493    507     1  0.0000000  0.0000000  2
    205    494    493    508     1  0.0000000  0.0000000  2
    206    199    200    211     1  0.0000000  0.6508444  3
    206    199    200    212     1  0.0000000  0.6508444  3
    206    199    201    213     1  0.0000000  0.6508444  3
    206    199    201    214     1  0.0000000  0.6508444  3
    206    207    208    223     1  0.0000000  0.0000000  2
    207    206    199    224     1  0.0000000  0.6508444  3
    208    207    206    219     1  0.0000000  0.6508444  3
    208    207    206    220     1  0.0000000  0.6508444  3
    209    203    202    215     1  0.0000000  3.3472000  1
    209    203    202    215     1  0.0000000  0.0000000  2
    209    203    202    215     1  180.0000771  0.3347200  3
    209    203    202    216     1  0.0000000  3.3472000  1
    209    203    202    216     1  0.0000000  0.0000000  2
    209    203    202    216     1  180.0000771  0.3347200  3
    209    203    468    483     1  0.0000000  8.3680000  1
    209    203    468    483     1  180.0000771  10.4600000  2
    210    205    204    217     1  0.0000000  3.3472000  1
    210    205    204    217     1  0.0000000  0.0000000  2
    210    205    204    217     1  180.0000771  0.3347200  3
    210    205    204    218     1  0.0000000  3.3472000  1
    210    205    204    218     1  0.0000000  0.0000000  2
    210    205    204    218     1  180.0000771  0.3347200  3
    210    205    494    509     1  0.0000000  8.3680000  1
    210    205    494    509     1  180.0000771  10.4600000  2
    211    200    199    224     1  0.0000000  0.6508444  3
    211    200    202    215     1  0.0000000  0.6508444  3
    211    200    202    216     1  0.0000000  0.6508444  3
    212    200    199    224     1  0.0000000  0.6508444  3
    212    200    202    215     1  0.0000000  0.6508444  3
    212    200    202    216     1  0.0000000  0.6508444  3
    213    201    199    224     1  0.0000000  0.6508444  3
    213    201    204    217     1  0.0000000  0.6508444  3
    213    201    204    218     1  0.0000000  0.6508444  3
    214    201    199    224     1  0.0000000  0.6508444  3
    214    201    204    217     1  0.0000000  0.6508444  3
    214    201    204    218     1  0.0000000  0.6508444  3
    215    202    203    468     1  180.0000771  0.0000000  2
    216    202    203    468     1  180.0000771  0.0000000  2
    217    204    205    494     1  180.0000771  0.0000000  2
    218    204    205    494     1  180.0000771  0.0000000  2
    219    206    199    224     1  0.0000000  0.6508444  3
    219    206    207    221     1  0.0000000  0.6508444  3
    219    206    207    222     1  0.0000000  0.6508444  3
    220    206    199    224     1  0.0000000  0.6508444  3
    220    206    207    221     1  0.0000000  0.6508444  3
    220    206    207    222     1  0.0000000  0.6508444  3
    221    207    208    223     1  0.0000000  0.0000000  2
    222    207    208    223     1  0.0000000  0.0000000  2
    225    226    228    241     1  0.0000000  0.6508444  3
    225    226    228    242     1  0.0000000  0.6508444  3
    225    227    230    243     1  0.0000000  0.6508444  3
    225    227    230    244     1  0.0000000  0.6508444  3
    225    232    233    247     1  0.0000000  0.6508444  3
    225    232    233    248     1  0.0000000  0.6508444  3
    226    225    227    239     1  0.0000000  0.6508444  3
    226    225    227    240     1  0.0000000  0.6508444  3
    226    225    232    245     1  0.0000000  0.6508444  3
    226    225    232    246     1  0.0000000  0.6508444  3
    227    225    226    237     1  0.0000000  0.6508444  3
    227    225    226    238     1  0.0000000  0.6508444  3
    227    225    232    245     1  0.0000000  0.6508444  3
    227    225    232    246     1  0.0000000  0.6508444  3
    228    226    225    250     1  0.0000000  0.6508444  3
    228    229    520    535     1  180.0000771  10.4600000  2
    229    228    226    237     1  0.0000000  0.6508444  3
    229    228    226    238     1  0.0000000  0.6508444  3
    229    520    519    533     1  0.0000000  0.0000000  2
    229    520    519    534     1  0.0000000  0.0000000  2
    230    227    225    250     1  0.0000000  0.6508444  3
    230    231    546    561     1  180.0000771  10.4600000  2
    231    230    227    239     1  0.0000000  0.6508444  3
    231    230    227    240     1  0.0000000  0.6508444  3
    231    546    545    559     1  0.0000000  0.0000000  2
    231    546    545    560     1  0.0000000  0.0000000  2
    232    225    226    237     1  0.0000000  0.6508444  3
    232    225    226    238     1  0.0000000  0.6508444  3
    232    225    227    239     1  0.0000000  0.6508444  3
    232    225    227    240     1  0.0000000  0.6508444  3
    232    233    234    249     1  0.0000000  0.0000000  2
    233    232    225    250     1  0.0000000  0.6508444  3
    234    233    232    245     1  0.0000000  0.6508444  3
    234    233    232    246     1  0.0000000  0.6508444  3
    235    229    228    241     1  0.0000000  3.3472000  1
    235    229    228    241     1  0.0000000  0.0000000  2
    235    229    228    241     1  180.0000771  0.3347200  3
    235    229    228    242     1  0.0000000  3.3472000  1
    235    229    228    242     1  0.0000000  0.0000000  2
    235    229    228    242     1  180.0000771  0.3347200  3
    235    229    520    535     1  0.0000000  8.3680000  1
    235    229    520    535     1  180.0000771  10.4600000  2
    236    231    230    243     1  0.0000000  3.3472000  1
    236    231    230    243     1  0.0000000  0.0000000  2
    236    231    230    243     1  180.0000771  0.3347200  3
    236    231    230    244     1  0.0000000  3.3472000  1
    236    231    230    244     1  0.0000000  0.0000000  2
    236    231    230    244     1  180.0000771  0.3347200  3
    236    231    546    561     1  0.0000000  8.3680000  1
    236    231    546    561     1  180.0000771  10.4600000  2
    237    226    225    250     1  0.0000000  0.6508444  3
    237    226    228    241     1  0.0000000  0.6508444  3
    237    226    228    242     1  0.0000000  0.6508444  3
    238    226    225    250     1  0.0000000  0.6508444  3
    238    226    228    241     1  0.0000000  0.6508444  3
    238    226    228    242     1  0.0000000  0.6508444  3
    239    227    225    250     1  0.0000000  0.6508444  3
    239    227    230    243     1  0.0000000  0.6508444  3
    239    227    230    244     1  0.0000000  0.6508444  3
    240    227    225    250     1  0.0000000  0.6508444  3
    240    227    230    243     1  0.0000000  0.6508444  3
    240    227    230    244     1  0.0000000  0.6508444  3
    241    228    229    520     1  180.0000771  0.0000000  2
    242    228    229    520     1  180.0000771  0.0000000  2
    243    230    231    546     1  180.0000771  0.0000000  2
    244    230    231    546     1  180.0000771  0.0000000  2
    245    232    225    250     1  0.0000000  0.6508444  3
    245    232    233    247     1  0.0000000  0.6508444  3
    245    232    233    248     1  0.0000000  0.6508444  3
    246    232    225    250     1  0.0000000  0.6508444  3
    246    232    233    247     1  0.0000000  0.6508444  3
    246    232    233    248     1  0.0000000  0.6508444  3
    247    233    234    249     1  0.0000000  0.0000000  2
    248    233    234    249     1  0.0000000  0.0000000  2
    251    252    254    267     1  0.0000000  0.6508444  3
    251    252    254    268     1  0.0000000  0.6508444  3
    251    253    256    269     1  0.0000000  0.6508444  3
    251    253    256    270     1  0.0000000  0.6508444  3
    251    258    259    273     1  0.0000000  0.6508444  3
    251    258    259    274     1  0.0000000  0.6508444  3
    252    251    253    265     1  0.0000000  0.6508444  3
    252    251    253    266     1  0.0000000  0.6508444  3
    252    251    258    271     1  0.0000000  0.6508444  3
    252    251    258    272     1  0.0000000  0.6508444  3
    253    251    252    263     1  0.0000000  0.6508444  3
    253    251    252    264     1  0.0000000  0.6508444  3
    253    251    258    271     1  0.0000000  0.6508444  3
    253    251    258    272     1  0.0000000  0.6508444  3
    254    252    251    276     1  0.0000000  0.6508444  3
    254    255    572    587     1  180.0000771  10.4600000  2
    255    254    252    263     1  0.0000000  0.6508444  3
    255    254    252    264     1  0.0000000  0.6508444  3
    255    572    571    585     1  0.0000000  0.0000000  2
    255    572    571    586     1  0.0000000  0.0000000  2
    256    253    251    276     1  0.0000000  0.6508444  3
    256    257    598    613     1  180.0000771  10.4600000  2
    257    256    253    265     1  0.0000000  0.6508444  3
    257    256    253    266     1  0.0000000  0.6508444  3
    257    598    597    611     1  0.0000000  0.0000000  2
    257    598    597    612     1  0.0000000  0.0000000  2
    258    251    252    263     1  0.0000000  0.6508444  3
    258    251    252    264     1  0.0000000  0.6508444  3
    258    251    253    265     1  0.0000000  0.6508444  3
    258    251    253    266     1  0.0000000  0.6508444  3
    258    259    260    275     1  0.0000000  0.0000000  2
    259    258    251    276     1  0.0000000  0.6508444  3
    260    259    258    271     1  0.0000000  0.6508444  3
    260    259    258    272     1  0.0000000  0.6508444  3
    261    255    254    267     1  0.0000000  3.3472000  1
    261    255    254    267     1  0.0000000  0.0000000  2
    261    255    254    267     1  180.0000771  0.3347200  3
    261    255    254    268     1  0.0000000  3.3472000  1
    261    255    254    268     1  0.0000000  0.0000000  2
    261    255    254    268     1  180.0000771  0.3347200  3
    261    255    572    587     1  0.0000000  8.3680000  1
    261    255    572    587     1  180.0000771  10.4600000  2
    262    257    256    269     1  0.0000000  3.3472000  1
    262    257    256    269     1  0.0000000  0.0000000  2
    262    257    256    269     1  180.0000771  0.3347200  3
    262    257    256    270     1  0.0000000  3.3472000  1
    262    257    256    270     1  0.0000000  0.0000000  2
    262    257    256    270     1  180.0000771  0.3347200  3
    262    257    598    613     1  0.0000000  8.3680000  1
    262    257    598    613     1  180.0000771  10.4600000  2
    263    252    251    276     1  0.0000000  0.6508444  3
    263    252    254    267     1  0.0000000  0.6508444  3
    263    252    254    268     1  0.0000000  0.6508444  3
    264    252    251    276     1  0.0000000  0.6508444  3
    264    252    254    267     1  0.0000000  0.6508444  3
    264    252    254    268     1  0.0000000  0.6508444  3
    265    253    251    276     1  0.0000000  0.6508444  3
    265    253    256    269     1  0.0000000  0.6508444  3
    265    253    256    270     1  0.0000000  0.6508444  3
    266    253    251    276     1  0.0000000  0.6508444  3
    266    253    256    269     1  0.0000000  0.6508444  3
    266    253    256    270     1  0.0000000  0.6508444  3
    267    254    255    572     1  180.0000771  0.0000000  2
    268    254    255    572     1  180.0000771  0.0000000  2
    269    256    257    598     1  180.0000771  0.0000000  2
    270    256    257    598     1  180.0000771  0.0000000  2
    271    258    251    276     1  0.0000000  0.6508444  3
    271    258    259    273     1  0.0000000  0.6508444  3
    271    258    259    274     1  0.0000000  0.6508444  3
    272    258    251    276     1  0.0000000  0.6508444  3
    272    258    259    273     1  0.0000000  0.6508444  3
    272    258    259    274     1  0.0000000  0.6508444  3
    273    259    260    275     1  0.0000000  0.0000000  2
    274    259    260    275     1  0.0000000  0.0000000  2
    277    278    280    293     1  0.0000000  0.6508444  3
    277    278    280    294     1  0.0000000  0.6508444  3
    277    279    282    295     1  0.0000000  0.6508444  3
    277    279    282    296     1  0.0000000  0.6508444  3
    277    284    285    299     1  0.0000000  0.6508444  3
    277    284    285    300     1  0.0000000  0.6508444  3
    278    277    279    291     1  0.0000000  0.6508444  3
    278    277    279    292     1  0.0000000  0.6508444  3
    278    277    284    297     1  0.0000000  0.6508444  3
    278    277    284    298     1  0.0000000  0.6508444  3
    279    277    278    289     1  0.0000000  0.6508444  3
    279    277    278    290     1  0.0000000  0.6508444  3
    279    277    284    297     1  0.0000000  0.6508444  3
    279    277    284    298     1  0.0000000  0.6508444  3
    280    278    277    302     1  0.0000000  0.6508444  3
    280    281    624    639     1  180.0000771  10.4600000  2
    281    280    278    289     1  0.0000000  0.6508444  3
    281    280    278    290     1  0.0000000  0.6508444  3
    281    624    623    637     1  0.0000000  0.0000000  2
    281    624    623    638     1  0.0000000  0.0000000  2
    282    279    277    302     1  0.0000000  0.6508444  3
    282    283    650    665     1  180.0000771  10.4600000  2
    283    282    279    291     1  0.0000000  0.6508444  3
    283    282    279    292     1  0.0000000  0.6508444  3
    283    650    649    663     1  0.0000000  0.0000000  2
    283    650    649    664     1  0.0000000  0.0000000  2
    284    277    278    289     1  0.0000000  0.6508444  3
    284    277    278    290     1  0.0000000  0.6508444  3
    284    277    279    291     1  0.0000000  0.6508444  3
    284    277    279    292     1  0.0000000  0.6508444  3
    284    285    286    301     1  0.0000000  0.0000000  2
    285    284    277    302     1  0.0000000  0.6508444  3
    286    285    284    297     1  0.0000000  0.6508444  3
    286    285    284    298     1  0.0000000  0.6508444  3
    287    281    280    293     1  0.0000000  3.3472000  1
    287    281    280    293     1  0.0000000  0.0000000  2
    287    281    280    293     1  180.0000771  0.3347200  3
    287    281    280    294     1  0.0000000  3.3472000  1
    287    281    280    294     1  0.0000000  0.0000000  2
    287    281    280    294     1  180.0000771  0.3347200  3
    287    281    624    639     1  0.0000000  8.3680000  1
    287    281    624    639     1  180.0000771  10.4600000  2
    288    283    282    295     1  0.0000000  3.3472000  1
    288    283    282    295     1  0.0000000  0.0000000  2
    288    283    282    295     1  180.0000771  0.3347200  3
    288    283    282    296     1  0.0000000  3.3472000  1
    288    283    282    296     1  0.0000000  0.0000000  2
    288    283    282    296     1  180.0000771  0.3347200  3
    288    283    650    665     1  0.0000000  8.3680000  1
    288    283    650    665     1  180.0000771  10.4600000  2
    289    278    277    302     1  0.0000000  0.6508444  3
    289    278    280    293     1  0.0000000  0.6508444  3
    289    278    280    294     1  0.0000000  0.6508444  3
    290    278    277    302     1  0.0000000  0.6508444  3
    290    278    280    293     1  0.0000000  0.6508444  3
    290    278    280    294     1  0.0000000  0.6508444  3
    291    279    277    302     1  0.0000000  0.6508444  3
    291    279    282    295     1  0.0000000  0.6508444  3
    291    279    282    296     1  0.0000000  0.6508444  3
    292    279    277    302     1  0.0000000  0.6508444  3
    292    279    282    295     1  0.0000000  0.6508444  3
    292    279    282    296     1  0.0000000  0.6508444  3
    293    280    281    624     1  180.0000771  0.0000000  2
    294    280    281    624     1  180.0000771  0.0000000  2
    295    282    283    650     1  180.0000771  0.0000000  2
    296    282    283    650     1  180.0000771  0.0000000  2
    297    284    277    302     1  0.0000000  0.6508444  3
    297    284    285    299     1  0.0000000  0.6508444  3
    297    284    285    300     1  0.0000000  0.6508444  3
    298    284    277    302     1  0.0000000  0.6508444  3
    298    284    285    299     1  0.0000000  0.6508444  3
    298    284    285    300     1  0.0000000  0.6508444  3
    299    285    286    301     1  0.0000000  0.0000000  2
    300    285    286    301     1  0.0000000  0.0000000  2
    303    304    306    319     1  0.0000000  0.6508444  3
    303    304    306    320     1  0.0000000  0.6508444  3
    303    305    308    321     1  0.0000000  0.6508444  3
    303    305    308    322     1  0.0000000  0.6508444  3
    303    310    311    325     1  0.0000000  0.6508444  3
    303    310    311    326     1  0.0000000  0.6508444  3
    304    303    305    317     1  0.0000000  0.6508444  3
    304    303    305    318     1  0.0000000  0.6508444  3
    304    303    310    323     1  0.0000000  0.6508444  3
    304    303    310    324     1  0.0000000  0.6508444  3
    305    303    304    315     1  0.0000000  0.6508444  3
    305    303    304    316     1  0.0000000  0.6508444  3
    305    303    310    323     1  0.0000000  0.6508444  3
    305    303    310    324     1  0.0000000  0.6508444  3
    306    304    303    328     1  0.0000000  0.6508444  3
    306    307    676    691     1  180.0000771  10.4600000  2
    307    306    304    315     1  0.0000000  0.6508444  3
    307    306    304    316     1  0.0000000  0.6508444  3
    307    676    675    689     1  0.0000000  0.0000000  2
    307    676    675    690     1  0.0000000  0.0000000  2
    308    305    303    328     1  0.0000000  0.6508444  3
    308    309    702    717     1  180.0000771  10.4600000  2
    309    308    305    317     1  0.0000000  0.6508444  3
    309    308    305    318     1  0.0000000  0.6508444  3
    309    702    701    715     1  0.0000000  0.0000000  2
    309    702    701    716     1  0.0000000  0.0000000  2
    310    303    304    315     1  0.0000000  0.6508444  3
    310    303    304    316     1  0.0000000  0.6508444  3
    310    303    305    317     1  0.0000000  0.6508444  3
    310    303    305    318     1  0.0000000  0.6508444  3
    310    311    312    327     1  0.0000000  0.0000000  2
    311    310    303    328     1  0.0000000  0.6508444  3
    312    311    310    323     1  0.0000000  0.6508444  3
    312    311    310    324     1  0.0000000  0.6508444  3
    313    307    306    319     1  0.0000000  3.3472000  1
    313    307    306    319     1  0.0000000  0.0000000  2
    313    307    306    319     1  180.0000771  0.3347200  3
    313    307    306    320     1  0.0000000  3.3472000  1
    313    307    306    320     1  0.0000000  0.0000000  2
    313    307    306    320     1  180.0000771  0.3347200  3
    313    307    676    691     1  0.0000000  8.3680000  1
    313    307    676    691     1  180.0000771  10.4600000  2
    314    309    308    321     1  0.0000000  3.3472000  1
    314    309    308    321     1  0.0000000  0.0000000  2
    314    309    308    321     1  180.0000771  0.3347200  3
    314    309    308    322     1  0.0000000  3.3472000  1
    314    309    308    322     1  0.0000000  0.0000000  2
    314    309    308    322     1  180.0000771  0.3347200  3
    314    309    702    717     1  0.0000000  8.3680000  1
    314    309    702    717     1  180.0000771  10.4600000  2
    315    304    303    328     1  0.0000000  0.6508444  3
    315    304    306    319     1  0.0000000  0.6508444  3
    315    304    306    320     1  0.0000000  0.6508444  3
    316    304    303    328     1  0.0000000  0.6508444  3
    316    304    306    319     1  0.0000000  0.6508444  3
    316    304    306    320     1  0.0000000  0.6508444  3
    317    305    303    328     1  0.0000000  0.6508444  3
    317    305    308    321     1  0.0000000  0.6508444  3
    317    305    308    322     1  0.0000000  0.6508444  3
    318    305    303    328     1  0.0000000  0.6508444  3
    318    305    308    321     1  0.0000000  0.6508444  3
    318    305    308    322     1  0.0000000  0.6508444  3
    319    306    307    676     1  180.0000771  0.0000000  2
    320    306    307    676     1  180.0000771  0.0000000  2
    321    308    309    702     1  180.0000771  0.0000000  2
    322    308    309    702     1  180.0000771  0.0000000  2
    323    310    303    328     1  0.0000000  0.6508444  3
    323    310    311    325     1  0.0000000  0.6508444  3
    323    310    311    326     1  0.0000000  0.6508444  3
    324    310    303    328     1  0.0000000  0.6508444  3
    324    310    311    325     1  0.0000000  0.6508444  3
    324    310    311    326     1  0.0000000  0.6508444  3
    325    311    312    327     1  0.0000000  0.0000000  2
    326    311    312    327     1  0.0000000  0.0000000  2
    329    330    332    345     1  0.0000000  0.6508444  3
    329    330    332    346     1  0.0000000  0.6508444  3
    329    331    334    347     1  0.0000000  0.6508444  3
    329    331    334    348     1  0.0000000  0.6508444  3
    329    336    337    351     1  0.0000000  0.6508444  3
    329    336    337    352     1  0.0000000  0.6508444  3
    330    329    331    343     1  0.0000000  0.6508444  3
    330    329    331    344     1  0.0000000  0.6508444  3
    330    329    336    349     1  0.0000000  0.6508444  3
    330    329    336    350     1  0.0000000  0.6508444  3
    331    329    330    341     1  0.0000000  0.6508444  3
    331    329    330    342     1  0.0000000  0.6508444  3
    331    329    336    349     1  0.0000000  0.6508444  3
    331    329    336    350     1  0.0000000  0.6508444  3
    332    330    329    354     1  0.0000000  0.6508444  3
    332    333    728    743     1  180.0000771  10.4600000  2
    333    332    330    341     1  0.0000000  0.6508444  3
    333    332    330    342     1  0.0000000  0.6508444  3
    333    728    727    741     1  0.0000000  0.0000000  2
    333    728    727    742     1  0.0000000  0.0000000  2
    334    331    329    354     1  0.0000000  0.6508444  3
    334    335    754    769     1  180.0000771  10.4600000  2
    335    334    331    343     1  0.0000000  0.6508444  3
    335    334    331    344     1  0.0000000  0.6508444  3
    335    754    753    767     1  0.0000000  0.0000000  2
    335    754    753    768     1  0.0000000  0.0000000  2
    336    329    330    341     1  0.0000000  0.6508444  3
    336    329    330    342     1  0.0000000  0.6508444  3
    336    329    331    343     1  0.0000000  0.6508444  3
    336    329    331    344     1  0.0000000  0.6508444  3
    336    337    338    353     1  0.0000000  0.0000000  2
    337    336    329    354     1  0.0000000  0.6508444  3
    338    337    336    349     1  0.0000000  0.6508444  3
    338    337    336    350     1  0.0000000  0.6508444  3
    339    333    332    345     1  0.0000000  3.3472000  1
    339    333    332    345     1  0.0000000  0.0000000  2
    339    333    332    345     1  180.0000771  0.3347200  3
    339    333    332    346     1  0.0000000  3.3472000  1
    339    333    332    346     1  0.0000000  0.0000000  2
    339    333    332    346     1  180.0000771  0.3347200  3
    339    333    728    743     1  0.0000000  8.3680000  1
    339    333    728    743     1  180.0000771  10.4600000  2
    340    335    334    347     1  0.0000000  3.3472000  1
    340    335    334    347     1  0.0000000  0.0000000  2
    340    335    334    347     1  180.0000771  0.3347200  3
    340    335    334    348     1  0.0000000  3.3472000  1
    340    335    334    348     1  0.0000000  0.0000000  2
    340    335    334    348     1  180.0000771  0.3347200  3
    340    335    754    769     1  0.0000000  8.3680000  1
    340    335    754    769     1  180.0000771  10.4600000  2
    341    330    329    354     1  0.0000000  0.6508444  3
    341    330    332    345     1  0.0000000  0.6508444  3
    341    330    332    346     1  0.0000000  0.6508444  3
    342    330    329    354     1  0.0000000  0.6508444  3
    342    330    332    345     1  0.0000000  0.6508444  3
    342    330    332    346     1  0.0000000  0.6508444  3
    343    331    329    354     1  0.0000000  0.6508444  3
    343    331    334    347     1  0.0000000  0.6508444  3
    343    331    334    348     1  0.0000000  0.6508444  3
    344    331    329    354     1  0.0000000  0.6508444  3
    344    331    334    347     1  0.0000000  0.6508444  3
    344    331    334    348     1  0.0000000  0.6508444  3
    345    332    333    728     1  180.0000771  0.0000000  2
    346    332    333    728     1  180.0000771  0.0000000  2
    347    334    335    754     1  180.0000771  0.0000000  2
    348    334    335    754     1  180.0000771  0.0000000  2
    349    336    329    354     1  0.0000000  0.6508444  3
    349    336    337    351     1  0.0000000  0.6508444  3
    349    336    337    352     1  0.0000000  0.6508444  3
    350    336    329    354     1  0.0000000  0.6508444  3
    350    336    337    351     1  0.0000000  0.6508444  3
    350    336    337    352     1  0.0000000  0.6508444  3
    351    337    338    353     1  0.0000000  0.0000000  2
    352    337    338    353     1  0.0000000  0.0000000  2
    355    356    358    371     1  0.0000000  0.6508444  3
    355    356    358    372     1  0.0000000  0.6508444  3
    355    357    360    373     1  0.0000000  0.6508444  3
    355    357    360    374     1  0.0000000  0.6508444  3
    355    362    363    377     1  0.0000000  0.6508444  3
    355    362    363    378     1  0.0000000  0.6508444  3
    356    355    357    369     1  0.0000000  0.6508444  3
    356    355    357    370     1  0.0000000  0.6508444  3
    356    355    362    375     1  0.0000000  0.6508444  3
    356    355    362    376     1  0.0000000  0.6508444  3
    357    355    356    367     1  0.0000000  0.6508444  3
    357    355    356    368     1  0.0000000  0.6508444  3
    357    355    362    375     1  0.0000000  0.6508444  3
    357    355    362    376     1  0.0000000  0.6508444  3
    358    356    355    380     1  0.0000000  0.6508444  3
    358    359    771    772     1  180.0000771  10.4600000  2
    359    358    356    367     1  0.0000000  0.6508444  3
    359    358    356    368     1  0.0000000  0.6508444  3
    359    771    773    774     1  0.0000000  0.0000000  2
    359    771    773    776     1  0.0000000  0.0000000  2
    360    357    355    380     1  0.0000000  0.6508444  3
    360    361    845    846     1  180.0000771  10.4600000  2
    361    360    357    369     1  0.0000000  0.6508444  3
    361    360    357    370     1  0.0000000  0.6508444  3
    361    845    847    848     1  0.0000000  0.0000000  2
    361    845    847    850     1  0.0000000  0.0000000  2
    362    355    356    367     1  0.0000000  0.6508444  3
    362    355    356    368     1  0.0000000  0.6508444  3
    362    355    357    369     1  0.0000000  0.6508444  3
    362    355    357    370     1  0.0000000  0.6508444  3
    362    363    364    379     1  0.0000000  0.0000000  2
    363    362    355    380     1  0.0000000  0.6508444  3
    364    363    362    375     1  0.0000000  0.6508444  3
    364    363    362    376     1  0.0000000  0.6508444  3
    365    359    358    371     1  0.0000000  3.3472000  1
    365    359    358    371     1  0.0000000  0.0000000  2
    365    359    358    371     1  180.0000771  0.3347200  3
    365    359    358    372     1  0.0000000  3.3472000  1
    365    359    358    372     1  0.0000000  0.0000000  2
    365    359    358    372     1  180.0000771  0.3347200  3
    365    359    771    772     1  0.0000000  8.3680000  1
    365    359    771    772     1  180.0000771  10.4600000  2
    366    361    360    373     1  0.0000000  3.3472000  1
    366    361    360    373     1  0.0000000  0.0000000  2
    366    361    360    373     1  180.0000771  0.3347200  3
    366    361    360    374     1  0.0000000  3.3472000  1
    366    361    360    374     1  0.0000000  0.0000000  2
    366    361    360    374     1  180.0000771  0.3347200  3
    366    361    845    846     1  0.0000000  8.3680000  1
    366    361    845    846     1  180.0000771  10.4600000  2
    367    356    355    380     1  0.0000000  0.6508444  3
    367    356    358    371     1  0.0000000  0.6508444  3
    367    356    358    372     1  0.0000000  0.6508444  3
    368    356    355    380     1  0.0000000  0.6508444  3
    368    356    358    371     1  0.0000000  0.6508444  3
    368    356    358    372     1  0.0000000  0.6508444  3
    369    357    355    380     1  0.0000000  0.6508444  3
    369    357    360    373     1  0.0000000  0.6508444  3
    369    357    360    374     1  0.0000000  0.6508444  3
    370    357    355    380     1  0.0000000  0.6508444  3
    370    357    360    373     1  0.0000000  0.6508444  3
    370    357    360    374     1  0.0000000  0.6508444  3
    371    358    359    771     1  180.0000771  0.0000000  2
    372    358    359    771     1  180.0000771  0.0000000  2
    373    360    361    845     1  180.0000771  0.0000000  2
    374    360    361    845     1  180.0000771  0.0000000  2
    375    362    355    380     1  0.0000000  0.6508444  3
    375    362    363    377     1  0.0000000  0.6508444  3
    375    362    363    378     1  0.0000000  0.6508444  3
    376    362    355    380     1  0.0000000  0.6508444  3
    376    362    363    377     1  0.0000000  0.6508444  3
    376    362    363    378     1  0.0000000  0.6508444  3
    377    363    364    379     1  0.0000000  0.0000000  2
    378    363    364    379     1  0.0000000  0.0000000  2
    381    382    384    397     1  0.0000000  0.6508444  3
    381    382    384    398     1  0.0000000  0.6508444  3
    381    383    386    399     1  0.0000000  0.6508444  3
    381    383    386    400     1  0.0000000  0.6508444  3
    381    388    389    403     1  0.0000000  0.6508444  3
    381    388    389    404     1  0.0000000  0.6508444  3
    382    381    383    395     1  0.0000000  0.6508444  3
    382    381    383    396     1  0.0000000  0.6508444  3
    382    381    388    401     1  0.0000000  0.6508444  3
    382    381    388    402     1  0.0000000  0.6508444  3
    383    381    382    393     1  0.0000000  0.6508444  3
    383    381    382    394     1  0.0000000  0.6508444  3
    383    381    388    401     1  0.0000000  0.6508444  3
    383    381    388    402     1  0.0000000  0.6508444  3
    384    382    381    406     1  0.0000000  0.6508444  3
    384    385    919    920     1  180.0000771  10.4600000  2
    385    384    382    393     1  0.0000000  0.6508444  3
    385    384    382    394     1  0.0000000  0.6508444  3
    385    919    921    922     1  0.0000000  0.0000000  2
    385    919    921    924     1  0.0000000  0.0000000  2
    386    383    381    406     1  0.0000000  0.6508444  3
    386    387    993    994     1  180.0000771  10.4600000  2
    387    386    383    395     1  0.0000000  0.6508444  3
    387    386    383    396     1  0.0000000  0.6508444  3
    387    993    995    996     1  0.0000000  0.0000000  2
    387    993    995    998     1  0.0000000  0.0000000  2
    388    381    382    393     1  0.0000000  0.6508444  3
    388    381    382    394     1  0.0000000  0.6508444  3
    388    381    383    395     1  0.0000000  0.6508444  3
    388    381    383    396     1  0.0000000  0.6508444  3
    388    389    390    405     1  0.0000000  0.0000000  2
    389    388    381    406     1  0.0000000  0.6508444  3
    390    389    388    401     1  0.0000000  0.6508444  3
    390    389    388    402     1  0.0000000  0.6508444  3
    391    385    384    397     1  0.0000000  3.3472000  1
    391    385    384    397     1  0.0000000  0.0000000  2
    391    385    384    397     1  180.0000771  0.3347200  3
    391    385    384    398     1  0.0000000  3.3472000  1
    391    385    384    398     1  0.0000000  0.0000000  2
    391    385    384    398     1  180.0000771  0.3347200  3
    391    385    919    920     1  0.0000000  8.3680000  1
    391    385    919    920     1  180.0000771  10.4600000  2
    392    387    386    399     1  0.0000000  3.3472000  1
    392    387    386    399     1  0.0000000  0.0000000  2
    392    387    386    399     1  180.0000771  0.3347200  3
    392    387    386    400     1  0.0000000  3.3472000  1
    392    387    386    400     1  0.0000000  0.0000000  2
    392    387    386    400     1  180.0000771  0.3347200  3
    392    387    993    994     1  0.0000000  8.3680000  1
    392    387    993    994     1  180.0000771  10.4600000  2
    393    382    381    406     1  0.0000000  0.6508444  3
    393    382    384    397     1  0.0000000  0.6508444  3
    393    382    384    398     1  0.0000000  0.6508444  3
    394    382    381    406     1  0.0000000  0.6508444  3
    394    382    384    397     1  0.0000000  0.6508444  3
    394    382    384    398     1  0.0000000  0.6508444  3
    395    383    381    406     1  0.0000000  0.6508444  3
    395    383    386    399     1  0.0000000  0.6508444  3
    395    383    386    400     1  0.0000000  0.6508444  3
    396    383    381    406     1  0.0000000  0.6508444  3
    396    383    386    399     1  0.0000000  0.6508444  3
    396    383    386    400     1  0.0000000  0.6508444  3
    397    384    385    919     1  180.0000771  0.0000000  2
    398    384    385    919     1  180.0000771  0.0000000  2
    399    386    387    993     1  180.0000771  0.0000000  2
    400    386    387    993     1  180.0000771  0.0000000  2
    401    388    381    406     1  0.0000000  0.6508444  3
    401    388    389    403     1  0.0000000  0.6508444  3
    401    388    389    404     1  0.0000000  0.6508444  3
    402    388    381    406     1  0.0000000  0.6508444  3
    402    388    389    403     1  0.0000000  0.6508444  3
    402    388    389    404     1  0.0000000  0.6508444  3
    403    389    390    405     1  0.0000000  0.0000000  2
    404    389    390    405     1  0.0000000  0.0000000  2
    407    408    410    423     1  0.0000000  0.6508444  3
    407    408    410    424     1  0.0000000  0.6508444  3
    407    409    412    425     1  0.0000000  0.6508444  3
    407    409    412    426     1  0.0000000  0.6508444  3
    407    414    415    429     1  0.0000000  0.6508444  3
    407    414    415    430     1  0.0000000  0.6508444  3
    408    407    409    421     1  0.0000000  0.6508444  3
    408    407    409    422     1  0.0000000  0.6508444  3
    408    407    414    427     1  0.0000000  0.6508444  3
    408    407    414    428     1  0.0000000  0.6508444  3
    409    407    408    419     1  0.0000000  0.6508444  3
    409    407    408    420     1  0.0000000  0.6508444  3
    409    407    414    427     1  0.0000000  0.6508444  3
    409    407    414    428     1  0.0000000  0.6508444  3
    410    408    407    432     1  0.0000000  0.6508444  3
    410    411   1067   1068     1  180.0000771  10.4600000  2
    411    410    408    419     1  0.0000000  0.6508444  3
    411    410    408    420     1  0.0000000  0.6508444  3
    411   1067   1069   1070     1  0.0000000  0.0000000  2
    411   1067   1069   1072     1  0.0000000  0.0000000  2
    412    409    407    432     1  0.0000000  0.6508444  3
    412    413   1141   1142     1  180.0000771  10.4600000  2
    413    412    409    421     1  0.0000000  0.6508444  3
    413    412    409    422     1  0.0000000  0.6508444  3
    413   1141   1143   1144     1  0.0000000  0.0000000  2
    413   1141   1143   1146     1  0.0000000  0.0000000  2
    414    407    408    419     1  0.0000000  0.6508444  3
    414    407    408    420     1  0.0000000  0.6508444  3
    414    407    409    421     1  0.0000000  0.6508444  3
    414    407    409    422     1  0.0000000  0.6508444  3
    414    415    416    431     1  0.0000000  0.0000000  2
    415    414    407    432     1  0.0000000  0.6508444  3
    416    415    414    427     1  0.0000000  0.6508444  3
    416    415    414    428     1  0.0000000  0.6508444  3
    417    411    410    423     1  0.0000000  3.3472000  1
    417    411    410    423     1  0.0000000  0.0000000  2
    417    411    410    423     1  180.0000771  0.3347200  3
    417    411    410    424     1  0.0000000  3.3472000  1
    417    411    410    424     1  0.0000000  0.0000000  2
    417    411    410    424     1  180.0000771  0.3347200  3
    417    411   1067   1068     1  0.0000000  8.3680000  1
    417    411   1067   1068     1  180.0000771  10.4600000  2
    418    413    412    425     1  0.0000000  3.3472000  1
    418    413    412    425     1  0.0000000  0.0000000  2
    418    413    412    425     1  180.0000771  0.3347200  3
    418    413    412    426     1  0.0000000  3.3472000  1
    418    413    412    426     1  0.0000000  0.0000000  2
    418    413    412    426     1  180.0000771  0.3347200  3
    418    413   1141   1142     1  0.0000000  8.3680000  1
    418    413   1141   1142     1  180.0000771  10.4600000  2
    419    408    407    432     1  0.0000000  0.6508444  3
    419    408    410    423     1  0.0000000  0.6508444  3
    419    408    410    424     1  0.0000000  0.6508444  3
    420    408    407    432     1  0.0000000  0.6508444  3
    420    408    410    423     1  0.0000000  0.6508444  3
    420    408    410    424     1  0.0000000  0.6508444  3
    421    409    407    432     1  0.0000000  0.6508444  3
    421    409    412    425     1  0.0000000  0.6508444  3
    421    409    412    426     1  0.0000000  0.6508444  3
    422    409    407    432     1  0.0000000  0.6508444  3
    422    409    412    425     1  0.0000000  0.6508444  3
    422    409    412    426     1  0.0000000  0.6508444  3
    423    410    411   1067     1  180.0000771  0.0000000  2
    424    410    411   1067     1  180.0000771  0.0000000  2
    425    412    413   1141     1  180.0000771  0.0000000  2
    426    412    413   1141     1  180.0000771  0.0000000  2
    427    414    407    432     1  0.0000000  0.6508444  3
    427    414    415    429     1  0.0000000  0.6508444  3
    427    414    415    430     1  0.0000000  0.6508444  3
    428    414    407    432     1  0.0000000  0.6508444  3
    428    414    415    429     1  0.0000000  0.6508444  3
    428    414    415    430     1  0.0000000  0.6508444  3
    429    415    416    431     1  0.0000000  0.0000000  2
    430    415    416    431     1  0.0000000  0.0000000  2
    433    434    436    449     1  0.0000000  0.6508444  3
    433    434    436    450     1  0.0000000  0.6508444  3
    433    435    438    451     1  0.0000000  0.6508444  3
    433    435    438    452     1  0.0000000  0.6508444  3
    433    440    441    455     1  0.0000000  0.6508444  3
    433    440    441    456     1  0.0000000  0.6508444  3
    434    433    435    447     1  0.0000000  0.6508444  3
    434    433    435    448     1  0.0000000  0.6508444  3
    434    433    440    453     1  0.0000000  0.6508444  3
    434    433    440    454     1  0.0000000  0.6508444  3
    435    433    434    445     1  0.0000000  0.6508444  3
    435    433    434    446     1  0.0000000  0.6508444  3
    435    433    440    453     1  0.0000000  0.6508444  3
    435    433    440    454     1  0.0000000  0.6508444  3
    436    434    433    458     1  0.0000000  0.6508444  3
    436    437   1215   1216     1  180.0000771  10.4600000  2
    437    436    434    445     1  0.0000000  0.6508444  3
    437    436    434    446     1  0.0000000  0.6508444  3
    437   1215   1217   1218     1  0.0000000  0.0000000  2
    437   1215   1217   1220     1  0.0000000  0.0000000  2
    438    435    433    458     1  0.0000000  0.6508444  3
    438    439   1289   1290     1  180.0000771  10.4600000  2
    439    438    435    447     1  0.0000000  0.6508444  3
    439    438    435    448     1  0.0000000  0.6508444  3
    439   1289   1291   1292     1  0.0000000  0.0000000  2
    439   1289   1291   1294     1  0.0000000  0.0000000  2
    440    433    434    445     1  0.0000000  0.6508444  3
    440    433    434    446     1  0.0000000  0.6508444  3
    440    433    435    447     1  0.0000000  0.6508444  3
    440    433    435    448     1  0.0000000  0.6508444  3
    440    441    442    457     1  0.0000000  0.0000000  2
    441    440    433    458     1  0.0000000  0.6508444  3
    442    441    440    453     1  0.0000000  0.6508444  3
    442    441    440    454     1  0.0000000  0.6508444  3
    443    437    436    449     1  0.0000000  3.3472000  1
    443    437    436    449     1  0.0000000  0.0000000  2
    443    437    436    449     1  180.0000771  0.3347200  3
    443    437    436    450     1  0.0000000  3.3472000  1
    443    437    436    450     1  0.0000000  0.0000000  2
    443    437    436    450     1  180.0000771  0.3347200  3
    443    437   1215   1216     1  0.0000000  8.3680000  1
    443    437   1215   1216     1  180.0000771  10.4600000  2
    444    439    438    451     1  0.0000000  3.3472000  1
    444    439    438    451     1  0.0000000  0.0000000  2
    444    439    438    451     1  180.0000771  0.3347200  3
    444    439    438    452     1  0.0000000  3.3472000  1
    444    439    438    452     1  0.0000000  0.0000000  2
    444    439    438    452     1  180.0000771  0.3347200  3
    444    439   1289   1290     1  0.0000000  8.3680000  1
    444    439   1289   1290     1  180.0000771  10.4600000  2
    445    434    433    458     1  0.0000000  0.6508444  3
    445    434    436    449     1  0.0000000  0.6508444  3
    445    434    436    450     1  0.0000000  0.6508444  3
    446    434    433    458     1  0.0000000  0.6508444  3
    446    434    436    449     1  0.0000000  0.6508444  3
    446    434    436    450     1  0.0000000  0.6508444  3
    447    435    433    458     1  0.0000000  0.6508444  3
    447    435    438    451     1  0.0000000  0.6508444  3
    447    435    438    452     1  0.0000000  0.6508444  3
    448    435    433    458     1  0.0000000  0.6508444  3
    448    435    438    451     1  0.0000000  0.6508444  3
    448    435    438    452     1  0.0000000  0.6508444  3
    449    436    437   1215     1  180.0000771  0.0000000  2
    450    436    437   1215     1  180.0000771  0.0000000  2
    451    438    439   1289     1  180.0000771  0.0000000  2
    452    438    439   1289     1  180.0000771  0.0000000  2
    453    440    433    458     1  0.0000000  0.6508444  3
    453    440    441    455     1  0.0000000  0.6508444  3
    453    440    441    456     1  0.0000000  0.6508444  3
    454    440    433    458     1  0.0000000  0.6508444  3
    454    440    441    455     1  0.0000000  0.6508444  3
    454    440    441    456     1  0.0000000  0.6508444  3
    455    441    442    457     1  0.0000000  0.0000000  2
    456    441    442    457     1  0.0000000  0.0000000  2
    459    460    462    475     1  0.0000000  0.6508444  3
    459    460    462    476     1  0.0000000  0.6508444  3
    459    461    464    477     1  0.0000000  0.6508444  3
    459    461    464    478     1  0.0000000  0.6508444  3
    459    466    467    481     1  0.0000000  0.6508444  3
    459    466    467    482     1  0.0000000  0.6508444  3
    460    459    461    473     1  0.0000000  0.6508444  3
    460    459    461    474     1  0.0000000  0.6508444  3
    460    459    466    479     1  0.0000000  0.6508444  3
    460    459    466    480     1  0.0000000  0.6508444  3
    461    459    460    471     1  0.0000000  0.6508444  3
    461    459    460    472     1  0.0000000  0.6508444  3
    461    459    466    479     1  0.0000000  0.6508444  3
    461    459    466    480     1  0.0000000  0.6508444  3
    462    460    459    484     1  0.0000000  0.6508444  3
    462    463   1363   1364     1  180.0000771  10.4600000  2
    463    462    460    471     1  0.0000000  0.6508444  3
    463    462    460    472     1  0.0000000  0.6508444  3
    463   1363   1365   1366     1  0.0000000  0.0000000  2
    463   1363   1365   1368     1  0.0000000  0.0000000  2
    464    461    459    484     1  0.0000000  0.6508444  3
    464    465   1437   1438     1  180.0000771  10.4600000  2
    465    464    461    473     1  0.0000000  0.6508444  3
    465    464    461    474     1  0.0000000  0.6508444  3
    465   1437   1439   1440     1  0.0000000  0.0000000  2
    465   1437   1439   1442     1  0.0000000  0.0000000  2
    466    459    460    471     1  0.0000000  0.6508444  3
    466    459    460    472     1  0.0000000  0.6508444  3
    466    459    461    473     1  0.0000000  0.6508444  3
    466    459    461    474     1  0.0000000  0.6508444  3
    466    467    468    483     1  0.0000000  0.0000000  2
    467    466    459    484     1  0.0000000  0.6508444  3
    468    467    466    479     1  0.0000000  0.6508444  3
    468    467    466    480     1  0.0000000  0.6508444  3
    469    463    462    475     1  0.0000000  3.3472000  1
    469    463    462    475     1  0.0000000  0.0000000  2
    469    463    462    475     1  180.0000771  0.3347200  3
    469    463    462    476     1  0.0000000  3.3472000  1
    469    463    462    476     1  0.0000000  0.0000000  2
    469    463    462    476     1  180.0000771  0.3347200  3
    469    463   1363   1364     1  0.0000000  8.3680000  1
    469    463   1363   1364     1  180.0000771  10.4600000  2
    470    465    464    477     1  0.0000000  3.3472000  1
    470    465    464    477     1  0.0000000  0.0000000  2
    470    465    464    477     1  180.0000771  0.3347200  3
    470    465    464    478     1  0.0000000  3.3472000  1
    470    465    464    478     1  0.0000000  0.0000000  2
    470    465    464    478     1  180.0000771  0.3347200  3
    470    465   1437   1438     1  0.0000000  8.3680000  1
    470    465   1437   1438     1  180.0000771  10.4600000  2
    471    460    459    484     1  0.0000000  0.6508444  3
    471    460    462    475     1  0.0000000  0.6508444  3
    471    460    462    476     1  0.0000000  0.6508444  3
    472    460    459    484     1  0.0000000  0.6508444  3
    472    460    462    475     1  0.0000000  0.6508444  3
    472    460    462    476     1  0.0000000  0.6508444  3
    473    461    459    484     1  0.0000000  0.6508444  3
    473    461    464    477     1  0.0000000  0.6508444  3
    473    461    464    478     1  0.0000000  0.6508444  3
    474    461    459    484     1  0.0000000  0.6508444  3
    474    461    464    477     1  0.0000000  0.6508444  3
    474    461    464    478     1  0.0000000  0.6508444  3
    475    462    463   1363     1  180.0000771  0.0000000  2
    476    462    463   1363     1  180.0000771  0.0000000  2
    477    464    465   1437     1  180.0000771  0.0000000  2
    478    464    465   1437     1  180.0000771  0.0000000  2
    479    466    459    484     1  0.0000000  0.6508444  3
    479    466    467    481     1  0.0000000  0.6508444  3
    479    466    467    482     1  0.0000000  0.6508444  3
    480    466    459    484     1  0.0000000  0.6508444  3
    480    466    467    481     1  0.0000000  0.6508444  3
    480    466    467    482     1  0.0000000  0.6508444  3
    481    467    468    483     1  0.0000000  0.0000000  2
    482    467    468    483     1  0.0000000  0.0000000  2
    485    486    488    501     1  0.0000000  0.6508444  3
    485    486    488    502     1  0.0000000  0.6508444  3
    485    487    490    503     1  0.0000000  0.6508444  3
    485    487    490    504     1  0.0000000  0.6508444  3
    485    492    493    507     1  0.0000000  0.6508444  3
    485    492    493    508     1  0.0000000  0.6508444  3
    486    485    487    499     1  0.0000000  0.6508444  3
    486    485    487    500     1  0.0000000  0.6508444  3
    486    485    492    505     1  0.0000000  0.6508444  3
    486    485    492    506     1  0.0000000  0.6508444  3
    487    485    486    497     1  0.0000000  0.6508444  3
    487    485    486    498     1  0.0000000  0.6508444  3
    487    485    492    505     1  0.0000000  0.6508444  3
    487    485    492    506     1  0.0000000  0.6508444  3
    488    486    485    510     1  0.0000000  0.6508444  3
    488    489   1511   1512     1  180.0000771  10.4600000  2
    489    488    486    497     1  0.0000000  0.6508444  3
    489    488    486    498     1  0.0000000  0.6508444  3
    489   1511   1513   1514     1  0.0000000  0.0000000  2
    489   1511   1513   1516     1  0.0000000  0.0000000  2
    490    487    485    510     1  0.0000000  0.6508444  3
    490    491   1585   1586     1  180.0000771  10.4600000  2
    491    490    487    499     1  0.0000000  0.6508444  3
    491    490    487    500     1  0.0000000  0.6508444  3
    491   1585   1587   1588     1  0.0000000  0.0000000  2
    491   1585   1587   1590     1  0.0000000  0.0000000  2
    492    485    486    497     1  0.0000000  0.6508444  3
    492    485    486    498     1  0.0000000  0.6508444  3
    492    485    487    499     1  0.0000000  0.6508444  3
    492    485    487    500     1  0.0000000  0.6508444  3
    492    493    494    509     1  0.0000000  0.0000000  2
    493    492    485    510     1  0.0000000  0.6508444  3
    494    493    492    505     1  0.0000000  0.6508444  3
    494    493    492    506     1  0.0000000  0.6508444  3
    495    489    488    501     1  0.0000000  3.3472000  1
    495    489    488    501     1  0.0000000  0.0000000  2
    495    489    488    501     1  180.0000771  0.3347200  3
    495    489    488    502     1  0.0000000  3.3472000  1
    495    489    488    502     1  0.0000000  0.0000000  2
    495    489    488    502     1  180.0000771  0.3347200  3
    495    489   1511   1512     1  0.0000000  8.3680000  1
    495    489   1511   1512     1  180.0000771  10.4600000  2
    496    491    490    503     1  0.0000000  3.3472000  1
    496    491    490    503     1  0.0000000  0.0000000  2
    496    491    490    503     1  180.0000771  0.3347200  3
    496    491    490    504     1  0.0000000  3.3472000  1
    496    491    490    504     1  0.0000000  0.0000000  2
    496    491    490    504     1  180.0000771  0.3347200  3
    496    491   1585   1586     1  0.0000000  8.3680000  1
    496    491   1585   1586     1  180.0000771  10.4600000  2
    497    486    485    510     1  0.0000000  0.6508444  3
    497    486    488    501     1  0.0000000  0.6508444  3
    497    486    488    502     1  0.0000000  0.6508444  3
    498    486    485    510     1  0.0000000  0.6508444  3
    498    486    488    501     1  0.0000000  0.6508444  3
    498    486    488    502     1  0.0000000  0.6508444  3
    499    487    485    510     1  0.0000000  0.6508444  3
    499    487    490    503     1  0.0000000  0.6508444  3
    499    487    490    504     1  0.0000000  0.6508444  3
    500    487    485    510     1  0.0000000  0.6508444  3
    500    487    490    503     1  0.0000000  0.6508444  3
    500    487    490    504     1  0.0000000  0.6508444  3
    501    488    489   1511     1  180.0000771  0.0000000  2
    502    488    489   1511     1  180.0000771  0.0000000  2
    503    490    491   1585     1  180.0000771  0.0000000  2
    504    490    491   1585     1  180.0000771  0.0000000  2
    505    492    485    510     1  0.0000000  0.6508444  3
    505    492    493    507     1  0.0000000  0.6508444  3
    505    492    493    508     1  0.0000000  0.6508444  3
    506    492    485    510     1  0.0000000  0.6508444  3
    506    492    493    507     1  0.0000000  0.6508444  3
    506    492    493    508     1  0.0000000  0.6508444  3
    507    493    494    509     1  0.0000000  0.0000000  2
    508    493    494    509     1  0.0000000  0.0000000  2
    511    512    514    527     1  0.0000000  0.6508444  3
    511    512    514    528     1  0.0000000  0.6508444  3
    511    513    516    529     1  0.0000000  0.6508444  3
    511    513    516    530     1  0.0000000  0.6508444  3
    511    518    519    533     1  0.0000000  0.6508444  3
    511    518    519    534     1  0.0000000  0.6508444  3
    512    511    513    525     1  0.0000000  0.6508444  3
    512    511    513    526     1  0.0000000  0.6508444  3
    512    511    518    531     1  0.0000000  0.6508444  3
    512    511    518    532     1  0.0000000  0.6508444  3
    513    511    512    523     1  0.0000000  0.6508444  3
    513    511    512    524     1  0.0000000  0.6508444  3
    513    511    518    531     1  0.0000000  0.6508444  3
    513    511    518    532     1  0.0000000  0.6508444  3
    514    512    511    536     1  0.0000000  0.6508444  3
    514    515   1659   1660     1  180.0000771  10.4600000  2
    515    514    512    523     1  0.0000000  0.6508444  3
    515    514    512    524     1  0.0000000  0.6508444  3
    515   1659   1661   1662     1  0.0000000  0.0000000  2
    515   1659   1661   1664     1  0.0000000  0.0000000  2
    516    513    511    536     1  0.0000000  0.6508444  3
    516    517   1733   1734     1  180.0000771  10.4600000  2
    517    516    513    525     1  0.0000000  0.6508444  3
    517    516    513    526     1  0.0000000  0.6508444  3
    517   1733   1735   1736     1  0.0000000  0.0000000  2
    517   1733   1735   1738     1  0.0000000  0.0000000  2
    518    511    512    523     1  0.0000000  0.6508444  3
    518    511    512    524     1  0.0000000  0.6508444  3
    518    511    513    525     1  0.0000000  0.6508444  3
    518    511    513    526     1  0.0000000  0.6508444  3
    518    519    520    535     1  0.0000000  0.0000000  2
    519    518    511    536     1  0.0000000  0.6508444  3
    520    519    518    531     1  0.0000000  0.6508444  3
    520    519    518    532     1  0.0000000  0.6508444  3
    521    515    514    527     1  0.0000000  3.3472000  1
    521    515    514    527     1  0.0000000  0.0000000  2
    521    515    514    527     1  180.0000771  0.3347200  3
    521    515    514    528     1  0.0000000  3.3472000  1
    521    515    514    528     1  0.0000000  0.0000000  2
    521    515    514    528     1  180.0000771  0.3347200  3
    521    515   1659   1660     1  0.0000000  8.3680000  1
    521    515   1659   1660     1  180.0000771  10.4600000  2
    522    517    516    529     1  0.0000000  3.3472000  1
    522    517    516    529     1  0.0000000  0.0000000  2
    522    517    516    529     1  180.0000771  0.3347200  3
    522    517    516    530     1  0.0000000  3.3472000  1
    522    517    516    530     1  0.0000000  0.0000000  2
    522    517    516    530     1  180.0000771  0.3347200  3
    522    517   1733   1734     1  0.0000000  8.3680000  1
    522    517   1733   1734     1  180.0000771  10.4600000  2
    523    512    511    536     1  0.0000000  0.6508444  3
    523    512    514    527     1  0.0000000  0.6508444  3
    523    512    514    528     1  0.0000000  0.6508444  3
    524    512    511    536     1  0.0000000  0.6508444  3
    524    512    514    527     1  0.0000000  0.6508444  3
    524    512    514    528     1  0.0000000  0.6508444  3
    525    513    511    536     1  0.0000000  0.6508444  3
    525    513    516    529     1  0.0000000  0.6508444  3
    525    513    516    530     1  0.0000000  0.6508444  3
    526    513    511    536     1  0.0000000  0.6508444  3
    526    513    516    529     1  0.0000000  0.6508444  3
    526    513    516    530     1  0.0000000  0.6508444  3
    527    514    515   1659     1  180.0000771  0.0000000  2
    528    514    515   1659     1  180.0000771  0.0000000  2
    529    516    517   1733     1  180.0000771  0.0000000  2
    530    516    517   1733     1  180.0000771  0.0000000  2
    531    518    511    536     1  0.0000000  0.6508444  3
    531    518    519    533     1  0.0000000  0.6508444  3
    531    518    519    534     1  0.0000000  0.6508444  3
    532    518    511    536     1  0.0000000  0.6508444  3
    532    518    519    533     1  0.0000000  0.6508444  3
    532    518    519    534     1  0.0000000  0.6508444  3
    533    519    520    535     1  0.0000000  0.0000000  2
    534    519    520    535     1  0.0000000  0.0000000  2
    537    538    540    553     1  0.0000000  0.6508444  3
    537    538    540    554     1  0.0000000  0.6508444  3
    537    539    542    555     1  0.0000000  0.6508444  3
    537    539    542    556     1  0.0000000  0.6508444  3
    537    544    545    559     1  0.0000000  0.6508444  3
    537    544    545    560     1  0.0000000  0.6508444  3
    538    537    539    551     1  0.0000000  0.6508444  3
    538    537    539    552     1  0.0000000  0.6508444  3
    538    537    544    557     1  0.0000000  0.6508444  3
    538    537    544    558     1  0.0000000  0.6508444  3
    539    537    538    549     1  0.0000000  0.6508444  3
    539    537    538    550     1  0.0000000  0.6508444  3
    539    537    544    557     1  0.0000000  0.6508444  3
    539    537    544    558     1  0.0000000  0.6508444  3
    540    538    537    562     1  0.0000000  0.6508444  3
    540    541   1807   1808     1  180.0000771  10.4600000  2
    541    540    538    549     1  0.0000000  0.6508444  3
    541    540    538    550     1  0.0000000  0.6508444  3
    541   1807   1809   1810     1  0.0000000  0.0000000  2
    541   1807   1809   1812     1  0.0000000  0.0000000  2
    542    539    537    562     1  0.0000000  0.6508444  3
    542    543   1881   1882     1  180.0000771  10.4600000  2
    543    542    539    551     1  0.0000000  0.6508444  3
    543    542    539    552     1  0.0000000  0.6508444  3
    543   1881   1883   1884     1  0.0000000  0.0000000  2
    543   1881   1883   1886     1  0.0000000  0.0000000  2
    544    537    538    549     1  0.0000000  0.6508444  3
    544    537    538    550     1  0.0000000  0.6508444  3
    544    537    539    551     1  0.0000000  0.6508444  3
    544    537    539    552     1  0.0000000  0.6508444  3
    544    545    546    561     1  0.0000000  0.0000000  2
    545    544    537    562     1  0.0000000  0.6508444  3
    546    545    544    557     1  0.0000000  0.6508444  3
    546    545    544    558     1  0.0000000  0.6508444  3
    547    541    540    553     1  0.0000000  3.3472000  1
    547    541    540    553     1  0.0000000  0.0000000  2
    547    541    540    553     1  180.0000771  0.3347200  3
    547    541    540    554     1  0.0000000  3.3472000  1
    547    541    540    554     1  0.0000000  0.0000000  2
    547    541    540    554     1  180.0000771  0.3347200  3
    547    541   1807   1808     1  0.0000000  8.3680000  1
    547    541   1807   1808     1  180.0000771  10.4600000  2
    548    543    542    555     1  0.0000000  3.3472000  1
    548    543    542    555     1  0.0000000  0.0000000  2
    548    543    542    555     1  180.0000771  0.3347200  3
    548    543    542    556     1  0.0000000  3.3472000  1
    548    543    542    556     1  0.0000000  0.0000000  2
    548    543    542    556     1  180.0000771  0.3347200  3
    548    543   1881   1882     1  0.0000000  8.3680000  1
    548    543   1881   1882     1  180.0000771  10.4600000  2
    549    538    537    562     1  0.0000000  0.6508444  3
    549    538    540    553     1  0.0000000  0.6508444  3
    549    538    540    554     1  0.0000000  0.6508444  3
    550    538    537    562     1  0.0000000  0.6508444  3
    550    538    540    553     1  0.0000000  0.6508444  3
    550    538    540    554     1  0.0000000  0.6508444  3
    551    539    537    562     1  0.0000000  0.6508444  3
    551    539    542    555     1  0.0000000  0.6508444  3
    551    539    542    556     1  0.0000000  0.6508444  3
    552    539    537    562     1  0.0000000  0.6508444  3
    552    539    542    555     1  0.0000000  0.6508444  3
    552    539    542    556     1  0.0000000  0.6508444  3
    553    540    541   1807     1  180.0000771  0.0000000  2
    554    540    541   1807     1  180.0000771  0.0000000  2
    555    542    543   1881     1  180.0000771  0.0000000  2
    556    542    543   1881     1  180.0000771  0.0000000  2
    557    544    537    562     1  0.0000000  0.6508444  3
    557    544    545    559     1  0.0000000  0.6508444  3
    557    544    545    560     1  0.0000000  0.6508444  3
    558    544    537    562     1  0.0000000  0.6508444  3
    558    544    545    559     1  0.0000000  0.6508444  3
    558    544    545    560     1  0.0000000  0.6508444  3
    559    545    546    561     1  0.0000000  0.0000000  2
    560    545    546    561     1  0.0000000  0.0000000  2
    563    564    566    579     1  0.0000000  0.6508444  3
    563    564    566    580     1  0.0000000  0.6508444  3
    563    565    568    581     1  0.0000000  0.6508444  3
    563    565    568    582     1  0.0000000  0.6508444  3
    563    570    571    585     1  0.0000000  0.6508444  3
    563    570    571    586     1  0.0000000  0.6508444  3
    564    563    565    577     1  0.0000000  0.6508444  3
    564    563    565    578     1  0.0000000  0.6508444  3
    564    563    570    583     1  0.0000000  0.6508444  3
    564    563    570    584     1  0.0000000  0.6508444  3
    565    563    564    575     1  0.0000000  0.6508444  3
    565    563    564    576     1  0.0000000  0.6508444  3
    565    563    570    583     1  0.0000000  0.6508444  3
    565    563    570    584     1  0.0000000  0.6508444  3
    566    564    563    588     1  0.0000000  0.6508444  3
    566    567   1955   1956     1  180.0000771  10.4600000  2
    567    566    564    575     1  0.0000000  0.6508444  3
    567    566    564    576     1  0.0000000  0.6508444  3
    567   1955   1957   1958     1  0.0000000  0.0000000  2
    567   1955   1957   1960     1  0.0000000  0.0000000  2
    568    565    563    588     1  0.0000000  0.6508444  3
    568    569   2029   2030     1  180.0000771  10.4600000  2
    569    568    565    577     1  0.0000000  0.6508444  3
    569    568    565    578     1  0.0000000  0.6508444  3
    569   2029   2031   2032     1  0.0000000  0.0000000  2
    569   2029   2031   2034     1  0.0000000  0.0000000  2
    570    563    564    575     1  0.0000000  0.6508444  3
    570    563    564    576     1  0.0000000  0.6508444  3
    570    563    565    577     1  0.0000000  0.6508444  3
    570    563    565    578     1  0.0000000  0.6508444  3
    570    571    572    587     1  0.0000000  0.0000000  2
    571    570    563    588     1  0.0000000  0.6508444  3
    572    571    570    583     1  0.0000000  0.6508444  3
    572    571    570    584     1  0.0000000  0.6508444  3
    573    567    566    579     1  0.0000000  3.3472000  1
    573    567    566    579     1  0.0000000  0.0000000  2
    573    567    566    579     1  180.0000771  0.3347200  3
    573    567    566    580     1  0.0000000  3.3472000  1
    573    567    566    580     1  0.0000000  0.0000000  2
    573    567    566    580     1  180.0000771  0.3347200  3
    573    567   1955   1956     1  0.0000000  8.3680000  1
    573    567   1955   1956     1  180.0000771  10.4600000  2
    574    569    568    581     1  0.0000000  3.3472000  1
    574    569    568    581     1  0.0000000  0.0000000  2
    574    569    568    581     1  180.0000771  0.3347200  3
    574    569    568    582     1  0.0000000  3.3472000  1
    574    569    568    582     1  0.0000000  0.0000000  2
    574    569    568    582     1  180.0000771  0.3347200  3
    574    569   2029   2030     1  0.0000000  8.3680000  1
    574    569   2029   2030     1  180.0000771  10.4600000  2
    575    564    563    588     1  0.0000000  0.6508444  3
    575    564    566    579     1  0.0000000  0.6508444  3
    575    564    566    580     1  0.0000000  0.6508444  3
    576    564    563    588     1  0.0000000  0.6508444  3
    576    564    566    579     1  0.0000000  0.6508444  3
    576    564    566    580     1  0.0000000  0.6508444  3
    577    565    563    588     1  0.0000000  0.6508444  3
    577    565    568    581     1  0.0000000  0.6508444  3
    577    565    568    582     1  0.0000000  0.6508444  3
    578    565    563    588     1  0.0000000  0.6508444  3
    578    565    568    581     1  0.0000000  0.6508444  3
    578    565    568    582     1  0.0000000  0.6508444  3
    579    566    567   1955     1  180.0000771  0.0000000  2
    580    566    567   1955     1  180.0000771  0.0000000  2
    581    568    569   2029     1  180.0000771  0.0000000  2
    582    568    569   2029     1  180.0000771  0.0000000  2
    583    570    563    588     1  0.0000000  0.6508444  3
    583    570    571    585     1  0.0000000  0.6508444  3
    583    570    571    586     1  0.0000000  0.6508444  3
    584    570    563    588     1  0.0000000  0.6508444  3
    584    570    571    585     1  0.0000000  0.6508444  3
    584    570    571    586     1  0.0000000  0.6508444  3
    585    571    572    587     1  0.0000000  0.0000000  2
    586    571    572    587     1  0.0000000  0.0000000  2
    589    590    592    605     1  0.0000000  0.6508444  3
    589    590    592    606     1  0.0000000  0.6508444  3
    589    591    594    607     1  0.0000000  0.6508444  3
    589    591    594    608     1  0.0000000  0.6508444  3
    589    596    597    611     1  0.0000000  0.6508444  3
    589    596    597    612     1  0.0000000  0.6508444  3
    590    589    591    603     1  0.0000000  0.6508444  3
    590    589    591    604     1  0.0000000  0.6508444  3
    590    589    596    609     1  0.0000000  0.6508444  3
    590    589    596    610     1  0.0000000  0.6508444  3
    591    589    590    601     1  0.0000000  0.6508444  3
    591    589    590    602     1  0.0000000  0.6508444  3
    591    589    596    609     1  0.0000000  0.6508444  3
    591    589    596    610     1  0.0000000  0.6508444  3
    592    590    589    614     1  0.0000000  0.6508444  3
    592    593   2103   2104     1  180.0000771  10.4600000  2
    593    592    590    601     1  0.0000000  0.6508444  3
    593    592    590    602     1  0.0000000  0.6508444  3
    593   2103   2105   2106     1  0.0000000  0.0000000  2
    593   2103   2105   2108     1  0.0000000  0.0000000  2
    594    591    589    614     1  0.0000000  0.6508444  3
    594    595   2177   2178     1  180.0000771  10.4600000  2
    595    594    591    603     1  0.0000000  0.6508444  3
    595    594    591    604     1  0.0000000  0.6508444  3
    595   2177   2179   2180     1  0.0000000  0.0000000  2
    595   2177   2179   2182     1  0.0000000  0.0000000  2
    596    589    590    601     1  0.0000000  0.6508444  3
    596    589    590    602     1  0.0000000  0.6508444  3
    596    589    591    603     1  0.0000000  0.6508444  3
    596    589    591    604     1  0.0000000  0.6508444  3
    596    597    598    613     1  0.0000000  0.0000000  2
    597    596    589    614     1  0.0000000  0.6508444  3
    598    597    596    609     1  0.0000000  0.6508444  3
    598    597    596    610     1  0.0000000  0.6508444  3
    599    593    592    605     1  0.0000000  3.3472000  1
    599    593    592    605     1  0.0000000  0.0000000  2
    599    593    592    605     1  180.0000771  0.3347200  3
    599    593    592    606     1  0.0000000  3.3472000  1
    599    593    592    606     1  0.0000000  0.0000000  2
    599    593    592    606     1  180.0000771  0.3347200  3
    599    593   2103   2104     1  0.0000000  8.3680000  1
    599    593   2103   2104     1  180.0000771  10.4600000  2
    600    595    594    607     1  0.0000000  3.3472000  1
    600    595    594    607     1  0.0000000  0.0000000  2
    600    595    594    607     1  180.0000771  0.3347200  3
    600    595    594    608     1  0.0000000  3.3472000  1
    600    595    594    608     1  0.0000000  0.0000000  2
    600    595    594    608     1  180.0000771  0.3347200  3
    600    595   2177   2178     1  0.0000000  8.3680000  1
    600    595   2177   2178     1  180.0000771  10.4600000  2
    601    590    589    614     1  0.0000000  0.6508444  3
    601    590    592    605     1  0.0000000  0.6508444  3
    601    590    592    606     1  0.0000000  0.6508444  3
    602    590    589    614     1  0.0000000  0.6508444  3
    602    590    592    605     1  0.0000000  0.6508444  3
    602    590    592    606     1  0.0000000  0.6508444  3
    603    591    589    614     1  0.0000000  0.6508444  3
    603    591    594    607     1  0.0000000  0.6508444  3
    603    591    594    608     1  0.0000000  0.6508444  3
    604    591    589    614     1  0.0000000  0.6508444  3
    604    591    594    607     1  0.0000000  0.6508444  3
    604    591    594    608     1  0.0000000  0.6508444  3
    605    592    593   2103     1  180.0000771  0.0000000  2
    606    592    593   2103     1  180.0000771  0.0000000  2
    607    594    595   2177     1  180.0000771  0.0000000  2
    608    594    595   2177     1  180.0000771  0.0000000  2
    609    596    589    614     1  0.0000000  0.6508444  3
    609    596    597    611     1  0.0000000  0.6508444  3
    609    596    597    612     1  0.0000000  0.6508444  3
    610    596    589    614     1  0.0000000  0.6508444  3
    610    596    597    611     1  0.0000000  0.6508444  3
    610    596    597    612     1  0.0000000  0.6508444  3
    611    597    598    613     1  0.0000000  0.0000000  2
    612    597    598    613     1  0.0000000  0.0000000  2
    615    616    618    631     1  0.0000000  0.6508444  3
    615    616    618    632     1  0.0000000  0.6508444  3
    615    617    620    633     1  0.0000000  0.6508444  3
    615    617    620    634     1  0.0000000  0.6508444  3
    615    622    623    637     1  0.0000000  0.6508444  3
    615    622    623    638     1  0.0000000  0.6508444  3
    616    615    617    629     1  0.0000000  0.6508444  3
    616    615    617    630     1  0.0000000  0.6508444  3
    616    615    622    635     1  0.0000000  0.6508444  3
    616    615    622    636     1  0.0000000  0.6508444  3
    617    615    616    627     1  0.0000000  0.6508444  3
    617    615    616    628     1  0.0000000  0.6508444  3
    617    615    622    635     1  0.0000000  0.6508444  3
    617    615    622    636     1  0.0000000  0.6508444  3
    618    616    615    640     1  0.0000000  0.6508444  3
    618    619   2251   2252     1  180.0000771  10.4600000  2
    619    618    616    627     1  0.0000000  0.6508444  3
    619    618    616    628     1  0.0000000  0.6508444  3
    619   2251   2253   2254     1  0.0000000  0.0000000  2
    619   2251   2253   2256     1  0.0000000  0.0000000  2
    620    617    615    640     1  0.0000000  0.6508444  3
    620    621   2325   2326     1  180.0000771  10.4600000  2
    621    620    617    629     1  0.0000000  0.6508444  3
    621    620    617    630     1  0.0000000  0.6508444  3
    621   2325   2327   2328     1  0.0000000  0.0000000  2
    621   2325   2327   2330     1  0.0000000  0.0000000  2
    622    615    616    627     1  0.0000000  0.6508444  3
    622    615    616    628     1  0.0000000  0.6508444  3
    622    615    617    629     1  0.0000000  0.6508444  3
    622    615    617    630     1  0.0000000  0.6508444  3
    622    623    624    639     1  0.0000000  0.0000000  2
    623    622    615    640     1  0.0000000  0.6508444  3
    624    623    622    635     1  0.0000000  0.6508444  3
    624    623    622    636     1  0.0000000  0.6508444  3
    625    619    618    631     1  0.0000000  3.3472000  1
    625    619    618    631     1  0.0000000  0.0000000  2
    625    619    618    631     1  180.0000771  0.3347200  3
    625    619    618    632     1  0.0000000  3.3472000  1
    625    619    618    632     1  0.0000000  0.0000000  2
    625    619    618    632     1  180.0000771  0.3347200  3
    625    619   2251   2252     1  0.0000000  8.3680000  1
    625    619   2251   2252     1  180.0000771  10.4600000  2
    626    621    620    633     1  0.0000000  3.3472000  1
    626    621    620    633     1  0.0000000  0.0000000  2
    626    621    620    633     1  180.0000771  0.3347200  3
    626    621    620    634     1  0.0000000  3.3472000  1
    626    621    620    634     1  0.0000000  0.0000000  2
    626    621    620    634     1  180.0000771  0.3347200  3
    626    621   2325   2326     1  0.0000000  8.3680000  1
    626    621   2325   2326     1  180.0000771  10.4600000  2
    627    616    615    640     1  0.0000000  0.6508444  3
    627    616    618    631     1  0.0000000  0.6508444  3
    627    616    618    632     1  0.0000000  0.6508444  3
    628    616    615    640     1  0.0000000  0.6508444  3
    628    616    618    631     1  0.0000000  0.6508444  3
    628    616    618    632     1  0.0000000  0.6508444  3
    629    617    615    640     1  0.0000000  0.6508444  3
    629    617    620    633     1  0.0000000  0.6508444  3
    629    617    620    634     1  0.0000000  0.6508444  3
    630    617    615    640     1  0.0000000  0.6508444  3
    630    617    620    633     1  0.0000000  0.6508444  3
    630    617    620    634     1  0.0000000  0.6508444  3
    631    618    619   2251     1  180.0000771  0.0000000  2
    632    618    619   2251     1  180.0000771  0.0000000  2
    633    620    621   2325     1  180.0000771  0.0000000  2
    634    620    621   2325     1  180.0000771  0.0000000  2
    635    622    615    640     1  0.0000000  0.6508444  3
    635    622    623    637     1  0.0000000  0.6508444  3
    635    622    623    638     1  0.0000000  0.6508444  3
    636    622    615    640     1  0.0000000  0.6508444  3
    636    622    623    637     1  0.0000000  0.6508444  3
    636    622    623    638     1  0.0000000  0.6508444  3
    637    623    624    639     1  0.0000000  0.0000000  2
    638    623    624    639     1  0.0000000  0.0000000  2
    641    642    644    657     1  0.0000000  0.6508444  3
    641    642    644    658     1  0.0000000  0.6508444  3
    641    643    646    659     1  0.0000000  0.6508444  3
    641    643    646    660     1  0.0000000  0.6508444  3
    641    648    649    663     1  0.0000000  0.6508444  3
    641    648    649    664     1  0.0000000  0.6508444  3
    642    641    643    655     1  0.0000000  0.6508444  3
    642    641    643    656     1  0.0000000  0.6508444  3
    642    641    648    661     1  0.0000000  0.6508444  3
    642    641    648    662     1  0.0000000  0.6508444  3
    643    641    642    653     1  0.0000000  0.6508444  3
    643    641    642    654     1  0.0000000  0.6508444  3
    643    641    648    661     1  0.0000000  0.6508444  3
    643    641    648    662     1  0.0000000  0.6508444  3
    644    642    641    666     1  0.0000000  0.6508444  3
    644    645   2399   2400     1  180.0000771  10.4600000  2
    645    644    642    653     1  0.0000000  0.6508444  3
    645    644    642    654     1  0.0000000  0.6508444  3
    645   2399   2401   2402     1  0.0000000  0.0000000  2
    645   2399   2401   2404     1  0.0000000  0.0000000  2
    646    643    641    666     1  0.0000000  0.6508444  3
    646    647   2473   2474     1  180.0000771  10.4600000  2
    647    646    643    655     1  0.0000000  0.6508444  3
    647    646    643    656     1  0.0000000  0.6508444  3
    647   2473   2475   2476     1  0.0000000  0.0000000  2
    647   2473   2475   2478     1  0.0000000  0.0000000  2
    648    641    642    653     1  0.0000000  0.6508444  3
    648    641    642    654     1  0.0000000  0.6508444  3
    648    641    643    655     1  0.0000000  0.6508444  3
    648    641    643    656     1  0.0000000  0.6508444  3
    648    649    650    665     1  0.0000000  0.0000000  2
    649    648    641    666     1  0.0000000  0.6508444  3
    650    649    648    661     1  0.0000000  0.6508444  3
    650    649    648    662     1  0.0000000  0.6508444  3
    651    645    644    657     1  0.0000000  3.3472000  1
    651    645    644    657     1  0.0000000  0.0000000  2
    651    645    644    657     1  180.0000771  0.3347200  3
    651    645    644    658     1  0.0000000  3.3472000  1
    651    645    644    658     1  0.0000000  0.0000000  2
    651    645    644    658     1  180.0000771  0.3347200  3
    651    645   2399   2400     1  0.0000000  8.3680000  1
    651    645   2399   2400     1  180.0000771  10.4600000  2
    652    647    646    659     1  0.0000000  3.3472000  1
    652    647    646    659     1  0.0000000  0.0000000  2
    652    647    646    659     1  180.0000771  0.3347200  3
    652    647    646    660     1  0.0000000  3.3472000  1
    652    647    646    660     1  0.0000000  0.0000000  2
    652    647    646    660     1  180.0000771  0.3347200  3
    652    647   2473   2474     1  0.0000000  8.3680000  1
    652    647   2473   2474     1  180.0000771  10.4600000  2
    653    642    641    666     1  0.0000000  0.6508444  3
    653    642    644    657     1  0.0000000  0.6508444  3
    653    642    644    658     1  0.0000000  0.6508444  3
    654    642    641    666     1  0.0000000  0.6508444  3
    654    642    644    657     1  0.0000000  0.6508444  3
    654    642    644    658     1  0.0000000  0.6508444  3
    655    643    641    666     1  0.0000000  0.6508444  3
    655    643    646    659     1  0.0000000  0.6508444  3
    655    643    646    660     1  0.0000000  0.6508444  3
    656    643    641    666     1  0.0000000  0.6508444  3
    656    643    646    659     1  0.0000000  0.6508444  3
    656    643    646    660     1  0.0000000  0.6508444  3
    657    644    645   2399     1  180.0000771  0.0000000  2
    658    644    645   2399     1  180.0000771  0.0000000  2
    659    646    647   2473     1  180.0000771  0.0000000  2
    660    646    647   2473     1  180.0000771  0.0000000  2
    661    648    641    666     1  0.0000000  0.6508444  3
    661    648    649    663     1  0.0000000  0.6508444  3
    661    648    649    664     1  0.0000000  0.6508444  3
    662    648    641    666     1  0.0000000  0.6508444  3
    662    648    649    663     1  0.0000000  0.6508444  3
    662    648    649    664     1  0.0000000  0.6508444  3
    663    649    650    665     1  0.0000000  0.0000000  2
    664    649    650    665     1  0.0000000  0.0000000  2
    667    668    670    683     1  0.0000000  0.6508444  3
    667    668    670    684     1  0.0000000  0.6508444  3
    667    669    672    685     1  0.0000000  0.6508444  3
    667    669    672    686     1  0.0000000  0.6508444  3
    667    674    675    689     1  0.0000000  0.6508444  3
    667    674    675    690     1  0.0000000  0.6508444  3
    668    667    669    681     1  0.0000000  0.6508444  3
    668    667    669    682     1  0.0000000  0.6508444  3
    668    667    674    687     1  0.0000000  0.6508444  3
    668    667    674    688     1  0.0000000  0.6508444  3
    669    667    668    679     1  0.0000000  0.6508444  3
    669    667    668    680     1  0.0000000  0.6508444  3
    669    667    674    687     1  0.0000000  0.6508444  3
    669    667    674    688     1  0.0000000  0.6508444  3
    670    668    667    692     1  0.0000000  0.6508444  3
    670    671   2547   2548     1  180.0000771  10.4600000  2
    671    670    668    679     1  0.0000000  0.6508444  3
    671    670    668    680     1  0.0000000  0.6508444  3
    671   2547   2549   2550     1  0.0000000  0.0000000  2
    671   2547   2549   2552     1  0.0000000  0.0000000  2
    672    669    667    692     1  0.0000000  0.6508444  3
    672    673   2621   2622     1  180.0000771  10.4600000  2
    673    672    669    681     1  0.0000000  0.6508444  3
    673    672    669    682     1  0.0000000  0.6508444  3
    673   2621   2623   2624     1  0.0000000  0.0000000  2
    673   2621   2623   2626     1  0.0000000  0.0000000  2
    674    667    668    679     1  0.0000000  0.6508444  3
    674    667    668    680     1  0.0000000  0.6508444  3
    674    667    669    681     1  0.0000000  0.6508444  3
    674    667    669    682     1  0.0000000  0.6508444  3
    674    675    676    691     1  0.0000000  0.0000000  2
    675    674    667    692     1  0.0000000  0.6508444  3
    676    675    674    687     1  0.0000000  0.6508444  3
    676    675    674    688     1  0.0000000  0.6508444  3
    677    671    670    683     1  0.0000000  3.3472000  1
    677    671    670    683     1  0.0000000  0.0000000  2
    677    671    670    683     1  180.0000771  0.3347200  3
    677    671    670    684     1  0.0000000  3.3472000  1
    677    671    670    684     1  0.0000000  0.0000000  2
    677    671    670    684     1  180.0000771  0.3347200  3
    677    671   2547   2548     1  0.0000000  8.3680000  1
    677    671   2547   2548     1  180.0000771  10.4600000  2
    678    673    672    685     1  0.0000000  3.3472000  1
    678    673    672    685     1  0.0000000  0.0000000  2
    678    673    672    685     1  180.0000771  0.3347200  3
    678    673    672    686     1  0.0000000  3.3472000  1
    678    673    672    686     1  0.0000000  0.0000000  2
    678    673    672    686     1  180.0000771  0.3347200  3
    678    673   2621   2622     1  0.0000000  8.3680000  1
    678    673   2621   2622     1  180.0000771  10.4600000  2
    679    668    667    692     1  0.0000000  0.6508444  3
    679    668    670    683     1  0.0000000  0.6508444  3
    679    668    670    684     1  0.0000000  0.6508444  3
    680    668    667    692     1  0.0000000  0.6508444  3
    680    668    670    683     1  0.0000000  0.6508444  3
    680    668    670    684     1  0.0000000  0.6508444  3
    681    669    667    692     1  0.0000000  0.6508444  3
    681    669    672    685     1  0.0000000  0.6508444  3
    681    669    672    686     1  0.0000000  0.6508444  3
    682    669    667    692     1  0.0000000  0.6508444  3
    682    669    672    685     1  0.0000000  0.6508444  3
    682    669    672    686     1  0.0000000  0.6508444  3
    683    670    671   2547     1  180.0000771  0.0000000  2
    684    670    671   2547     1  180.0000771  0.0000000  2
    685    672    673   2621     1  180.0000771  0.0000000  2
    686    672    673   2621     1  180.0000771  0.0000000  2
    687    674    667    692     1  0.0000000  0.6508444  3
    687    674    675    689     1  0.0000000  0.6508444  3
    687    674    675    690     1  0.0000000  0.6508444  3
    688    674    667    692     1  0.0000000  0.6508444  3
    688    674    675    689     1  0.0000000  0.6508444  3
    688    674    675    690     1  0.0000000  0.6508444  3
    689    675    676    691     1  0.0000000  0.0000000  2
    690    675    676    691     1  0.0000000  0.0000000  2
    693    694    696    709     1  0.0000000  0.6508444  3
    693    694    696    710     1  0.0000000  0.6508444  3
    693    695    698    711     1  0.0000000  0.6508444  3
    693    695    698    712     1  0.0000000  0.6508444  3
    693    700    701    715     1  0.0000000  0.6508444  3
    693    700    701    716     1  0.0000000  0.6508444  3
    694    693    695    707     1  0.0000000  0.6508444  3
    694    693    695    708     1  0.0000000  0.6508444  3
    694    693    700    713     1  0.0000000  0.6508444  3
    694    693    700    714     1  0.0000000  0.6508444  3
    695    693    694    705     1  0.0000000  0.6508444  3
    695    693    694    706     1  0.0000000  0.6508444  3
    695    693    700    713     1  0.0000000  0.6508444  3
    695    693    700    714     1  0.0000000  0.6508444  3
    696    694    693    718     1  0.0000000  0.6508444  3
    696    697   2695   2696     1  180.0000771  10.4600000  2
    697    696    694    705     1  0.0000000  0.6508444  3
    697    696    694    706     1  0.0000000  0.6508444  3
    697   2695   2697   2698     1  0.0000000  0.0000000  2
    697   2695   2697   2700     1  0.0000000  0.0000000  2
    698    695    693    718     1  0.0000000  0.6508444  3
    698    699   2769   2770     1  180.0000771  10.4600000  2
    699    698    695    707     1  0.0000000  0.6508444  3
    699    698    695    708     1  0.0000000  0.6508444  3
    699   2769   2771   2772     1  0.0000000  0.0000000  2
    699   2769   2771   2774     1  0.0000000  0.0000000  2
    700    693    694    705     1  0.0000000  0.6508444  3
    700    693    694    706     1  0.0000000  0.6508444  3
    700    693    695    707     1  0.0000000  0.6508444  3
    700    693    695    708     1  0.0000000  0.6508444  3
    700    701    702    717     1  0.0000000  0.0000000  2
    701    700    693    718     1  0.0000000  0.6508444  3
    702    701    700    713     1  0.0000000  0.6508444  3
    702    701    700    714     1  0.0000000  0.6508444  3
    703    697    696    709     1  0.0000000  3.3472000  1
    703    697    696    709     1  0.0000000  0.0000000  2
    703    697    696    709     1  180.0000771  0.3347200  3
    703    697    696    710     1  0.0000000  3.3472000  1
    703    697    696    710     1  0.0000000  0.0000000  2
    703    697    696    710     1  180.0000771  0.3347200  3
    703    697   2695   2696     1  0.0000000  8.3680000  1
    703    697   2695   2696     1  180.0000771  10.4600000  2
    704    699    698    711     1  0.0000000  3.3472000  1
    704    699    698    711     1  0.0000000  0.0000000  2
    704    699    698    711     1  180.0000771  0.3347200  3
    704    699    698    712     1  0.0000000  3.3472000  1
    704    699    698    712     1  0.0000000  0.0000000  2
    704    699    698    712     1  180.0000771  0.3347200  3
    704    699   2769   2770     1  0.0000000  8.3680000  1
    704    699   2769   2770     1  180.0000771  10.4600000  2
    705    694    693    718     1  0.0000000  0.6508444  3
    705    694    696    709     1  0.0000000  0.6508444  3
    705    694    696    710     1  0.0000000  0.6508444  3
    706    694    693    718     1  0.0000000  0.6508444  3
    706    694    696    709     1  0.0000000  0.6508444  3
    706    694    696    710     1  0.0000000  0.6508444  3
    707    695    693    718     1  0.0000000  0.6508444  3
    707    695    698    711     1  0.0000000  0.6508444  3
    707    695    698    712     1  0.0000000  0.6508444  3
    708    695    693    718     1  0.0000000  0.6508444  3
    708    695    698    711     1  0.0000000  0.6508444  3
    708    695    698    712     1  0.0000000  0.6508444  3
    709    696    697   2695     1  180.0000771  0.0000000  2
    710    696    697   2695     1  180.0000771  0.0000000  2
    711    698    699   2769     1  180.0000771  0.0000000  2
    712    698    699   2769     1  180.0000771  0.0000000  2
    713    700    693    718     1  0.0000000  0.6508444  3
    713    700    701    715     1  0.0000000  0.6508444  3
    713    700    701    716     1  0.0000000  0.6508444  3
    714    700    693    718     1  0.0000000  0.6508444  3
    714    700    701    715     1  0.0000000  0.6508444  3
    714    700    701    716     1  0.0000000  0.6508444  3
    715    701    702    717     1  0.0000000  0.0000000  2
    716    701    702    717     1  0.0000000  0.0000000  2
    719    720    722    735     1  0.0000000  0.6508444  3
    719    720    722    736     1  0.0000000  0.6508444  3
    719    721    724    737     1  0.0000000  0.6508444  3
    719    721    724    738     1  0.0000000  0.6508444  3
    719    726    727    741     1  0.0000000  0.6508444  3
    719    726    727    742     1  0.0000000  0.6508444  3
    720    719    721    733     1  0.0000000  0.6508444  3
    720    719    721    734     1  0.0000000  0.6508444  3
    720    719    726    739     1  0.0000000  0.6508444  3
    720    719    726    740     1  0.0000000  0.6508444  3
    721    719    720    731     1  0.0000000  0.6508444  3
    721    719    720    732     1  0.0000000  0.6508444  3
    721    719    726    739     1  0.0000000  0.6508444  3
    721    719    726    740     1  0.0000000  0.6508444  3
    722    720    719    744     1  0.0000000  0.6508444  3
    722    723   2843   2844     1  180.0000771  10.4600000  2
    723    722    720    731     1  0.0000000  0.6508444  3
    723    722    720    732     1  0.0000000  0.6508444  3
    723   2843   2845   2846     1  0.0000000  0.0000000  2
    723   2843   2845   2848     1  0.0000000  0.0000000  2
    724    721    719    744     1  0.0000000  0.6508444  3
    724    725   2917   2918     1  180.0000771  10.4600000  2
    725    724    721    733     1  0.0000000  0.6508444  3
    725    724    721    734     1  0.0000000  0.6508444  3
    725   2917   2919   2920     1  0.0000000  0.0000000  2
    725   2917   2919   2922     1  0.0000000  0.0000000  2
    726    719    720    731     1  0.0000000  0.6508444  3
    726    719    720    732     1  0.0000000  0.6508444  3
    726    719    721    733     1  0.0000000  0.6508444  3
    726    719    721    734     1  0.0000000  0.6508444  3
    726    727    728    743     1  0.0000000  0.0000000  2
    727    726    719    744     1  0.0000000  0.6508444  3
    728    727    726    739     1  0.0000000  0.6508444  3
    728    727    726    740     1  0.0000000  0.6508444  3
    729    723    722    735     1  0.0000000  3.3472000  1
    729    723    722    735     1  0.0000000  0.0000000  2
    729    723    722    735     1  180.0000771  0.3347200  3
    729    723    722    736     1  0.0000000  3.3472000  1
    729    723    722    736     1  0.0000000  0.0000000  2
    729    723    722    736     1  180.0000771  0.3347200  3
    729    723   2843   2844     1  0.0000000  8.3680000  1
    729    723   2843   2844     1  180.0000771  10.4600000  2
    730    725    724    737     1  0.0000000  3.3472000  1
    730    725    724    737     1  0.0000000  0.0000000  2
    730    725    724    737     1  180.0000771  0.3347200  3
    730    725    724    738     1  0.0000000  3.3472000  1
    730    725    724    738     1  0.0000000  0.0000000  2
    730    725    724    738     1  180.0000771  0.3347200  3
    730    725   2917   2918     1  0.0000000  8.3680000  1
    730    725   2917   2918     1  180.0000771  10.4600000  2
    731    720    719    744     1  0.0000000  0.6508444  3
    731    720    722    735     1  0.0000000  0.6508444  3
    731    720    722    736     1  0.0000000  0.6508444  3
    732    720    719    744     1  0.0000000  0.6508444  3
    732    720    722    735     1  0.0000000  0.6508444  3
    732    720    722    736     1  0.0000000  0.6508444  3
    733    721    719    744     1  0.0000000  0.6508444  3
    733    721    724    737     1  0.0000000  0.6508444  3
    733    721    724    738     1  0.0000000  0.6508444  3
    734    721    719    744     1  0.0000000  0.6508444  3
    734    721    724    737     1  0.0000000  0.6508444  3
    734    721    724    738     1  0.0000000  0.6508444  3
    735    722    723   2843     1  180.0000771  0.0000000  2
    736    722    723   2843     1  180.0000771  0.0000000  2
    737    724    725   2917     1  180.0000771  0.0000000  2
    738    724    725   2917     1  180.0000771  0.0000000  2
    739    726    719    744     1  0.0000000  0.6508444  3
    739    726    727    741     1  0.0000000  0.6508444  3
    739    726    727    742     1  0.0000000  0.6508444  3
    740    726    719    744     1  0.0000000  0.6508444  3
    740    726    727    741     1  0.0000000  0.6508444  3
    740    726    727    742     1  0.0000000  0.6508444  3
    741    727    728    743     1  0.0000000  0.0000000  2
    742    727    728    743     1  0.0000000  0.0000000  2
    745    746    748    761     1  0.0000000  0.6508444  3
    745    746    748    762     1  0.0000000  0.6508444  3
    745    747    750    763     1  0.0000000  0.6508444  3
    745    747    750    764     1  0.0000000  0.6508444  3
    745    752    753    767     1  0.0000000  0.6508444  3
    745    752    753    768     1  0.0000000  0.6508444  3
    746    745    747    759     1  0.0000000  0.6508444  3
    746    745    747    760     1  0.0000000  0.6508444  3
    746    745    752    765     1  0.0000000  0.6508444  3
    746    745    752    766     1  0.0000000  0.6508444  3
    747    745    746    757     1  0.0000000  0.6508444  3
    747    745    746    758     1  0.0000000  0.6508444  3
    747    745    752    765     1  0.0000000  0.6508444  3
    747    745    752    766     1  0.0000000  0.6508444  3
    748    746    745    770     1  0.0000000  0.6508444  3
    748    749   2991   2992     1  180.0000771  10.4600000  2
    749    748    746    757     1  0.0000000  0.6508444  3
    749    748    746    758     1  0.0000000  0.6508444  3
    749   2991   2993   2994     1  0.0000000  0.0000000  2
    749   2991   2993   2996     1  0.0000000  0.0000000  2
    750    747    745    770     1  0.0000000  0.6508444  3
    750    751   3065   3066     1  180.0000771  10.4600000  2
    751    750    747    759     1  0.0000000  0.6508444  3
    751    750    747    760     1  0.0000000  0.6508444  3
    751   3065   3067   3068     1  0.0000000  0.0000000  2
    751   3065   3067   3070     1  0.0000000  0.0000000  2
    752    745    746    757     1  0.0000000  0.6508444  3
    752    745    746    758     1  0.0000000  0.6508444  3
    752    745    747    759     1  0.0000000  0.6508444  3
    752    745    747    760     1  0.0000000  0.6508444  3
    752    753    754    769     1  0.0000000  0.0000000  2
    753    752    745    770     1  0.0000000  0.6508444  3
    754    753    752    765     1  0.0000000  0.6508444  3
    754    753    752    766     1  0.0000000  0.6508444  3
    755    749    748    761     1  0.0000000  3.3472000  1
    755    749    748    761     1  0.0000000  0.0000000  2
    755    749    748    761     1  180.0000771  0.3347200  3
    755    749    748    762     1  0.0000000  3.3472000  1
    755    749    748    762     1  0.0000000  0.0000000  2
    755    749    748    762     1  180.0000771  0.3347200  3
    755    749   2991   2992     1  0.0000000  8.3680000  1
    755    749   2991   2992     1  180.0000771  10.4600000  2
    756    751    750    763     1  0.0000000  3.3472000  1
    756    751    750    763     1  0.0000000  0.0000000  2
    756    751    750    763     1  180.0000771  0.3347200  3
    756    751    750    764     1  0.0000000  3.3472000  1
    756    751    750    764     1  0.0000000  0.0000000  2
    756    751    750    764     1  180.0000771  0.3347200  3
    756    751   3065   3066     1  0.0000000  8.3680000  1
    756    751   3065   3066     1  180.0000771  10.4600000  2
    757    746    745    770     1  0.0000000  0.6508444  3
    757    746    748    761     1  0.0000000  0.6508444  3
    757    746    748    762     1  0.0000000  0.6508444  3
    758    746    745    770     1  0.0000000  0.6508444  3
    758    746    748    761     1  0.0000000  0.6508444  3
    758    746    748    762     1  0.0000000  0.6508444  3
    759    747    745    770     1  0.0000000  0.6508444  3
    759    747    750    763     1  0.0000000  0.6508444  3
    759    747    750    764     1  0.0000000  0.6508444  3
    760    747    745    770     1  0.0000000  0.6508444  3
    760    747    750    763     1  0.0000000  0.6508444  3
    760    747    750    764     1  0.0000000  0.6508444  3
    761    748    749   2991     1  180.0000771  0.0000000  2
    762    748    749   2991     1  180.0000771  0.0000000  2
    763    750    751   3065     1  180.0000771  0.0000000  2
    764    750    751   3065     1  180.0000771  0.0000000  2
    765    752    745    770     1  0.0000000  0.6508444  3
    765    752    753    767     1  0.0000000  0.6508444  3
    765    752    753    768     1  0.0000000  0.6508444  3
    766    752    745    770     1  0.0000000  0.6508444  3
    766    752    753    767     1  0.0000000  0.6508444  3
    766    752    753    768     1  0.0000000  0.6508444  3
    767    753    754    769     1  0.0000000  0.0000000  2
    768    753    754    769     1  0.0000000  0.0000000  2
    771    773    775    777     1  0.0000000  0.6508444  3
    771    773    775    778     1  0.0000000  0.6508444  3
    772    771    773    775     1  0.0000000  0.0000000  2
    772    771    773    774     1  0.0000000  0.0000000  2
    772    771    773    776     1  0.0000000  0.0000000  2
    773    775    779    844     1  0.0000000  0.6508444  3
    774    773    775    779     1  0.0000000  0.6508444  3
    774    773    775    777     1  0.0000000  0.6508444  3
    774    773    775    778     1  0.0000000  0.6508444  3
    775    779    780    789     1  0.0000000  0.6508444  3
    775    779    780    790     1  0.0000000  0.6508444  3
    775    779    781    782     1  0.0000000  0.6508444  3
    775    779    781    784     1  0.0000000  0.6508444  3
    776    773    775    779     1  0.0000000  0.6508444  3
    776    773    775    777     1  0.0000000  0.6508444  3
    776    773    775    778     1  0.0000000  0.6508444  3
    777    775    779    780     1  0.0000000  0.6508444  3
    777    775    779    781     1  0.0000000  0.6508444  3
    777    775    779    844     1  0.0000000  0.6508444  3
    778    775    779    780     1  0.0000000  0.6508444  3
    778    775    779    781     1  0.0000000  0.6508444  3
    778    775    779    844     1  0.0000000  0.6508444  3
    779    780    791    792     1  0.0000000  0.6508444  3
    779    780    791    793     1  0.0000000  0.6508444  3
    779    781    783    785     1  0.0000000  0.6508444  3
    779    781    783    786     1  0.0000000  0.6508444  3
    780    779    781    782     1  0.0000000  0.6508444  3
    780    779    781    784     1  0.0000000  0.6508444  3
    781    779    780    789     1  0.0000000  0.6508444  3
    781    779    780    790     1  0.0000000  0.6508444  3
    782    781    779    844     1  0.0000000  0.6508444  3
    782    781    783    787     1  0.0000000  0.6508444  3
    782    781    783    785     1  0.0000000  0.6508444  3
    782    781    783    786     1  0.0000000  0.6508444  3
    783    781    779    844     1  0.0000000  0.6508444  3
    783    787    819    809     1  180.0000771  6.0668000  2
    783    787    819    809     1  180.0000771  1.4644000  4
    784    781    779    844     1  0.0000000  0.6508444  3
    784    781    783    787     1  0.0000000  0.6508444  3
    784    781    783    785     1  0.0000000  0.6508444  3
    784    781    783    786     1  0.0000000  0.6508444  3
    785    783    787    788     1  0.0000000  3.3472000  1
    785    783    787    788     1  0.0000000  0.0000000  2
    785    783    787    788     1  180.0000771  0.3347200  3
    785    783    787    819     1  180.0000771  0.0000000  2
    786    783    787    788     1  0.0000000  3.3472000  1
    786    783    787    788     1  0.0000000  0.0000000  2
    786    783    787    788     1  180.0000771  0.3347200  3
    786    783    787    819     1  180.0000771  0.0000000  2
    787    819    800    802     1  0.0000000  1.2552000  3
    788    787    819    809     1  180.0000771  6.0668000  2
    788    787    819    809     1  180.0000771  1.4644000  4
    789    780    779    844     1  0.0000000  0.6508444  3
    789    780    791    794     1  0.0000000  0.6508444  3
    789    780    791    792     1  0.0000000  0.6508444  3
    789    780    791    793     1  0.0000000  0.6508444  3
    790    780    779    844     1  0.0000000  0.6508444  3
    790    780    791    794     1  0.0000000  0.6508444  3
    790    780    791    792     1  0.0000000  0.6508444  3
    790    780    791    793     1  0.0000000  0.6508444  3
    791    780    779    844     1  0.0000000  0.6508444  3
    791    794    843    833     1  180.0000771  6.0668000  2
    791    794    843    833     1  180.0000771  1.4644000  4
    792    791    794    795     1  0.0000000  3.3472000  1
    792    791    794    795     1  0.0000000  0.0000000  2
    792    791    794    795     1  180.0000771  0.3347200  3
    792    791    794    843     1  180.0000771  0.0000000  2
    793    791    794    795     1  0.0000000  3.3472000  1
    793    791    794    795     1  0.0000000  0.0000000  2
    793    791    794    795     1  180.0000771  0.3347200  3
    793    791    794    843     1  180.0000771  0.0000000  2
    794    843    824    826     1  0.0000000  1.2552000  3
    795    794    843    833     1  180.0000771  6.0668000  2
    795    794    843    833     1  180.0000771  1.4644000  4
    796    797    799    803     1  0.0000000  0.6508444  3
    796    797    817    818     1  0.0000000  1.0460000  1
    796    797    817    818     1  0.0000000  0.6694400  3
    796    807    812    813     1  0.0000000  1.0460000  1
    796    807    812    813     1  0.0000000  0.6694400  3
    796    814    801    804     1  0.0000000  1.6038667  3
    797    796    807    810     1  0.0000000  0.6508444  3
    797    796    807    811     1  0.0000000  0.6508444  3
    797    799    800    802     1  0.0000000  0.6508444  3
    797    799    806    808     1  0.0000000  1.0460000  1
    797    799    806    808     1  0.0000000  0.6694400  3
    798    796    797    799     1  0.0000000  0.6508444  3
    798    796    797    817     1  0.0000000  1.0460000  1
    798    796    797    817     1  0.0000000  0.0000000  3
    798    796    797    816     1  0.0000000  0.6508444  3
    798    796    807    812     1  0.0000000  1.0460000  1
    798    796    807    812     1  0.0000000  0.0000000  3
    798    796    807    810     1  0.0000000  0.6508444  3
    798    796    807    811     1  0.0000000  0.6508444  3
    798    796    814    801     1  0.0000000  1.6038667  3
    799    797    817    818     1  0.0000000  1.0460000  1
    799    797    817    818     1  0.0000000  0.6694400  3
    799    800    801    804     1  0.0000000  0.6508444  3
    799    800    819    809     1  0.0000000  1.2552000  3
    800    799    797    816     1  0.0000000  0.6508444  3
    800    799    806    808     1  0.0000000  1.0460000  1
    800    799    806    808     1  0.0000000  0.6694400  3
    800    801    805    815     1  0.0000000  1.0460000  1
    800    801    805    815     1  0.0000000  0.6694400  3
    801    800    799    803     1  0.0000000  0.6508444  3
    801    800    819    809     1  0.0000000  1.2552000  3
    802    800    799    806     1  0.0000000  1.0460000  1
    802    800    799    806     1  0.0000000  0.0000000  3
    802    800    799    803     1  0.0000000  0.6508444  3
    802    800    801    805     1  0.0000000  1.0460000  1
    802    800    801    805     1  0.0000000  0.0000000  3
    802    800    801    814     1  0.0000000  1.0460000  1
    802    800    801    814     1  0.0000000  0.0000000  3
    802    800    801    804     1  0.0000000  0.6508444  3
    802    800    819    809     1  0.0000000  1.2552000  3
    803    799    797    817     1  0.0000000  1.0460000  1
    803    799    797    817     1  0.0000000  0.0000000  3
    803    799    797    816     1  0.0000000  0.6508444  3
    803    799    800    819     1  0.0000000  0.6508444  3
    803    799    806    808     1  0.0000000  0.6973333  3
    804    801    800    819     1  0.0000000  0.6508444  3
    804    801    805    815     1  0.0000000  0.6973333  3
    806    799    797    816     1  0.0000000  1.0460000  1
    806    799    797    816     1  0.0000000  0.0000000  3
    807    796    797    816     1  0.0000000  0.6508444  3
    810    807    796    814     1  0.0000000  1.0460000  1
    810    807    796    814     1  0.0000000  0.0000000  3
    810    807    812    813     1  0.0000000  0.6973333  3
    811    807    796    814     1  0.0000000  1.0460000  1
    811    807    796    814     1  0.0000000  0.0000000  3
    811    807    812    813     1  0.0000000  0.6973333  3
    814    796    797    816     1  0.0000000  1.0460000  1
    814    796    797    816     1  0.0000000  0.0000000  3
    814    801    805    815     1  0.0000000  0.6973333  3
    816    797    817    818     1  0.0000000  0.6973333  3
    820    821    823    827     1  0.0000000  0.6508444  3
    820    821    841    842     1  0.0000000  1.0460000  1
    820    821    841    842     1  0.0000000  0.6694400  3
    820    831    836    837     1  0.0000000  1.0460000  1
    820    831    836    837     1  0.0000000  0.6694400  3
    820    838    825    828     1  0.0000000  1.6038667  3
    821    820    831    834     1  0.0000000  0.6508444  3
    821    820    831    835     1  0.0000000  0.6508444  3
    821    823    824    826     1  0.0000000  0.6508444  3
    821    823    830    832     1  0.0000000  1.0460000  1
    821    823    830    832     1  0.0000000  0.6694400  3
    822    820    821    823     1  0.0000000  0.6508444  3
    822    820    821    841     1  0.0000000  1.0460000  1
    822    820    821    841     1  0.0000000  0.0000000  3
    822    820    821    840     1  0.0000000  0.6508444  3
    822    820    831    836     1  0.0000000  1.0460000  1
    822    820    831    836     1  0.0000000  0.0000000  3
    822    820    831    834     1  0.0000000  0.6508444  3
    822    820    831    835     1  0.0000000  0.6508444  3
    822    820    838    825     1  0.0000000  1.6038667  3
    823    821    841    842     1  0.0000000  1.0460000  1
    823    821    841    842     1  0.0000000  0.6694400  3
    823    824    825    828     1  0.0000000  0.6508444  3
    823    824    843    833     1  0.0000000  1.2552000  3
    824    823    821    840     1  0.0000000  0.6508444  3
    824    823    830    832     1  0.0000000  1.0460000  1
    824    823    830    832     1  0.0000000  0.6694400  3
    824    825    829    839     1  0.0000000  1.0460000  1
    824    825    829    839     1  0.0000000  0.6694400  3
    825    824    823    827     1  0.0000000  0.6508444  3
    825    824    843    833     1  0.0000000  1.2552000  3
    826    824    823    830     1  0.0000000  1.0460000  1
    826    824    823    830     1  0.0000000  0.0000000  3
    826    824    823    827     1  0.0000000  0.6508444  3
    826    824    825    829     1  0.0000000  1.0460000  1
    826    824    825    829     1  0.0000000  0.0000000  3
    826    824    825    838     1  0.0000000  1.0460000  1
    826    824    825    838     1  0.0000000  0.0000000  3
    826    824    825    828     1  0.0000000  0.6508444  3
    826    824    843    833     1  0.0000000  1.2552000  3
    827    823    821    841     1  0.0000000  1.0460000  1
    827    823    821    841     1  0.0000000  0.0000000  3
    827    823    821    840     1  0.0000000  0.6508444  3
    827    823    824    843     1  0.0000000  0.6508444  3
    827    823    830    832     1  0.0000000  0.6973333  3
    828    825    824    843     1  0.0000000  0.6508444  3
    828    825    829    839     1  0.0000000  0.6973333  3
    830    823    821    840     1  0.0000000  1.0460000  1
    830    823    821    840     1  0.0000000  0.0000000  3
    831    820    821    840     1  0.0000000  0.6508444  3
    834    831    820    838     1  0.0000000  1.0460000  1
    834    831    820    838     1  0.0000000  0.0000000  3
    834    831    836    837     1  0.0000000  0.6973333  3
    835    831    820    838     1  0.0000000  1.0460000  1
    835    831    820    838     1  0.0000000  0.0000000  3
    835    831    836    837     1  0.0000000  0.6973333  3
    838    820    821    840     1  0.0000000  1.0460000  1
    838    820    821    840     1  0.0000000  0.0000000  3
    838    825    829    839     1  0.0000000  0.6973333  3
    840    821    841    842     1  0.0000000  0.6973333  3
    845    847    849    851     1  0.0000000  0.6508444  3
    845    847    849    852     1  0.0000000  0.6508444  3
    846    845    847    849     1  0.0000000  0.0000000  2
    846    845    847    848     1  0.0000000  0.0000000  2
    846    845    847    850     1  0.0000000  0.0000000  2
    847    849    853    918     1  0.0000000  0.6508444  3
    848    847    849    853     1  0.0000000  0.6508444  3
    848    847    849    851     1  0.0000000  0.6508444  3
    848    847    849    852     1  0.0000000  0.6508444  3
    849    853    854    863     1  0.0000000  0.6508444  3
    849    853    854    864     1  0.0000000  0.6508444  3
    849    853    855    856     1  0.0000000  0.6508444  3
    849    853    855    858     1  0.0000000  0.6508444  3
    850    847    849    853     1  0.0000000  0.6508444  3
    850    847    849    851     1  0.0000000  0.6508444  3
    850    847    849    852     1  0.0000000  0.6508444  3
    851    849    853    854     1  0.0000000  0.6508444  3
    851    849    853    855     1  0.0000000  0.6508444  3
    851    849    853    918     1  0.0000000  0.6508444  3
    852    849    853    854     1  0.0000000  0.6508444  3
    852    849    853    855     1  0.0000000  0.6508444  3
    852    849    853    918     1  0.0000000  0.6508444  3
    853    854    865    866     1  0.0000000  0.6508444  3
    853    854    865    867     1  0.0000000  0.6508444  3
    853    855    857    859     1  0.0000000  0.6508444  3
    853    855    857    860     1  0.0000000  0.6508444  3
    854    853    855    856     1  0.0000000  0.6508444  3
    854    853    855    858     1  0.0000000  0.6508444  3
    855    853    854    863     1  0.0000000  0.6508444  3
    855    853    854    864     1  0.0000000  0.6508444  3
    856    855    857    861     1  0.0000000  0.6508444  3
    856    855    857    859     1  0.0000000  0.6508444  3
    856    855    857    860     1  0.0000000  0.6508444  3
    856    855    853    918     1  0.0000000  0.6508444  3
    857    861    893    883     1  180.0000771  6.0668000  2
    857    861    893    883     1  180.0000771  1.4644000  4
    857    855    853    918     1  0.0000000  0.6508444  3
    858    855    857    861     1  0.0000000  0.6508444  3
    858    855    857    859     1  0.0000000  0.6508444  3
    858    855    857    860     1  0.0000000  0.6508444  3
    858    855    853    918     1  0.0000000  0.6508444  3
    859    857    861    862     1  0.0000000  3.3472000  1
    859    857    861    862     1  0.0000000  0.0000000  2
    859    857    861    862     1  180.0000771  0.3347200  3
    859    857    861    893     1  180.0000771  0.0000000  2
    860    857    861    862     1  0.0000000  3.3472000  1
    860    857    861    862     1  0.0000000  0.0000000  2
    860    857    861    862     1  180.0000771  0.3347200  3
    860    857    861    893     1  180.0000771  0.0000000  2
    861    893    874    876     1  0.0000000  1.2552000  3
    862    861    893    883     1  180.0000771  6.0668000  2
    862    861    893    883     1  180.0000771  1.4644000  4
    863    854    865    868     1  0.0000000  0.6508444  3
    863    854    865    866     1  0.0000000  0.6508444  3
    863    854    865    867     1  0.0000000  0.6508444  3
    863    854    853    918     1  0.0000000  0.6508444  3
    864    854    865    868     1  0.0000000  0.6508444  3
    864    854    865    866     1  0.0000000  0.6508444  3
    864    854    865    867     1  0.0000000  0.6508444  3
    864    854    853    918     1  0.0000000  0.6508444  3
    865    868    917    907     1  180.0000771  6.0668000  2
    865    868    917    907     1  180.0000771  1.4644000  4
    865    854    853    918     1  0.0000000  0.6508444  3
    866    865    868    869     1  0.0000000  3.3472000  1
    866    865    868    869     1  0.0000000  0.0000000  2
    866    865    868    869     1  180.0000771  0.3347200  3
    866    865    868    917     1  180.0000771  0.0000000  2
    867    865    868    869     1  0.0000000  3.3472000  1
    867    865    868    869     1  0.0000000  0.0000000  2
    867    865    868    869     1  180.0000771  0.3347200  3
    867    865    868    917     1  180.0000771  0.0000000  2
    868    917    898    900     1  0.0000000  1.2552000  3
    869    868    917    907     1  180.0000771  6.0668000  2
    869    868    917    907     1  180.0000771  1.4644000  4
    870    871    873    877     1  0.0000000  0.6508444  3
    870    871    891    892     1  0.0000000  1.0460000  1
    870    871    891    892     1  0.0000000  0.6694400  3
    870    881    886    887     1  0.0000000  1.0460000  1
    870    881    886    887     1  0.0000000  0.6694400  3
    870    888    875    878     1  0.0000000  1.6038667  3
    871    873    874    876     1  0.0000000  0.6508444  3
    871    873    880    882     1  0.0000000  1.0460000  1
    871    873    880    882     1  0.0000000  0.6694400  3
    871    870    881    884     1  0.0000000  0.6508444  3
    871    870    881    885     1  0.0000000  0.6508444  3
    872    870    871    873     1  0.0000000  0.6508444  3
    872    870    871    891     1  0.0000000  1.0460000  1
    872    870    871    891     1  0.0000000  0.0000000  3
    872    870    871    890     1  0.0000000  0.6508444  3
    872    870    881    886     1  0.0000000  1.0460000  1
    872    870    881    886     1  0.0000000  0.0000000  3
    872    870    881    884     1  0.0000000  0.6508444  3
    872    870    881    885     1  0.0000000  0.6508444  3
    872    870    888    875     1  0.0000000  1.6038667  3
    873    874    875    878     1  0.0000000  0.6508444  3
    873    874    893    883     1  0.0000000  1.2552000  3
    873    871    891    892     1  0.0000000  1.0460000  1
    873    871    891    892     1  0.0000000  0.6694400  3
    874    875    879    889     1  0.0000000  1.0460000  1
    874    875    879    889     1  0.0000000  0.6694400  3
    874    873    880    882     1  0.0000000  1.0460000  1
    874    873    880    882     1  0.0000000  0.6694400  3
    874    873    871    890     1  0.0000000  0.6508444  3
    875    874    893    883     1  0.0000000  1.2552000  3
    875    874    873    877     1  0.0000000  0.6508444  3
    876    874    875    879     1  0.0000000  1.0460000  1
    876    874    875    879     1  0.0000000  0.0000000  3
    876    874    875    888     1  0.0000000  1.0460000  1
    876    874    875    888     1  0.0000000  0.0000000  3
    876    874    875    878     1  0.0000000  0.6508444  3
    876    874    893    883     1  0.0000000  1.2552000  3
    876    874    873    880     1  0.0000000  1.0460000  1
    876    874    873    880     1  0.0000000  0.0000000  3
    876    874    873    877     1  0.0000000  0.6508444  3
    877    873    874    893     1  0.0000000  0.6508444  3
    877    873    880    882     1  0.0000000  0.6973333  3
    877    873    871    891     1  0.0000000  1.0460000  1
    877    873    871    891     1  0.0000000  0.0000000  3
    877    873    871    890     1  0.0000000  0.6508444  3
    878    875    879    889     1  0.0000000  0.6973333  3
    878    875    874    893     1  0.0000000  0.6508444  3
    880    873    871    890     1  0.0000000  1.0460000  1
    880    873    871    890     1  0.0000000  0.0000000  3
    881    870    871    890     1  0.0000000  0.6508444  3
    884    881    886    887     1  0.0000000  0.6973333  3
    884    881    870    888     1  0.0000000  1.0460000  1
    884    881    870    888     1  0.0000000  0.0000000  3
    885    881    886    887     1  0.0000000  0.6973333  3
    885    881    870    888     1  0.0000000  1.0460000  1
    885    881    870    888     1  0.0000000  0.0000000  3
    888    875    879    889     1  0.0000000  0.6973333  3
    888    870    871    890     1  0.0000000  1.0460000  1
    888    870    871    890     1  0.0000000  0.0000000  3
    890    871    891    892     1  0.0000000  0.6973333  3
    894    895    897    901     1  0.0000000  0.6508444  3
    894    895    915    916     1  0.0000000  1.0460000  1
    894    895    915    916     1  0.0000000  0.6694400  3
    894    905    910    911     1  0.0000000  1.0460000  1
    894    905    910    911     1  0.0000000  0.6694400  3
    894    912    899    902     1  0.0000000  1.6038667  3
    895    897    898    900     1  0.0000000  0.6508444  3
    895    897    904    906     1  0.0000000  1.0460000  1
    895    897    904    906     1  0.0000000  0.6694400  3
    895    894    905    908     1  0.0000000  0.6508444  3
    895    894    905    909     1  0.0000000  0.6508444  3
    896    894    895    897     1  0.0000000  0.6508444  3
    896    894    895    915     1  0.0000000  1.0460000  1
    896    894    895    915     1  0.0000000  0.0000000  3
    896    894    895    914     1  0.0000000  0.6508444  3
    896    894    905    910     1  0.0000000  1.0460000  1
    896    894    905    910     1  0.0000000  0.0000000  3
    896    894    905    908     1  0.0000000  0.6508444  3
    896    894    905    909     1  0.0000000  0.6508444  3
    896    894    912    899     1  0.0000000  1.6038667  3
    897    898    899    902     1  0.0000000  0.6508444  3
    897    898    917    907     1  0.0000000  1.2552000  3
    897    895    915    916     1  0.0000000  1.0460000  1
    897    895    915    916     1  0.0000000  0.6694400  3
    898    899    903    913     1  0.0000000  1.0460000  1
    898    899    903    913     1  0.0000000  0.6694400  3
    898    897    904    906     1  0.0000000  1.0460000  1
    898    897    904    906     1  0.0000000  0.6694400  3
    898    897    895    914     1  0.0000000  0.6508444  3
    899    898    917    907     1  0.0000000  1.2552000  3
    899    898    897    901     1  0.0000000  0.6508444  3
    900    898    899    903     1  0.0000000  1.0460000  1
    900    898    899    903     1  0.0000000  0.0000000  3
    900    898    899    912     1  0.0000000  1.0460000  1
    900    898    899    912     1  0.0000000  0.0000000  3
    900    898    899    902     1  0.0000000  0.6508444  3
    900    898    917    907     1  0.0000000  1.2552000  3
    900    898    897    904     1  0.0000000  1.0460000  1
    900    898    897    904     1  0.0000000  0.0000000  3
    900    898    897    901     1  0.0000000  0.6508444  3
    901    897    898    917     1  0.0000000  0.6508444  3
    901    897    904    906     1  0.0000000  0.6973333  3
    901    897    895    915     1  0.0000000  1.0460000  1
    901    897    895    915     1  0.0000000  0.0000000  3
    901    897    895    914     1  0.0000000  0.6508444  3
    902    899    903    913     1  0.0000000  0.6973333  3
    902    899    898    917     1  0.0000000  0.6508444  3
    904    897    895    914     1  0.0000000  1.0460000  1
    904    897    895    914     1  0.0000000  0.0000000  3
    905    894    895    914     1  0.0000000  0.6508444  3
    908    905    910    911     1  0.0000000  0.6973333  3
    908    905    894    912     1  0.0000000  1.0460000  1
    908    905    894    912     1  0.0000000  0.0000000  3
    909    905    910    911     1  0.0000000  0.6973333  3
    909    905    894    912     1  0.0000000  1.0460000  1
    909    905    894    912     1  0.0000000  0.0000000  3
    912    899    903    913     1  0.0000000  0.6973333  3
    912    894    895    914     1  0.0000000  1.0460000  1
    912    894    895    914     1  0.0000000  0.0000000  3
    914    895    915    916     1  0.0000000  0.6973333  3
    919    921    923    925     1  0.0000000  0.6508444  3
    919    921    923    926     1  0.0000000  0.6508444  3
    920    919    921    923     1  0.0000000  0.0000000  2
    920    919    921    922     1  0.0000000  0.0000000  2
    920    919    921    924     1  0.0000000  0.0000000  2
    921    923    927    992     1  0.0000000  0.6508444  3
    922    921    923    927     1  0.0000000  0.6508444  3
    922    921    923    925     1  0.0000000  0.6508444  3
    922    921    923    926     1  0.0000000  0.6508444  3
    923    927    928    937     1  0.0000000  0.6508444  3
    923    927    928    938     1  0.0000000  0.6508444  3
    923    927    929    930     1  0.0000000  0.6508444  3
    923    927    929    932     1  0.0000000  0.6508444  3
    924    921    923    927     1  0.0000000  0.6508444  3
    924    921    923    925     1  0.0000000  0.6508444  3
    924    921    923    926     1  0.0000000  0.6508444  3
    925    923    927    928     1  0.0000000  0.6508444  3
    925    923    927    929     1  0.0000000  0.6508444  3
    925    923    927    992     1  0.0000000  0.6508444  3
    926    923    927    928     1  0.0000000  0.6508444  3
    926    923    927    929     1  0.0000000  0.6508444  3
    926    923    927    992     1  0.0000000  0.6508444  3
    927    928    939    940     1  0.0000000  0.6508444  3
    927    928    939    941     1  0.0000000  0.6508444  3
    927    929    931    933     1  0.0000000  0.6508444  3
    927    929    931    934     1  0.0000000  0.6508444  3
    928    927    929    930     1  0.0000000  0.6508444  3
    928    927    929    932     1  0.0000000  0.6508444  3
    929    927    928    937     1  0.0000000  0.6508444  3
    929    927    928    938     1  0.0000000  0.6508444  3
    930    929    927    992     1  0.0000000  0.6508444  3
    930    929    931    935     1  0.0000000  0.6508444  3
    930    929    931    933     1  0.0000000  0.6508444  3
    930    929    931    934     1  0.0000000  0.6508444  3
    931    929    927    992     1  0.0000000  0.6508444  3
    931    935    967    957     1  180.0000771  6.0668000  2
    931    935    967    957     1  180.0000771  1.4644000  4
    932    929    927    992     1  0.0000000  0.6508444  3
    932    929    931    935     1  0.0000000  0.6508444  3
    932    929    931    933     1  0.0000000  0.6508444  3
    932    929    931    934     1  0.0000000  0.6508444  3
    933    931    935    936     1  0.0000000  3.3472000  1
    933    931    935    936     1  0.0000000  0.0000000  2
    933    931    935    936     1  180.0000771  0.3347200  3
    933    931    935    967     1  180.0000771  0.0000000  2
    934    931    935    936     1  0.0000000  3.3472000  1
    934    931    935    936     1  0.0000000  0.0000000  2
    934    931    935    936     1  180.0000771  0.3347200  3
    934    931    935    967     1  180.0000771  0.0000000  2
    935    967    948    950     1  0.0000000  1.2552000  3
    936    935    967    957     1  180.0000771  6.0668000  2
    936    935    967    957     1  180.0000771  1.4644000  4
    937    928    927    992     1  0.0000000  0.6508444  3
    937    928    939    942     1  0.0000000  0.6508444  3
    937    928    939    940     1  0.0000000  0.6508444  3
    937    928    939    941     1  0.0000000  0.6508444  3
    938    928    927    992     1  0.0000000  0.6508444  3
    938    928    939    942     1  0.0000000  0.6508444  3
    938    928    939    940     1  0.0000000  0.6508444  3
    938    928    939    941     1  0.0000000  0.6508444  3
    939    928    927    992     1  0.0000000  0.6508444  3
    939    942    991    981     1  180.0000771  6.0668000  2
    939    942    991    981     1  180.0000771  1.4644000  4
    940    939    942    943     1  0.0000000  3.3472000  1
    940    939    942    943     1  0.0000000  0.0000000  2
    940    939    942    943     1  180.0000771  0.3347200  3
    940    939    942    991     1  180.0000771  0.0000000  2
    941    939    942    943     1  0.0000000  3.3472000  1
    941    939    942    943     1  0.0000000  0.0000000  2
    941    939    942    943     1  180.0000771  0.3347200  3
    941    939    942    991     1  180.0000771  0.0000000  2
    942    991    972    974     1  0.0000000  1.2552000  3
    943    942    991    981     1  180.0000771  6.0668000  2
    943    942    991    981     1  180.0000771  1.4644000  4
    944    945    947    951     1  0.0000000  0.6508444  3
    944    945    965    966     1  0.0000000  1.0460000  1
    944    945    965    966     1  0.0000000  0.6694400  3
    944    955    960    961     1  0.0000000  1.0460000  1
    944    955    960    961     1  0.0000000  0.6694400  3
    944    962    949    952     1  0.0000000  1.6038667  3
    945    944    955    958     1  0.0000000  0.6508444  3
    945    944    955    959     1  0.0000000  0.6508444  3
    945    947    948    950     1  0.0000000  0.6508444  3
    945    947    954    956     1  0.0000000  1.0460000  1
    945    947    954    956     1  0.0000000  0.6694400  3
    946    944    945    947     1  0.0000000  0.6508444  3
    946    944    945    965     1  0.0000000  1.0460000  1
    946    944    945    965     1  0.0000000  0.0000000  3
    946    944    945    964     1  0.0000000  0.6508444  3
    946    944    955    960     1  0.0000000  1.0460000  1
    946    944    955    960     1  0.0000000  0.0000000  3
    946    944    955    958     1  0.0000000  0.6508444  3
    946    944    955    959     1  0.0000000  0.6508444  3
    946    944    962    949     1  0.0000000  1.6038667  3
    947    945    965    966     1  0.0000000  1.0460000  1
    947    945    965    966     1  0.0000000  0.6694400  3
    947    948    949    952     1  0.0000000  0.6508444  3
    947    948    967    957     1  0.0000000  1.2552000  3
    948    947    945    964     1  0.0000000  0.6508444  3
    948    947    954    956     1  0.0000000  1.0460000  1
    948    947    954    956     1  0.0000000  0.6694400  3
    948    949    953    963     1  0.0000000  1.0460000  1
    948    949    953    963     1  0.0000000  0.6694400  3
    949    948    947    951     1  0.0000000  0.6508444  3
    949    948    967    957     1  0.0000000  1.2552000  3
    950    948    947    954     1  0.0000000  1.0460000  1
    950    948    947    954     1  0.0000000  0.0000000  3
    950    948    947    951     1  0.0000000  0.6508444  3
    950    948    949    953     1  0.0000000  1.0460000  1
    950    948    949    953     1  0.0000000  0.0000000  3
    950    948    949    962     1  0.0000000  1.0460000  1
    950    948    949    962     1  0.0000000  0.0000000  3
    950    948    949    952     1  0.0000000  0.6508444  3
    950    948    967    957     1  0.0000000  1.2552000  3
    951    947    945    965     1  0.0000000  1.0460000  1
    951    947    945    965     1  0.0000000  0.0000000  3
    951    947    945    964     1  0.0000000  0.6508444  3
    951    947    948    967     1  0.0000000  0.6508444  3
    951    947    954    956     1  0.0000000  0.6973333  3
    952    949    948    967     1  0.0000000  0.6508444  3
    952    949    953    963     1  0.0000000  0.6973333  3
    954    947    945    964     1  0.0000000  1.0460000  1
    954    947    945    964     1  0.0000000  0.0000000  3
    955    944    945    964     1  0.0000000  0.6508444  3
    958    955    944    962     1  0.0000000  1.0460000  1
    958    955    944    962     1  0.0000000  0.0000000  3
    958    955    960    961     1  0.0000000  0.6973333  3
    959    955    944    962     1  0.0000000  1.0460000  1
    959    955    944    962     1  0.0000000  0.0000000  3
    959    955    960    961     1  0.0000000  0.6973333  3
    962    944    945    964     1  0.0000000  1.0460000  1
    962    944    945    964     1  0.0000000  0.0000000  3
    962    949    953    963     1  0.0000000  0.6973333  3
    964    945    965    966     1  0.0000000  0.6973333  3
    968    969    971    975     1  0.0000000  0.6508444  3
    968    969    989    990     1  0.0000000  1.0460000  1
    968    969    989    990     1  0.0000000  0.6694400  3
    968    979    984    985     1  0.0000000  1.0460000  1
    968    979    984    985     1  0.0000000  0.6694400  3
    968    986    973    976     1  0.0000000  1.6038667  3
    969    968    979    982     1  0.0000000  0.6508444  3
    969    968    979    983     1  0.0000000  0.6508444  3
    969    971    972    974     1  0.0000000  0.6508444  3
    969    971    978    980     1  0.0000000  1.0460000  1
    969    971    978    980     1  0.0000000  0.6694400  3
    970    968    969    971     1  0.0000000  0.6508444  3
    970    968    969    989     1  0.0000000  1.0460000  1
    970    968    969    989     1  0.0000000  0.0000000  3
    970    968    969    988     1  0.0000000  0.6508444  3
    970    968    979    984     1  0.0000000  1.0460000  1
    970    968    979    984     1  0.0000000  0.0000000  3
    970    968    979    982     1  0.0000000  0.6508444  3
    970    968    979    983     1  0.0000000  0.6508444  3
    970    968    986    973     1  0.0000000  1.6038667  3
    971    969    989    990     1  0.0000000  1.0460000  1
    971    969    989    990     1  0.0000000  0.6694400  3
    971    972    973    976     1  0.0000000  0.6508444  3
    971    972    991    981     1  0.0000000  1.2552000  3
    972    971    969    988     1  0.0000000  0.6508444  3
    972    971    978    980     1  0.0000000  1.0460000  1
    972    971    978    980     1  0.0000000  0.6694400  3
    972    973    977    987     1  0.0000000  1.0460000  1
    972    973    977    987     1  0.0000000  0.6694400  3
    973    972    971    975     1  0.0000000  0.6508444  3
    973    972    991    981     1  0.0000000  1.2552000  3
    974    972    971    978     1  0.0000000  1.0460000  1
    974    972    971    978     1  0.0000000  0.0000000  3
    974    972    971    975     1  0.0000000  0.6508444  3
    974    972    973    977     1  0.0000000  1.0460000  1
    974    972    973    977     1  0.0000000  0.0000000  3
    974    972    973    986     1  0.0000000  1.0460000  1
    974    972    973    986     1  0.0000000  0.0000000  3
    974    972    973    976     1  0.0000000  0.6508444  3
    974    972    991    981     1  0.0000000  1.2552000  3
    975    971    969    989     1  0.0000000  1.0460000  1
    975    971    969    989     1  0.0000000  0.0000000  3
    975    971    969    988     1  0.0000000  0.6508444  3
    975    971    972    991     1  0.0000000  0.6508444  3
    975    971    978    980     1  0.0000000  0.6973333  3
    976    973    972    991     1  0.0000000  0.6508444  3
    976    973    977    987     1  0.0000000  0.6973333  3
    978    971    969    988     1  0.0000000  1.0460000  1
    978    971    969    988     1  0.0000000  0.0000000  3
    979    968    969    988     1  0.0000000  0.6508444  3
    982    979    968    986     1  0.0000000  1.0460000  1
    982    979    968    986     1  0.0000000  0.0000000  3
    982    979    984    985     1  0.0000000  0.6973333  3
    983    979    968    986     1  0.0000000  1.0460000  1
    983    979    968    986     1  0.0000000  0.0000000  3
    983    979    984    985     1  0.0000000  0.6973333  3
    986    968    969    988     1  0.0000000  1.0460000  1
    986    968    969    988     1  0.0000000  0.0000000  3
    986    973    977    987     1  0.0000000  0.6973333  3
    988    969    989    990     1  0.0000000  0.6973333  3
    993    995    997    999     1  0.0000000  0.6508444  3
    993    995    997   1000     1  0.0000000  0.6508444  3
    994    993    995    997     1  0.0000000  0.0000000  2
    994    993    995    996     1  0.0000000  0.0000000  2
    994    993    995    998     1  0.0000000  0.0000000  2
    995    997   1001   1066     1  0.0000000  0.6508444  3
    996    995    997   1001     1  0.0000000  0.6508444  3
    996    995    997    999     1  0.0000000  0.6508444  3
    996    995    997   1000     1  0.0000000  0.6508444  3
    997   1001   1002   1011     1  0.0000000  0.6508444  3
    997   1001   1002   1012     1  0.0000000  0.6508444  3
    997   1001   1003   1004     1  0.0000000  0.6508444  3
    997   1001   1003   1006     1  0.0000000  0.6508444  3
    998    995    997   1001     1  0.0000000  0.6508444  3
    998    995    997    999     1  0.0000000  0.6508444  3
    998    995    997   1000     1  0.0000000  0.6508444  3
    999    997   1001   1002     1  0.0000000  0.6508444  3
    999    997   1001   1003     1  0.0000000  0.6508444  3
    999    997   1001   1066     1  0.0000000  0.6508444  3
   1000    997   1001   1002     1  0.0000000  0.6508444  3
   1000    997   1001   1003     1  0.0000000  0.6508444  3
   1000    997   1001   1066     1  0.0000000  0.6508444  3
   1001   1002   1013   1014     1  0.0000000  0.6508444  3
   1001   1002   1013   1015     1  0.0000000  0.6508444  3
   1001   1003   1005   1007     1  0.0000000  0.6508444  3
   1001   1003   1005   1008     1  0.0000000  0.6508444  3
   1002   1001   1003   1004     1  0.0000000  0.6508444  3
   1002   1001   1003   1006     1  0.0000000  0.6508444  3
   1003   1001   1002   1011     1  0.0000000  0.6508444  3
   1003   1001   1002   1012     1  0.0000000  0.6508444  3
   1004   1003   1005   1009     1  0.0000000  0.6508444  3
   1004   1003   1005   1007     1  0.0000000  0.6508444  3
   1004   1003   1005   1008     1  0.0000000  0.6508444  3
   1004   1003   1001   1066     1  0.0000000  0.6508444  3
   1005   1009   1041   1031     1  180.0000771  6.0668000  2
   1005   1009   1041   1031     1  180.0000771  1.4644000  4
   1005   1003   1001   1066     1  0.0000000  0.6508444  3
   1006   1003   1005   1009     1  0.0000000  0.6508444  3
   1006   1003   1005   1007     1  0.0000000  0.6508444  3
   1006   1003   1005   1008     1  0.0000000  0.6508444  3
   1006   1003   1001   1066     1  0.0000000  0.6508444  3
   1007   1005   1009   1010     1  0.0000000  3.3472000  1
   1007   1005   1009   1010     1  0.0000000  0.0000000  2
   1007   1005   1009   1010     1  180.0000771  0.3347200  3
   1007   1005   1009   1041     1  180.0000771  0.0000000  2
   1008   1005   1009   1010     1  0.0000000  3.3472000  1
   1008   1005   1009   1010     1  0.0000000  0.0000000  2
   1008   1005   1009   1010     1  180.0000771  0.3347200  3
   1008   1005   1009   1041     1  180.0000771  0.0000000  2
   1009   1041   1022   1024     1  0.0000000  1.2552000  3
   1010   1009   1041   1031     1  180.0000771  6.0668000  2
   1010   1009   1041   1031     1  180.0000771  1.4644000  4
   1011   1002   1013   1016     1  0.0000000  0.6508444  3
   1011   1002   1013   1014     1  0.0000000  0.6508444  3
   1011   1002   1013   1015     1  0.0000000  0.6508444  3
   1011   1002   1001   1066     1  0.0000000  0.6508444  3
   1012   1002   1013   1016     1  0.0000000  0.6508444  3
   1012   1002   1013   1014     1  0.0000000  0.6508444  3
   1012   1002   1013   1015     1  0.0000000  0.6508444  3
   1012   1002   1001   1066     1  0.0000000  0.6508444  3
   1013   1016   1065   1055     1  180.0000771  6.0668000  2
   1013   1016   1065   1055     1  180.0000771  1.4644000  4
   1013   1002   1001   1066     1  0.0000000  0.6508444  3
   1014   1013   1016   1017     1  0.0000000  3.3472000  1
   1014   1013   1016   1017     1  0.0000000  0.0000000  2
   1014   1013   1016   1017     1  180.0000771  0.3347200  3
   1014   1013   1016   1065     1  180.0000771  0.0000000  2
   1015   1013   1016   1017     1  0.0000000  3.3472000  1
   1015   1013   1016   1017     1  0.0000000  0.0000000  2
   1015   1013   1016   1017     1  180.0000771  0.3347200  3
   1015   1013   1016   1065     1  180.0000771  0.0000000  2
   1016   1065   1046   1048     1  0.0000000  1.2552000  3
   1017   1016   1065   1055     1  180.0000771  6.0668000  2
   1017   1016   1065   1055     1  180.0000771  1.4644000  4
   1018   1019   1021   1025     1  0.0000000  0.6508444  3
   1018   1019   1039   1040     1  0.0000000  1.0460000  1
   1018   1019   1039   1040     1  0.0000000  0.6694400  3
   1018   1029   1034   1035     1  0.0000000  1.0460000  1
   1018   1029   1034   1035     1  0.0000000  0.6694400  3
   1018   1036   1023   1026     1  0.0000000  1.6038667  3
   1019   1021   1022   1024     1  0.0000000  0.6508444  3
   1019   1021   1028   1030     1  0.0000000  1.0460000  1
   1019   1021   1028   1030     1  0.0000000  0.6694400  3
   1019   1018   1029   1032     1  0.0000000  0.6508444  3
   1019   1018   1029   1033     1  0.0000000  0.6508444  3
   1020   1018   1019   1021     1  0.0000000  0.6508444  3
   1020   1018   1019   1039     1  0.0000000  1.0460000  1
   1020   1018   1019   1039     1  0.0000000  0.0000000  3
   1020   1018   1019   1038     1  0.0000000  0.6508444  3
   1020   1018   1029   1034     1  0.0000000  1.0460000  1
   1020   1018   1029   1034     1  0.0000000  0.0000000  3
   1020   1018   1029   1032     1  0.0000000  0.6508444  3
   1020   1018   1029   1033     1  0.0000000  0.6508444  3
   1020   1018   1036   1023     1  0.0000000  1.6038667  3
   1021   1022   1023   1026     1  0.0000000  0.6508444  3
   1021   1022   1041   1031     1  0.0000000  1.2552000  3
   1021   1019   1039   1040     1  0.0000000  1.0460000  1
   1021   1019   1039   1040     1  0.0000000  0.6694400  3
   1022   1023   1027   1037     1  0.0000000  1.0460000  1
   1022   1023   1027   1037     1  0.0000000  0.6694400  3
   1022   1021   1028   1030     1  0.0000000  1.0460000  1
   1022   1021   1028   1030     1  0.0000000  0.6694400  3
   1022   1021   1019   1038     1  0.0000000  0.6508444  3
   1023   1022   1041   1031     1  0.0000000  1.2552000  3
   1023   1022   1021   1025     1  0.0000000  0.6508444  3
   1024   1022   1023   1027     1  0.0000000  1.0460000  1
   1024   1022   1023   1027     1  0.0000000  0.0000000  3
   1024   1022   1023   1036     1  0.0000000  1.0460000  1
   1024   1022   1023   1036     1  0.0000000  0.0000000  3
   1024   1022   1023   1026     1  0.0000000  0.6508444  3
   1024   1022   1041   1031     1  0.0000000  1.2552000  3
   1024   1022   1021   1028     1  0.0000000  1.0460000  1
   1024   1022   1021   1028     1  0.0000000  0.0000000  3
   1024   1022   1021   1025     1  0.0000000  0.6508444  3
   1025   1021   1022   1041     1  0.0000000  0.6508444  3
   1025   1021   1028   1030     1  0.0000000  0.6973333  3
   1025   1021   1019   1039     1  0.0000000  1.0460000  1
   1025   1021   1019   1039     1  0.0000000  0.0000000  3
   1025   1021   1019   1038     1  0.0000000  0.6508444  3
   1026   1023   1027   1037     1  0.0000000  0.6973333  3
   1026   1023   1022   1041     1  0.0000000  0.6508444  3
   1028   1021   1019   1038     1  0.0000000  1.0460000  1
   1028   1021   1019   1038     1  0.0000000  0.0000000  3
   1029   1018   1019   1038     1  0.0000000  0.6508444  3
   1032   1029   1034   1035     1  0.0000000  0.6973333  3
   1032   1029   1018   1036     1  0.0000000  1.0460000  1
   1032   1029   1018   1036     1  0.0000000  0.0000000  3
   1033   1029   1034   1035     1  0.0000000  0.6973333  3
   1033   1029   1018   1036     1  0.0000000  1.0460000  1
   1033   1029   1018   1036     1  0.0000000  0.0000000  3
   1036   1023   1027   1037     1  0.0000000  0.6973333  3
   1036   1018   1019   1038     1  0.0000000  1.0460000  1
   1036   1018   1019   1038     1  0.0000000  0.0000000  3
   1038   1019   1039   1040     1  0.0000000  0.6973333  3
   1042   1043   1045   1049     1  0.0000000  0.6508444  3
   1042   1043   1063   1064     1  0.0000000  1.0460000  1
   1042   1043   1063   1064     1  0.0000000  0.6694400  3
   1042   1053   1058   1059     1  0.0000000  1.0460000  1
   1042   1053   1058   1059     1  0.0000000  0.6694400  3
   1042   1060   1047   1050     1  0.0000000  1.6038667  3
   1043   1045   1046   1048     1  0.0000000  0.6508444  3
   1043   1045   1052   1054     1  0.0000000  1.0460000  1
   1043   1045   1052   1054     1  0.0000000  0.6694400  3
   1043   1042   1053   1056     1  0.0000000  0.6508444  3
   1043   1042   1053   1057     1  0.0000000  0.6508444  3
   1044   1042   1043   1045     1  0.0000000  0.6508444  3
   1044   1042   1043   1063     1  0.0000000  1.0460000  1
   1044   1042   1043   1063     1  0.0000000  0.0000000  3
   1044   1042   1043   1062     1  0.0000000  0.6508444  3
   1044   1042   1053   1058     1  0.0000000  1.0460000  1
   1044   1042   1053   1058     1  0.0000000  0.0000000  3
   1044   1042   1053   1056     1  0.0000000  0.6508444  3
   1044   1042   1053   1057     1  0.0000000  0.6508444  3
   1044   1042   1060   1047     1  0.0000000  1.6038667  3
   1045   1046   1047   1050     1  0.0000000  0.6508444  3
   1045   1046   1065   1055     1  0.0000000  1.2552000  3
   1045   1043   1063   1064     1  0.0000000  1.0460000  1
   1045   1043   1063   1064     1  0.0000000  0.6694400  3
   1046   1047   1051   1061     1  0.0000000  1.0460000  1
   1046   1047   1051   1061     1  0.0000000  0.6694400  3
   1046   1045   1052   1054     1  0.0000000  1.0460000  1
   1046   1045   1052   1054     1  0.0000000  0.6694400  3
   1046   1045   1043   1062     1  0.0000000  0.6508444  3
   1047   1046   1065   1055     1  0.0000000  1.2552000  3
   1047   1046   1045   1049     1  0.0000000  0.6508444  3
   1048   1046   1047   1051     1  0.0000000  1.0460000  1
   1048   1046   1047   1051     1  0.0000000  0.0000000  3
   1048   1046   1047   1060     1  0.0000000  1.0460000  1
   1048   1046   1047   1060     1  0.0000000  0.0000000  3
   1048   1046   1047   1050     1  0.0000000  0.6508444  3
   1048   1046   1065   1055     1  0.0000000  1.2552000  3
   1048   1046   1045   1052     1  0.0000000  1.0460000  1
   1048   1046   1045   1052     1  0.0000000  0.0000000  3
   1048   1046   1045   1049     1  0.0000000  0.6508444  3
   1049   1045   1046   1065     1  0.0000000  0.6508444  3
   1049   1045   1052   1054     1  0.0000000  0.6973333  3
   1049   1045   1043   1063     1  0.0000000  1.0460000  1
   1049   1045   1043   1063     1  0.0000000  0.0000000  3
   1049   1045   1043   1062     1  0.0000000  0.6508444  3
   1050   1047   1051   1061     1  0.0000000  0.6973333  3
   1050   1047   1046   1065     1  0.0000000  0.6508444  3
   1052   1045   1043   1062     1  0.0000000  1.0460000  1
   1052   1045   1043   1062     1  0.0000000  0.0000000  3
   1053   1042   1043   1062     1  0.0000000  0.6508444  3
   1056   1053   1058   1059     1  0.0000000  0.6973333  3
   1056   1053   1042   1060     1  0.0000000  1.0460000  1
   1056   1053   1042   1060     1  0.0000000  0.0000000  3
   1057   1053   1058   1059     1  0.0000000  0.6973333  3
   1057   1053   1042   1060     1  0.0000000  1.0460000  1
   1057   1053   1042   1060     1  0.0000000  0.0000000  3
   1060   1047   1051   1061     1  0.0000000  0.6973333  3
   1060   1042   1043   1062     1  0.0000000  1.0460000  1
   1060   1042   1043   1062     1  0.0000000  0.0000000  3
   1062   1043   1063   1064     1  0.0000000  0.6973333  3
   1067   1069   1071   1073     1  0.0000000  0.6508444  3
   1067   1069   1071   1074     1  0.0000000  0.6508444  3
   1068   1067   1069   1071     1  0.0000000  0.0000000  2
   1068   1067   1069   1070     1  0.0000000  0.0000000  2
   1068   1067   1069   1072     1  0.0000000  0.0000000  2
   1069   1071   1075   1140     1  0.0000000  0.6508444  3
   1070   1069   1071   1075     1  0.0000000  0.6508444  3
   1070   1069   1071   1073     1  0.0000000  0.6508444  3
   1070   1069   1071   1074     1  0.0000000  0.6508444  3
   1071   1075   1076   1085     1  0.0000000  0.6508444  3
   1071   1075   1076   1086     1  0.0000000  0.6508444  3
   1071   1075   1077   1078     1  0.0000000  0.6508444  3
   1071   1075   1077   1080     1  0.0000000  0.6508444  3
   1072   1069   1071   1075     1  0.0000000  0.6508444  3
   1072   1069   1071   1073     1  0.0000000  0.6508444  3
   1072   1069   1071   1074     1  0.0000000  0.6508444  3
   1073   1071   1075   1076     1  0.0000000  0.6508444  3
   1073   1071   1075   1077     1  0.0000000  0.6508444  3
   1073   1071   1075   1140     1  0.0000000  0.6508444  3
   1074   1071   1075   1076     1  0.0000000  0.6508444  3
   1074   1071   1075   1077     1  0.0000000  0.6508444  3
   1074   1071   1075   1140     1  0.0000000  0.6508444  3
   1075   1076   1087   1088     1  0.0000000  0.6508444  3
   1075   1076   1087   1089     1  0.0000000  0.6508444  3
   1075   1077   1079   1081     1  0.0000000  0.6508444  3
   1075   1077   1079   1082     1  0.0000000  0.6508444  3
   1076   1075   1077   1078     1  0.0000000  0.6508444  3
   1076   1075   1077   1080     1  0.0000000  0.6508444  3
   1077   1075   1076   1085     1  0.0000000  0.6508444  3
   1077   1075   1076   1086     1  0.0000000  0.6508444  3
   1078   1077   1075   1140     1  0.0000000  0.6508444  3
   1078   1077   1079   1083     1  0.0000000  0.6508444  3
   1078   1077   1079   1081     1  0.0000000  0.6508444  3
   1078   1077   1079   1082     1  0.0000000  0.6508444  3
   1079   1077   1075   1140     1  0.0000000  0.6508444  3
   1079   1083   1115   1105     1  180.0000771  6.0668000  2
   1079   1083   1115   1105     1  180.0000771  1.4644000  4
   1080   1077   1075   1140     1  0.0000000  0.6508444  3
   1080   1077   1079   1083     1  0.0000000  0.6508444  3
   1080   1077   1079   1081     1  0.0000000  0.6508444  3
   1080   1077   1079   1082     1  0.0000000  0.6508444  3
   1081   1079   1083   1084     1  0.0000000  3.3472000  1
   1081   1079   1083   1084     1  0.0000000  0.0000000  2
   1081   1079   1083   1084     1  180.0000771  0.3347200  3
   1081   1079   1083   1115     1  180.0000771  0.0000000  2
   1082   1079   1083   1084     1  0.0000000  3.3472000  1
   1082   1079   1083   1084     1  0.0000000  0.0000000  2
   1082   1079   1083   1084     1  180.0000771  0.3347200  3
   1082   1079   1083   1115     1  180.0000771  0.0000000  2
   1083   1115   1096   1098     1  0.0000000  1.2552000  3
   1084   1083   1115   1105     1  180.0000771  6.0668000  2
   1084   1083   1115   1105     1  180.0000771  1.4644000  4
   1085   1076   1075   1140     1  0.0000000  0.6508444  3
   1085   1076   1087   1090     1  0.0000000  0.6508444  3
   1085   1076   1087   1088     1  0.0000000  0.6508444  3
   1085   1076   1087   1089     1  0.0000000  0.6508444  3
   1086   1076   1075   1140     1  0.0000000  0.6508444  3
   1086   1076   1087   1090     1  0.0000000  0.6508444  3
   1086   1076   1087   1088     1  0.0000000  0.6508444  3
   1086   1076   1087   1089     1  0.0000000  0.6508444  3
   1087   1076   1075   1140     1  0.0000000  0.6508444  3
   1087   1090   1139   1129     1  180.0000771  6.0668000  2
   1087   1090   1139   1129     1  180.0000771  1.4644000  4
   1088   1087   1090   1091     1  0.0000000  3.3472000  1
   1088   1087   1090   1091     1  0.0000000  0.0000000  2
   1088   1087   1090   1091     1  180.0000771  0.3347200  3
   1088   1087   1090   1139     1  180.0000771  0.0000000  2
   1089   1087   1090   1091     1  0.0000000  3.3472000  1
   1089   1087   1090   1091     1  0.0000000  0.0000000  2
   1089   1087   1090   1091     1  180.0000771  0.3347200  3
   1089   1087   1090   1139     1  180.0000771  0.0000000  2
   1090   1139   1120   1122     1  0.0000000  1.2552000  3
   1091   1090   1139   1129     1  180.0000771  6.0668000  2
   1091   1090   1139   1129     1  180.0000771  1.4644000  4
   1092   1093   1095   1099     1  0.0000000  0.6508444  3
   1092   1093   1113   1114     1  0.0000000  1.0460000  1
   1092   1093   1113   1114     1  0.0000000  0.6694400  3
   1092   1103   1108   1109     1  0.0000000  1.0460000  1
   1092   1103   1108   1109     1  0.0000000  0.6694400  3
   1092   1110   1097   1100     1  0.0000000  1.6038667  3
   1093   1092   1103   1106     1  0.0000000  0.6508444  3
   1093   1092   1103   1107     1  0.0000000  0.6508444  3
   1093   1095   1096   1098     1  0.0000000  0.6508444  3
   1093   1095   1102   1104     1  0.0000000  1.0460000  1
   1093   1095   1102   1104     1  0.0000000  0.6694400  3
   1094   1092   1093   1095     1  0.0000000  0.6508444  3
   1094   1092   1093   1113     1  0.0000000  1.0460000  1
   1094   1092   1093   1113     1  0.0000000  0.0000000  3
   1094   1092   1093   1112     1  0.0000000  0.6508444  3
   1094   1092   1103   1108     1  0.0000000  1.0460000  1
   1094   1092   1103   1108     1  0.0000000  0.0000000  3
   1094   1092   1103   1106     1  0.0000000  0.6508444  3
   1094   1092   1103   1107     1  0.0000000  0.6508444  3
   1094   1092   1110   1097     1  0.0000000  1.6038667  3
   1095   1093   1113   1114     1  0.0000000  1.0460000  1
   1095   1093   1113   1114     1  0.0000000  0.6694400  3
   1095   1096   1097   1100     1  0.0000000  0.6508444  3
   1095   1096   1115   1105     1  0.0000000  1.2552000  3
   1096   1095   1093   1112     1  0.0000000  0.6508444  3
   1096   1095   1102   1104     1  0.0000000  1.0460000  1
   1096   1095   1102   1104     1  0.0000000  0.6694400  3
   1096   1097   1101   1111     1  0.0000000  1.0460000  1
   1096   1097   1101   1111     1  0.0000000  0.6694400  3
   1097   1096   1095   1099     1  0.0000000  0.6508444  3
   1097   1096   1115   1105     1  0.0000000  1.2552000  3
   1098   1096   1095   1102     1  0.0000000  1.0460000  1
   1098   1096   1095   1102     1  0.0000000  0.0000000  3
   1098   1096   1095   1099     1  0.0000000  0.6508444  3
   1098   1096   1097   1101     1  0.0000000  1.0460000  1
   1098   1096   1097   1101     1  0.0000000  0.0000000  3
   1098   1096   1097   1110     1  0.0000000  1.0460000  1
   1098   1096   1097   1110     1  0.0000000  0.0000000  3
   1098   1096   1097   1100     1  0.0000000  0.6508444  3
   1098   1096   1115   1105     1  0.0000000  1.2552000  3
   1099   1095   1093   1113     1  0.0000000  1.0460000  1
   1099   1095   1093   1113     1  0.0000000  0.0000000  3
   1099   1095   1093   1112     1  0.0000000  0.6508444  3
   1099   1095   1096   1115     1  0.0000000  0.6508444  3
   1099   1095   1102   1104     1  0.0000000  0.6973333  3
   1100   1097   1096   1115     1  0.0000000  0.6508444  3
   1100   1097   1101   1111     1  0.0000000  0.6973333  3
   1102   1095   1093   1112     1  0.0000000  1.0460000  1
   1102   1095   1093   1112     1  0.0000000  0.0000000  3
   1103   1092   1093   1112     1  0.0000000  0.6508444  3
   1106   1103   1092   1110     1  0.0000000  1.0460000  1
   1106   1103   1092   1110     1  0.0000000  0.0000000  3
   1106   1103   1108   1109     1  0.0000000  0.6973333  3
   1107   1103   1092   1110     1  0.0000000  1.0460000  1
   1107   1103   1092   1110     1  0.0000000  0.0000000  3
   1107   1103   1108   1109     1  0.0000000  0.6973333  3
   1110   1092   1093   1112     1  0.0000000  1.0460000  1
   1110   1092   1093   1112     1  0.0000000  0.0000000  3
   1110   1097   1101   1111     1  0.0000000  0.6973333  3
   1112   1093   1113   1114     1  0.0000000  0.6973333  3
   1116   1117   1119   1123     1  0.0000000  0.6508444  3
   1116   1117   1137   1138     1  0.0000000  1.0460000  1
   1116   1117   1137   1138     1  0.0000000  0.6694400  3
   1116   1127   1132   1133     1  0.0000000  1.0460000  1
   1116   1127   1132   1133     1  0.0000000  0.6694400  3
   1116   1134   1121   1124     1  0.0000000  1.6038667  3
   1117   1116   1127   1130     1  0.0000000  0.6508444  3
   1117   1116   1127   1131     1  0.0000000  0.6508444  3
   1117   1119   1120   1122     1  0.0000000  0.6508444  3
   1117   1119   1126   1128     1  0.0000000  1.0460000  1
   1117   1119   1126   1128     1  0.0000000  0.6694400  3
   1118   1116   1117   1119     1  0.0000000  0.6508444  3
   1118   1116   1117   1137     1  0.0000000  1.0460000  1
   1118   1116   1117   1137     1  0.0000000  0.0000000  3
   1118   1116   1117   1136     1  0.0000000  0.6508444  3
   1118   1116   1127   1132     1  0.0000000  1.0460000  1
   1118   1116   1127   1132     1  0.0000000  0.0000000  3
   1118   1116   1127   1130     1  0.0000000  0.6508444  3
   1118   1116   1127   1131     1  0.0000000  0.6508444  3
   1118   1116   1134   1121     1  0.0000000  1.6038667  3
   1119   1117   1137   1138     1  0.0000000  1.0460000  1
   1119   1117   1137   1138     1  0.0000000  0.6694400  3
   1119   1120   1121   1124     1  0.0000000  0.6508444  3
   1119   1120   1139   1129     1  0.0000000  1.2552000  3
   1120   1119   1117   1136     1  0.0000000  0.6508444  3
   1120   1119   1126   1128     1  0.0000000  1.0460000  1
   1120   1119   1126   1128     1  0.0000000  0.6694400  3
   1120   1121   1125   1135     1  0.0000000  1.0460000  1
   1120   1121   1125   1135     1  0.0000000  0.6694400  3
   1121   1120   1119   1123     1  0.0000000  0.6508444  3
   1121   1120   1139   1129     1  0.0000000  1.2552000  3
   1122   1120   1119   1126     1  0.0000000  1.0460000  1
   1122   1120   1119   1126     1  0.0000000  0.0000000  3
   1122   1120   1119   1123     1  0.0000000  0.6508444  3
   1122   1120   1121   1125     1  0.0000000  1.0460000  1
   1122   1120   1121   1125     1  0.0000000  0.0000000  3
   1122   1120   1121   1134     1  0.0000000  1.0460000  1
   1122   1120   1121   1134     1  0.0000000  0.0000000  3
   1122   1120   1121   1124     1  0.0000000  0.6508444  3
   1122   1120   1139   1129     1  0.0000000  1.2552000  3
   1123   1119   1117   1137     1  0.0000000  1.0460000  1
   1123   1119   1117   1137     1  0.0000000  0.0000000  3
   1123   1119   1117   1136     1  0.0000000  0.6508444  3
   1123   1119   1120   1139     1  0.0000000  0.6508444  3
   1123   1119   1126   1128     1  0.0000000  0.6973333  3
   1124   1121   1120   1139     1  0.0000000  0.6508444  3
   1124   1121   1125   1135     1  0.0000000  0.6973333  3
   1126   1119   1117   1136     1  0.0000000  1.0460000  1
   1126   1119   1117   1136     1  0.0000000  0.0000000  3
   1127   1116   1117   1136     1  0.0000000  0.6508444  3
   1130   1127   1116   1134     1  0.0000000  1.0460000  1
   1130   1127   1116   1134     1  0.0000000  0.0000000  3
   1130   1127   1132   1133     1  0.0000000  0.6973333  3
   1131   1127   1116   1134     1  0.0000000  1.0460000  1
   1131   1127   1116   1134     1  0.0000000  0.0000000  3
   1131   1127   1132   1133     1  0.0000000  0.6973333  3
   1134   1116   1117   1136     1  0.0000000  1.0460000  1
   1134   1116   1117   1136     1  0.0000000  0.0000000  3
   1134   1121   1125   1135     1  0.0000000  0.6973333  3
   1136   1117   1137   1138     1  0.0000000  0.6973333  3
   1141   1143   1145   1147     1  0.0000000  0.6508444  3
   1141   1143   1145   1148     1  0.0000000  0.6508444  3
   1142   1141   1143   1145     1  0.0000000  0.0000000  2
   1142   1141   1143   1144     1  0.0000000  0.0000000  2
   1142   1141   1143   1146     1  0.0000000  0.0000000  2
   1143   1145   1149   1214     1  0.0000000  0.6508444  3
   1144   1143   1145   1149     1  0.0000000  0.6508444  3
   1144   1143   1145   1147     1  0.0000000  0.6508444  3
   1144   1143   1145   1148     1  0.0000000  0.6508444  3
   1145   1149   1150   1159     1  0.0000000  0.6508444  3
   1145   1149   1150   1160     1  0.0000000  0.6508444  3
   1145   1149   1151   1152     1  0.0000000  0.6508444  3
   1145   1149   1151   1154     1  0.0000000  0.6508444  3
   1146   1143   1145   1149     1  0.0000000  0.6508444  3
   1146   1143   1145   1147     1  0.0000000  0.6508444  3
   1146   1143   1145   1148     1  0.0000000  0.6508444  3
   1147   1145   1149   1150     1  0.0000000  0.6508444  3
   1147   1145   1149   1151     1  0.0000000  0.6508444  3
   1147   1145   1149   1214     1  0.0000000  0.6508444  3
   1148   1145   1149   1150     1  0.0000000  0.6508444  3
   1148   1145   1149   1151     1  0.0000000  0.6508444  3
   1148   1145   1149   1214     1  0.0000000  0.6508444  3
   1149   1150   1161   1162     1  0.0000000  0.6508444  3
   1149   1150   1161   1163     1  0.0000000  0.6508444  3
   1149   1151   1153   1155     1  0.0000000  0.6508444  3
   1149   1151   1153   1156     1  0.0000000  0.6508444  3
   1150   1149   1151   1152     1  0.0000000  0.6508444  3
   1150   1149   1151   1154     1  0.0000000  0.6508444  3
   1151   1149   1150   1159     1  0.0000000  0.6508444  3
   1151   1149   1150   1160     1  0.0000000  0.6508444  3
   1152   1151   1153   1157     1  0.0000000  0.6508444  3
   1152   1151   1153   1155     1  0.0000000  0.6508444  3
   1152   1151   1153   1156     1  0.0000000  0.6508444  3
   1152   1151   1149   1214     1  0.0000000  0.6508444  3
   1153   1157   1189   1179     1  180.0000771  6.0668000  2
   1153   1157   1189   1179     1  180.0000771  1.4644000  4
   1153   1151   1149   1214     1  0.0000000  0.6508444  3
   1154   1151   1153   1157     1  0.0000000  0.6508444  3
   1154   1151   1153   1155     1  0.0000000  0.6508444  3
   1154   1151   1153   1156     1  0.0000000  0.6508444  3
   1154   1151   1149   1214     1  0.0000000  0.6508444  3
   1155   1153   1157   1158     1  0.0000000  3.3472000  1
   1155   1153   1157   1158     1  0.0000000  0.0000000  2
   1155   1153   1157   1158     1  180.0000771  0.3347200  3
   1155   1153   1157   1189     1  180.0000771  0.0000000  2
   1156   1153   1157   1158     1  0.0000000  3.3472000  1
   1156   1153   1157   1158     1  0.0000000  0.0000000  2
   1156   1153   1157   1158     1  180.0000771  0.3347200  3
   1156   1153   1157   1189     1  180.0000771  0.0000000  2
   1157   1189   1170   1172     1  0.0000000  1.2552000  3
   1158   1157   1189   1179     1  180.0000771  6.0668000  2
   1158   1157   1189   1179     1  180.0000771  1.4644000  4
   1159   1150   1161   1164     1  0.0000000  0.6508444  3
   1159   1150   1161   1162     1  0.0000000  0.6508444  3
   1159   1150   1161   1163     1  0.0000000  0.6508444  3
   1159   1150   1149   1214     1  0.0000000  0.6508444  3
   1160   1150   1161   1164     1  0.0000000  0.6508444  3
   1160   1150   1161   1162     1  0.0000000  0.6508444  3
   1160   1150   1161   1163     1  0.0000000  0.6508444  3
   1160   1150   1149   1214     1  0.0000000  0.6508444  3
   1161   1164   1213   1203     1  180.0000771  6.0668000  2
   1161   1164   1213   1203     1  180.0000771  1.4644000  4
   1161   1150   1149   1214     1  0.0000000  0.6508444  3
   1162   1161   1164   1165     1  0.0000000  3.3472000  1
   1162   1161   1164   1165     1  0.0000000  0.0000000  2
   1162   1161   1164   1165     1  180.0000771  0.3347200  3
   1162   1161   1164   1213     1  180.0000771  0.0000000  2
   1163   1161   1164   1165     1  0.0000000  3.3472000  1
   1163   1161   1164   1165     1  0.0000000  0.0000000  2
   1163   1161   1164   1165     1  180.0000771  0.3347200  3
   1163   1161   1164   1213     1  180.0000771  0.0000000  2
   1164   1213   1194   1196     1  0.0000000  1.2552000  3
   1165   1164   1213   1203     1  180.0000771  6.0668000  2
   1165   1164   1213   1203     1  180.0000771  1.4644000  4
   1166   1167   1169   1173     1  0.0000000  0.6508444  3
   1166   1167   1187   1188     1  0.0000000  1.0460000  1
   1166   1167   1187   1188     1  0.0000000  0.6694400  3
   1166   1177   1182   1183     1  0.0000000  1.0460000  1
   1166   1177   1182   1183     1  0.0000000  0.6694400  3
   1166   1184   1171   1174     1  0.0000000  1.6038667  3
   1167   1169   1170   1172     1  0.0000000  0.6508444  3
   1167   1169   1176   1178     1  0.0000000  1.0460000  1
   1167   1169   1176   1178     1  0.0000000  0.6694400  3
   1167   1166   1177   1180     1  0.0000000  0.6508444  3
   1167   1166   1177   1181     1  0.0000000  0.6508444  3
   1168   1166   1167   1169     1  0.0000000  0.6508444  3
   1168   1166   1167   1187     1  0.0000000  1.0460000  1
   1168   1166   1167   1187     1  0.0000000  0.0000000  3
   1168   1166   1167   1186     1  0.0000000  0.6508444  3
   1168   1166   1177   1182     1  0.0000000  1.0460000  1
   1168   1166   1177   1182     1  0.0000000  0.0000000  3
   1168   1166   1177   1180     1  0.0000000  0.6508444  3
   1168   1166   1177   1181     1  0.0000000  0.6508444  3
   1168   1166   1184   1171     1  0.0000000  1.6038667  3
   1169   1170   1171   1174     1  0.0000000  0.6508444  3
   1169   1170   1189   1179     1  0.0000000  1.2552000  3
   1169   1167   1187   1188     1  0.0000000  1.0460000  1
   1169   1167   1187   1188     1  0.0000000  0.6694400  3
   1170   1171   1175   1185     1  0.0000000  1.0460000  1
   1170   1171   1175   1185     1  0.0000000  0.6694400  3
   1170   1169   1176   1178     1  0.0000000  1.0460000  1
   1170   1169   1176   1178     1  0.0000000  0.6694400  3
   1170   1169   1167   1186     1  0.0000000  0.6508444  3
   1171   1170   1189   1179     1  0.0000000  1.2552000  3
   1171   1170   1169   1173     1  0.0000000  0.6508444  3
   1172   1170   1171   1175     1  0.0000000  1.0460000  1
   1172   1170   1171   1175     1  0.0000000  0.0000000  3
   1172   1170   1171   1184     1  0.0000000  1.0460000  1
   1172   1170   1171   1184     1  0.0000000  0.0000000  3
   1172   1170   1171   1174     1  0.0000000  0.6508444  3
   1172   1170   1189   1179     1  0.0000000  1.2552000  3
   1172   1170   1169   1176     1  0.0000000  1.0460000  1
   1172   1170   1169   1176     1  0.0000000  0.0000000  3
   1172   1170   1169   1173     1  0.0000000  0.6508444  3
   1173   1169   1170   1189     1  0.0000000  0.6508444  3
   1173   1169   1176   1178     1  0.0000000  0.6973333  3
   1173   1169   1167   1187     1  0.0000000  1.0460000  1
   1173   1169   1167   1187     1  0.0000000  0.0000000  3
   1173   1169   1167   1186     1  0.0000000  0.6508444  3
   1174   1171   1175   1185     1  0.0000000  0.6973333  3
   1174   1171   1170   1189     1  0.0000000  0.6508444  3
   1176   1169   1167   1186     1  0.0000000  1.0460000  1
   1176   1169   1167   1186     1  0.0000000  0.0000000  3
   1177   1166   1167   1186     1  0.0000000  0.6508444  3
   1180   1177   1182   1183     1  0.0000000  0.6973333  3
   1180   1177   1166   1184     1  0.0000000  1.0460000  1
   1180   1177   1166   1184     1  0.0000000  0.0000000  3
   1181   1177   1182   1183     1  0.0000000  0.6973333  3
   1181   1177   1166   1184     1  0.0000000  1.0460000  1
   1181   1177   1166   1184     1  0.0000000  0.0000000  3
   1184   1171   1175   1185     1  0.0000000  0.6973333  3
   1184   1166   1167   1186     1  0.0000000  1.0460000  1
   1184   1166   1167   1186     1  0.0000000  0.0000000  3
   1186   1167   1187   1188     1  0.0000000  0.6973333  3
   1190   1191   1193   1197     1  0.0000000  0.6508444  3
   1190   1191   1211   1212     1  0.0000000  1.0460000  1
   1190   1191   1211   1212     1  0.0000000  0.6694400  3
   1190   1201   1206   1207     1  0.0000000  1.0460000  1
   1190   1201   1206   1207     1  0.0000000  0.6694400  3
   1190   1208   1195   1198     1  0.0000000  1.6038667  3
   1191   1193   1194   1196     1  0.0000000  0.6508444  3
   1191   1193   1200   1202     1  0.0000000  1.0460000  1
   1191   1193   1200   1202     1  0.0000000  0.6694400  3
   1191   1190   1201   1204     1  0.0000000  0.6508444  3
   1191   1190   1201   1205     1  0.0000000  0.6508444  3
   1192   1190   1191   1193     1  0.0000000  0.6508444  3
   1192   1190   1191   1211     1  0.0000000  1.0460000  1
   1192   1190   1191   1211     1  0.0000000  0.0000000  3
   1192   1190   1191   1210     1  0.0000000  0.6508444  3
   1192   1190   1201   1206     1  0.0000000  1.0460000  1
   1192   1190   1201   1206     1  0.0000000  0.0000000  3
   1192   1190   1201   1204     1  0.0000000  0.6508444  3
   1192   1190   1201   1205     1  0.0000000  0.6508444  3
   1192   1190   1208   1195     1  0.0000000  1.6038667  3
   1193   1194   1195   1198     1  0.0000000  0.6508444  3
   1193   1194   1213   1203     1  0.0000000  1.2552000  3
   1193   1191   1211   1212     1  0.0000000  1.0460000  1
   1193   1191   1211   1212     1  0.0000000  0.6694400  3
   1194   1195   1199   1209     1  0.0000000  1.0460000  1
   1194   1195   1199   1209     1  0.0000000  0.6694400  3
   1194   1193   1200   1202     1  0.0000000  1.0460000  1
   1194   1193   1200   1202     1  0.0000000  0.6694400  3
   1194   1193   1191   1210     1  0.0000000  0.6508444  3
   1195   1194   1213   1203     1  0.0000000  1.2552000  3
   1195   1194   1193   1197     1  0.0000000  0.6508444  3
   1196   1194   1195   1199     1  0.0000000  1.0460000  1
   1196   1194   1195   1199     1  0.0000000  0.0000000  3
   1196   1194   1195   1208     1  0.0000000  1.0460000  1
   1196   1194   1195   1208     1  0.0000000  0.0000000  3
   1196   1194   1195   1198     1  0.0000000  0.6508444  3
   1196   1194   1213   1203     1  0.0000000  1.2552000  3
   1196   1194   1193   1200     1  0.0000000  1.0460000  1
   1196   1194   1193   1200     1  0.0000000  0.0000000  3
   1196   1194   1193   1197     1  0.0000000  0.6508444  3
   1197   1193   1194   1213     1  0.0000000  0.6508444  3
   1197   1193   1200   1202     1  0.0000000  0.6973333  3
   1197   1193   1191   1211     1  0.0000000  1.0460000  1
   1197   1193   1191   1211     1  0.0000000  0.0000000  3
   1197   1193   1191   1210     1  0.0000000  0.6508444  3
   1198   1195   1199   1209     1  0.0000000  0.6973333  3
   1198   1195   1194   1213     1  0.0000000  0.6508444  3
   1200   1193   1191   1210     1  0.0000000  1.0460000  1
   1200   1193   1191   1210     1  0.0000000  0.0000000  3
   1201   1190   1191   1210     1  0.0000000  0.6508444  3
   1204   1201   1206   1207     1  0.0000000  0.6973333  3
   1204   1201   1190   1208     1  0.0000000  1.0460000  1
   1204   1201   1190   1208     1  0.0000000  0.0000000  3
   1205   1201   1206   1207     1  0.0000000  0.6973333  3
   1205   1201   1190   1208     1  0.0000000  1.0460000  1
   1205   1201   1190   1208     1  0.0000000  0.0000000  3
   1208   1195   1199   1209     1  0.0000000  0.6973333  3
   1208   1190   1191   1210     1  0.0000000  1.0460000  1
   1208   1190   1191   1210     1  0.0000000  0.0000000  3
   1210   1191   1211   1212     1  0.0000000  0.6973333  3
   1215   1217   1219   1221     1  0.0000000  0.6508444  3
   1215   1217   1219   1222     1  0.0000000  0.6508444  3
   1216   1215   1217   1219     1  0.0000000  0.0000000  2
   1216   1215   1217   1218     1  0.0000000  0.0000000  2
   1216   1215   1217   1220     1  0.0000000  0.0000000  2
   1217   1219   1223   1288     1  0.0000000  0.6508444  3
   1218   1217   1219   1223     1  0.0000000  0.6508444  3
   1218   1217   1219   1221     1  0.0000000  0.6508444  3
   1218   1217   1219   1222     1  0.0000000  0.6508444  3
   1219   1223   1224   1233     1  0.0000000  0.6508444  3
   1219   1223   1224   1234     1  0.0000000  0.6508444  3
   1219   1223   1225   1226     1  0.0000000  0.6508444  3
   1219   1223   1225   1228     1  0.0000000  0.6508444  3
   1220   1217   1219   1223     1  0.0000000  0.6508444  3
   1220   1217   1219   1221     1  0.0000000  0.6508444  3
   1220   1217   1219   1222     1  0.0000000  0.6508444  3
   1221   1219   1223   1224     1  0.0000000  0.6508444  3
   1221   1219   1223   1225     1  0.0000000  0.6508444  3
   1221   1219   1223   1288     1  0.0000000  0.6508444  3
   1222   1219   1223   1224     1  0.0000000  0.6508444  3
   1222   1219   1223   1225     1  0.0000000  0.6508444  3
   1222   1219   1223   1288     1  0.0000000  0.6508444  3
   1223   1224   1235   1236     1  0.0000000  0.6508444  3
   1223   1224   1235   1237     1  0.0000000  0.6508444  3
   1223   1225   1227   1229     1  0.0000000  0.6508444  3
   1223   1225   1227   1230     1  0.0000000  0.6508444  3
   1224   1223   1225   1226     1  0.0000000  0.6508444  3
   1224   1223   1225   1228     1  0.0000000  0.6508444  3
   1225   1223   1224   1233     1  0.0000000  0.6508444  3
   1225   1223   1224   1234     1  0.0000000  0.6508444  3
   1226   1225   1223   1288     1  0.0000000  0.6508444  3
   1226   1225   1227   1231     1  0.0000000  0.6508444  3
   1226   1225   1227   1229     1  0.0000000  0.6508444  3
   1226   1225   1227   1230     1  0.0000000  0.6508444  3
   1227   1225   1223   1288     1  0.0000000  0.6508444  3
   1227   1231   1263   1253     1  180.0000771  6.0668000  2
   1227   1231   1263   1253     1  180.0000771  1.4644000  4
   1228   1225   1223   1288     1  0.0000000  0.6508444  3
   1228   1225   1227   1231     1  0.0000000  0.6508444  3
   1228   1225   1227   1229     1  0.0000000  0.6508444  3
   1228   1225   1227   1230     1  0.0000000  0.6508444  3
   1229   1227   1231   1232     1  0.0000000  3.3472000  1
   1229   1227   1231   1232     1  0.0000000  0.0000000  2
   1229   1227   1231   1232     1  180.0000771  0.3347200  3
   1229   1227   1231   1263     1  180.0000771  0.0000000  2
   1230   1227   1231   1232     1  0.0000000  3.3472000  1
   1230   1227   1231   1232     1  0.0000000  0.0000000  2
   1230   1227   1231   1232     1  180.0000771  0.3347200  3
   1230   1227   1231   1263     1  180.0000771  0.0000000  2
   1231   1263   1244   1246     1  0.0000000  1.2552000  3
   1232   1231   1263   1253     1  180.0000771  6.0668000  2
   1232   1231   1263   1253     1  180.0000771  1.4644000  4
   1233   1224   1223   1288     1  0.0000000  0.6508444  3
   1233   1224   1235   1238     1  0.0000000  0.6508444  3
   1233   1224   1235   1236     1  0.0000000  0.6508444  3
   1233   1224   1235   1237     1  0.0000000  0.6508444  3
   1234   1224   1223   1288     1  0.0000000  0.6508444  3
   1234   1224   1235   1238     1  0.0000000  0.6508444  3
   1234   1224   1235   1236     1  0.0000000  0.6508444  3
   1234   1224   1235   1237     1  0.0000000  0.6508444  3
   1235   1224   1223   1288     1  0.0000000  0.6508444  3
   1235   1238   1287   1277     1  180.0000771  6.0668000  2
   1235   1238   1287   1277     1  180.0000771  1.4644000  4
   1236   1235   1238   1239     1  0.0000000  3.3472000  1
   1236   1235   1238   1239     1  0.0000000  0.0000000  2
   1236   1235   1238   1239     1  180.0000771  0.3347200  3
   1236   1235   1238   1287     1  180.0000771  0.0000000  2
   1237   1235   1238   1239     1  0.0000000  3.3472000  1
   1237   1235   1238   1239     1  0.0000000  0.0000000  2
   1237   1235   1238   1239     1  180.0000771  0.3347200  3
   1237   1235   1238   1287     1  180.0000771  0.0000000  2
   1238   1287   1268   1270     1  0.0000000  1.2552000  3
   1239   1238   1287   1277     1  180.0000771  6.0668000  2
   1239   1238   1287   1277     1  180.0000771  1.4644000  4
   1240   1241   1243   1247     1  0.0000000  0.6508444  3
   1240   1241   1261   1262     1  0.0000000  1.0460000  1
   1240   1241   1261   1262     1  0.0000000  0.6694400  3
   1240   1251   1256   1257     1  0.0000000  1.0460000  1
   1240   1251   1256   1257     1  0.0000000  0.6694400  3
   1240   1258   1245   1248     1  0.0000000  1.6038667  3
   1241   1240   1251   1254     1  0.0000000  0.6508444  3
   1241   1240   1251   1255     1  0.0000000  0.6508444  3
   1241   1243   1244   1246     1  0.0000000  0.6508444  3
   1241   1243   1250   1252     1  0.0000000  1.0460000  1
   1241   1243   1250   1252     1  0.0000000  0.6694400  3
   1242   1240   1241   1243     1  0.0000000  0.6508444  3
   1242   1240   1241   1261     1  0.0000000  1.0460000  1
   1242   1240   1241   1261     1  0.0000000  0.0000000  3
   1242   1240   1241   1260     1  0.0000000  0.6508444  3
   1242   1240   1251   1256     1  0.0000000  1.0460000  1
   1242   1240   1251   1256     1  0.0000000  0.0000000  3
   1242   1240   1251   1254     1  0.0000000  0.6508444  3
   1242   1240   1251   1255     1  0.0000000  0.6508444  3
   1242   1240   1258   1245     1  0.0000000  1.6038667  3
   1243   1241   1261   1262     1  0.0000000  1.0460000  1
   1243   1241   1261   1262     1  0.0000000  0.6694400  3
   1243   1244   1245   1248     1  0.0000000  0.6508444  3
   1243   1244   1263   1253     1  0.0000000  1.2552000  3
   1244   1243   1241   1260     1  0.0000000  0.6508444  3
   1244   1243   1250   1252     1  0.0000000  1.0460000  1
   1244   1243   1250   1252     1  0.0000000  0.6694400  3
   1244   1245   1249   1259     1  0.0000000  1.0460000  1
   1244   1245   1249   1259     1  0.0000000  0.6694400  3
   1245   1244   1243   1247     1  0.0000000  0.6508444  3
   1245   1244   1263   1253     1  0.0000000  1.2552000  3
   1246   1244   1243   1250     1  0.0000000  1.0460000  1
   1246   1244   1243   1250     1  0.0000000  0.0000000  3
   1246   1244   1243   1247     1  0.0000000  0.6508444  3
   1246   1244   1245   1249     1  0.0000000  1.0460000  1
   1246   1244   1245   1249     1  0.0000000  0.0000000  3
   1246   1244   1245   1258     1  0.0000000  1.0460000  1
   1246   1244   1245   1258     1  0.0000000  0.0000000  3
   1246   1244   1245   1248     1  0.0000000  0.6508444  3
   1246   1244   1263   1253     1  0.0000000  1.2552000  3
   1247   1243   1241   1261     1  0.0000000  1.0460000  1
   1247   1243   1241   1261     1  0.0000000  0.0000000  3
   1247   1243   1241   1260     1  0.0000000  0.6508444  3
   1247   1243   1244   1263     1  0.0000000  0.6508444  3
   1247   1243   1250   1252     1  0.0000000  0.6973333  3
   1248   1245   1244   1263     1  0.0000000  0.6508444  3
   1248   1245   1249   1259     1  0.0000000  0.6973333  3
   1250   1243   1241   1260     1  0.0000000  1.0460000  1
   1250   1243   1241   1260     1  0.0000000  0.0000000  3
   1251   1240   1241   1260     1  0.0000000  0.6508444  3
   1254   1251   1240   1258     1  0.0000000  1.0460000  1
   1254   1251   1240   1258     1  0.0000000  0.0000000  3
   1254   1251   1256   1257     1  0.0000000  0.6973333  3
   1255   1251   1240   1258     1  0.0000000  1.0460000  1
   1255   1251   1240   1258     1  0.0000000  0.0000000  3
   1255   1251   1256   1257     1  0.0000000  0.6973333  3
   1258   1240   1241   1260     1  0.0000000  1.0460000  1
   1258   1240   1241   1260     1  0.0000000  0.0000000  3
   1258   1245   1249   1259     1  0.0000000  0.6973333  3
   1260   1241   1261   1262     1  0.0000000  0.6973333  3
   1264   1265   1267   1271     1  0.0000000  0.6508444  3
   1264   1265   1285   1286     1  0.0000000  1.0460000  1
   1264   1265   1285   1286     1  0.0000000  0.6694400  3
   1264   1275   1280   1281     1  0.0000000  1.0460000  1
   1264   1275   1280   1281     1  0.0000000  0.6694400  3
   1264   1282   1269   1272     1  0.0000000  1.6038667  3
   1265   1264   1275   1278     1  0.0000000  0.6508444  3
   1265   1264   1275   1279     1  0.0000000  0.6508444  3
   1265   1267   1268   1270     1  0.0000000  0.6508444  3
   1265   1267   1274   1276     1  0.0000000  1.0460000  1
   1265   1267   1274   1276     1  0.0000000  0.6694400  3
   1266   1264   1265   1267     1  0.0000000  0.6508444  3
   1266   1264   1265   1285     1  0.0000000  1.0460000  1
   1266   1264   1265   1285     1  0.0000000  0.0000000  3
   1266   1264   1265   1284     1  0.0000000  0.6508444  3
   1266   1264   1275   1280     1  0.0000000  1.0460000  1
   1266   1264   1275   1280     1  0.0000000  0.0000000  3
   1266   1264   1275   1278     1  0.0000000  0.6508444  3
   1266   1264   1275   1279     1  0.0000000  0.6508444  3
   1266   1264   1282   1269     1  0.0000000  1.6038667  3
   1267   1265   1285   1286     1  0.0000000  1.0460000  1
   1267   1265   1285   1286     1  0.0000000  0.6694400  3
   1267   1268   1269   1272     1  0.0000000  0.6508444  3
   1267   1268   1287   1277     1  0.0000000  1.2552000  3
   1268   1267   1265   1284     1  0.0000000  0.6508444  3
   1268   1267   1274   1276     1  0.0000000  1.0460000  1
   1268   1267   1274   1276     1  0.0000000  0.6694400  3
   1268   1269   1273   1283     1  0.0000000  1.0460000  1
   1268   1269   1273   1283     1  0.0000000  0.6694400  3
   1269   1268   1267   1271     1  0.0000000  0.6508444  3
   1269   1268   1287   1277     1  0.0000000  1.2552000  3
   1270   1268   1267   1274     1  0.0000000  1.0460000  1
   1270   1268   1267   1274     1  0.0000000  0.0000000  3
   1270   1268   1267   1271     1  0.0000000  0.6508444  3
   1270   1268   1269   1273     1  0.0000000  1.0460000  1
   1270   1268   1269   1273     1  0.0000000  0.0000000  3
   1270   1268   1269   1282     1  0.0000000  1.0460000  1
   1270   1268   1269   1282     1  0.0000000  0.0000000  3
   1270   1268   1269   1272     1  0.0000000  0.6508444  3
   1270   1268   1287   1277     1  0.0000000  1.2552000  3
   1271   1267   1265   1285     1  0.0000000  1.0460000  1
   1271   1267   1265   1285     1  0.0000000  0.0000000  3
   1271   1267   1265   1284     1  0.0000000  0.6508444  3
   1271   1267   1268   1287     1  0.0000000  0.6508444  3
   1271   1267   1274   1276     1  0.0000000  0.6973333  3
   1272   1269   1268   1287     1  0.0000000  0.6508444  3
   1272   1269   1273   1283     1  0.0000000  0.6973333  3
   1274   1267   1265   1284     1  0.0000000  1.0460000  1
   1274   1267   1265   1284     1  0.0000000  0.0000000  3
   1275   1264   1265   1284     1  0.0000000  0.6508444  3
   1278   1275   1264   1282     1  0.0000000  1.0460000  1
   1278   1275   1264   1282     1  0.0000000  0.0000000  3
   1278   1275   1280   1281     1  0.0000000  0.6973333  3
   1279   1275   1264   1282     1  0.0000000  1.0460000  1
   1279   1275   1264   1282     1  0.0000000  0.0000000  3
   1279   1275   1280   1281     1  0.0000000  0.6973333  3
   1282   1264   1265   1284     1  0.0000000  1.0460000  1
   1282   1264   1265   1284     1  0.0000000  0.0000000  3
   1282   1269   1273   1283     1  0.0000000  0.6973333  3
   1284   1265   1285   1286     1  0.0000000  0.6973333  3
   1289   1291   1293   1295     1  0.0000000  0.6508444  3
   1289   1291   1293   1296     1  0.0000000  0.6508444  3
   1290   1289   1291   1293     1  0.0000000  0.0000000  2
   1290   1289   1291   1292     1  0.0000000  0.0000000  2
   1290   1289   1291   1294     1  0.0000000  0.0000000  2
   1291   1293   1297   1362     1  0.0000000  0.6508444  3
   1292   1291   1293   1297     1  0.0000000  0.6508444  3
   1292   1291   1293   1295     1  0.0000000  0.6508444  3
   1292   1291   1293   1296     1  0.0000000  0.6508444  3
   1293   1297   1298   1307     1  0.0000000  0.6508444  3
   1293   1297   1298   1308     1  0.0000000  0.6508444  3
   1293   1297   1299   1300     1  0.0000000  0.6508444  3
   1293   1297   1299   1302     1  0.0000000  0.6508444  3
   1294   1291   1293   1297     1  0.0000000  0.6508444  3
   1294   1291   1293   1295     1  0.0000000  0.6508444  3
   1294   1291   1293   1296     1  0.0000000  0.6508444  3
   1295   1293   1297   1298     1  0.0000000  0.6508444  3
   1295   1293   1297   1299     1  0.0000000  0.6508444  3
   1295   1293   1297   1362     1  0.0000000  0.6508444  3
   1296   1293   1297   1298     1  0.0000000  0.6508444  3
   1296   1293   1297   1299     1  0.0000000  0.6508444  3
   1296   1293   1297   1362     1  0.0000000  0.6508444  3
   1297   1298   1309   1310     1  0.0000000  0.6508444  3
   1297   1298   1309   1311     1  0.0000000  0.6508444  3
   1297   1299   1301   1303     1  0.0000000  0.6508444  3
   1297   1299   1301   1304     1  0.0000000  0.6508444  3
   1298   1297   1299   1300     1  0.0000000  0.6508444  3
   1298   1297   1299   1302     1  0.0000000  0.6508444  3
   1299   1297   1298   1307     1  0.0000000  0.6508444  3
   1299   1297   1298   1308     1  0.0000000  0.6508444  3
   1300   1299   1301   1305     1  0.0000000  0.6508444  3
   1300   1299   1301   1303     1  0.0000000  0.6508444  3
   1300   1299   1301   1304     1  0.0000000  0.6508444  3
   1300   1299   1297   1362     1  0.0000000  0.6508444  3
   1301   1305   1337   1327     1  180.0000771  6.0668000  2
   1301   1305   1337   1327     1  180.0000771  1.4644000  4
   1301   1299   1297   1362     1  0.0000000  0.6508444  3
   1302   1299   1301   1305     1  0.0000000  0.6508444  3
   1302   1299   1301   1303     1  0.0000000  0.6508444  3
   1302   1299   1301   1304     1  0.0000000  0.6508444  3
   1302   1299   1297   1362     1  0.0000000  0.6508444  3
   1303   1301   1305   1306     1  0.0000000  3.3472000  1
   1303   1301   1305   1306     1  0.0000000  0.0000000  2
   1303   1301   1305   1306     1  180.0000771  0.3347200  3
   1303   1301   1305   1337     1  180.0000771  0.0000000  2
   1304   1301   1305   1306     1  0.0000000  3.3472000  1
   1304   1301   1305   1306     1  0.0000000  0.0000000  2
   1304   1301   1305   1306     1  180.0000771  0.3347200  3
   1304   1301   1305   1337     1  180.0000771  0.0000000  2
   1305   1337   1318   1320     1  0.0000000  1.2552000  3
   1306   1305   1337   1327     1  180.0000771  6.0668000  2
   1306   1305   1337   1327     1  180.0000771  1.4644000  4
   1307   1298   1309   1312     1  0.0000000  0.6508444  3
   1307   1298   1309   1310     1  0.0000000  0.6508444  3
   1307   1298   1309   1311     1  0.0000000  0.6508444  3
   1307   1298   1297   1362     1  0.0000000  0.6508444  3
   1308   1298   1309   1312     1  0.0000000  0.6508444  3
   1308   1298   1309   1310     1  0.0000000  0.6508444  3
   1308   1298   1309   1311     1  0.0000000  0.6508444  3
   1308   1298   1297   1362     1  0.0000000  0.6508444  3
   1309   1312   1361   1351     1  180.0000771  6.0668000  2
   1309   1312   1361   1351     1  180.0000771  1.4644000  4
   1309   1298   1297   1362     1  0.0000000  0.6508444  3
   1310   1309   1312   1313     1  0.0000000  3.3472000  1
   1310   1309   1312   1313     1  0.0000000  0.0000000  2
   1310   1309   1312   1313     1  180.0000771  0.3347200  3
   1310   1309   1312   1361     1  180.0000771  0.0000000  2
   1311   1309   1312   1313     1  0.0000000  3.3472000  1
   1311   1309   1312   1313     1  0.0000000  0.0000000  2
   1311   1309   1312   1313     1  180.0000771  0.3347200  3
   1311   1309   1312   1361     1  180.0000771  0.0000000  2
   1312   1361   1342   1344     1  0.0000000  1.2552000  3
   1313   1312   1361   1351     1  180.0000771  6.0668000  2
   1313   1312   1361   1351     1  180.0000771  1.4644000  4
   1314   1315   1317   1321     1  0.0000000  0.6508444  3
   1314   1315   1335   1336     1  0.0000000  1.0460000  1
   1314   1315   1335   1336     1  0.0000000  0.6694400  3
   1314   1325   1330   1331     1  0.0000000  1.0460000  1
   1314   1325   1330   1331     1  0.0000000  0.6694400  3
   1314   1332   1319   1322     1  0.0000000  1.6038667  3
   1315   1317   1318   1320     1  0.0000000  0.6508444  3
   1315   1317   1324   1326     1  0.0000000  1.0460000  1
   1315   1317   1324   1326     1  0.0000000  0.6694400  3
   1315   1314   1325   1328     1  0.0000000  0.6508444  3
   1315   1314   1325   1329     1  0.0000000  0.6508444  3
   1316   1314   1315   1317     1  0.0000000  0.6508444  3
   1316   1314   1315   1335     1  0.0000000  1.0460000  1
   1316   1314   1315   1335     1  0.0000000  0.0000000  3
   1316   1314   1315   1334     1  0.0000000  0.6508444  3
   1316   1314   1325   1330     1  0.0000000  1.0460000  1
   1316   1314   1325   1330     1  0.0000000  0.0000000  3
   1316   1314   1325   1328     1  0.0000000  0.6508444  3
   1316   1314   1325   1329     1  0.0000000  0.6508444  3
   1316   1314   1332   1319     1  0.0000000  1.6038667  3
   1317   1318   1319   1322     1  0.0000000  0.6508444  3
   1317   1318   1337   1327     1  0.0000000  1.2552000  3
   1317   1315   1335   1336     1  0.0000000  1.0460000  1
   1317   1315   1335   1336     1  0.0000000  0.6694400  3
   1318   1319   1323   1333     1  0.0000000  1.0460000  1
   1318   1319   1323   1333     1  0.0000000  0.6694400  3
   1318   1317   1324   1326     1  0.0000000  1.0460000  1
   1318   1317   1324   1326     1  0.0000000  0.6694400  3
   1318   1317   1315   1334     1  0.0000000  0.6508444  3
   1319   1318   1337   1327     1  0.0000000  1.2552000  3
   1319   1318   1317   1321     1  0.0000000  0.6508444  3
   1320   1318   1319   1323     1  0.0000000  1.0460000  1
   1320   1318   1319   1323     1  0.0000000  0.0000000  3
   1320   1318   1319   1332     1  0.0000000  1.0460000  1
   1320   1318   1319   1332     1  0.0000000  0.0000000  3
   1320   1318   1319   1322     1  0.0000000  0.6508444  3
   1320   1318   1337   1327     1  0.0000000  1.2552000  3
   1320   1318   1317   1324     1  0.0000000  1.0460000  1
   1320   1318   1317   1324     1  0.0000000  0.0000000  3
   1320   1318   1317   1321     1  0.0000000  0.6508444  3
   1321   1317   1318   1337     1  0.0000000  0.6508444  3
   1321   1317   1324   1326     1  0.0000000  0.6973333  3
   1321   1317   1315   1335     1  0.0000000  1.0460000  1
   1321   1317   1315   1335     1  0.0000000  0.0000000  3
   1321   1317   1315   1334     1  0.0000000  0.6508444  3
   1322   1319   1323   1333     1  0.0000000  0.6973333  3
   1322   1319   1318   1337     1  0.0000000  0.6508444  3
   1324   1317   1315   1334     1  0.0000000  1.0460000  1
   1324   1317   1315   1334     1  0.0000000  0.0000000  3
   1325   1314   1315   1334     1  0.0000000  0.6508444  3
   1328   1325   1330   1331     1  0.0000000  0.6973333  3
   1328   1325   1314   1332     1  0.0000000  1.0460000  1
   1328   1325   1314   1332     1  0.0000000  0.0000000  3
   1329   1325   1330   1331     1  0.0000000  0.6973333  3
   1329   1325   1314   1332     1  0.0000000  1.0460000  1
   1329   1325   1314   1332     1  0.0000000  0.0000000  3
   1332   1319   1323   1333     1  0.0000000  0.6973333  3
   1332   1314   1315   1334     1  0.0000000  1.0460000  1
   1332   1314   1315   1334     1  0.0000000  0.0000000  3
   1334   1315   1335   1336     1  0.0000000  0.6973333  3
   1338   1339   1341   1345     1  0.0000000  0.6508444  3
   1338   1339   1359   1360     1  0.0000000  1.0460000  1
   1338   1339   1359   1360     1  0.0000000  0.6694400  3
   1338   1349   1354   1355     1  0.0000000  1.0460000  1
   1338   1349   1354   1355     1  0.0000000  0.6694400  3
   1338   1356   1343   1346     1  0.0000000  1.6038667  3
   1339   1341   1342   1344     1  0.0000000  0.6508444  3
   1339   1341   1348   1350     1  0.0000000  1.0460000  1
   1339   1341   1348   1350     1  0.0000000  0.6694400  3
   1339   1338   1349   1352     1  0.0000000  0.6508444  3
   1339   1338   1349   1353     1  0.0000000  0.6508444  3
   1340   1338   1339   1341     1  0.0000000  0.6508444  3
   1340   1338   1339   1359     1  0.0000000  1.0460000  1
   1340   1338   1339   1359     1  0.0000000  0.0000000  3
   1340   1338   1339   1358     1  0.0000000  0.6508444  3
   1340   1338   1349   1354     1  0.0000000  1.0460000  1
   1340   1338   1349   1354     1  0.0000000  0.0000000  3
   1340   1338   1349   1352     1  0.0000000  0.6508444  3
   1340   1338   1349   1353     1  0.0000000  0.6508444  3
   1340   1338   1356   1343     1  0.0000000  1.6038667  3
   1341   1342   1343   1346     1  0.0000000  0.6508444  3
   1341   1342   1361   1351     1  0.0000000  1.2552000  3
   1341   1339   1359   1360     1  0.0000000  1.0460000  1
   1341   1339   1359   1360     1  0.0000000  0.6694400  3
   1342   1343   1347   1357     1  0.0000000  1.0460000  1
   1342   1343   1347   1357     1  0.0000000  0.6694400  3
   1342   1341   1348   1350     1  0.0000000  1.0460000  1
   1342   1341   1348   1350     1  0.0000000  0.6694400  3
   1342   1341   1339   1358     1  0.0000000  0.6508444  3
   1343   1342   1361   1351     1  0.0000000  1.2552000  3
   1343   1342   1341   1345     1  0.0000000  0.6508444  3
   1344   1342   1343   1347     1  0.0000000  1.0460000  1
   1344   1342   1343   1347     1  0.0000000  0.0000000  3
   1344   1342   1343   1356     1  0.0000000  1.0460000  1
   1344   1342   1343   1356     1  0.0000000  0.0000000  3
   1344   1342   1343   1346     1  0.0000000  0.6508444  3
   1344   1342   1361   1351     1  0.0000000  1.2552000  3
   1344   1342   1341   1348     1  0.0000000  1.0460000  1
   1344   1342   1341   1348     1  0.0000000  0.0000000  3
   1344   1342   1341   1345     1  0.0000000  0.6508444  3
   1345   1341   1342   1361     1  0.0000000  0.6508444  3
   1345   1341   1348   1350     1  0.0000000  0.6973333  3
   1345   1341   1339   1359     1  0.0000000  1.0460000  1
   1345   1341   1339   1359     1  0.0000000  0.0000000  3
   1345   1341   1339   1358     1  0.0000000  0.6508444  3
   1346   1343   1347   1357     1  0.0000000  0.6973333  3
   1346   1343   1342   1361     1  0.0000000  0.6508444  3
   1348   1341   1339   1358     1  0.0000000  1.0460000  1
   1348   1341   1339   1358     1  0.0000000  0.0000000  3
   1349   1338   1339   1358     1  0.0000000  0.6508444  3
   1352   1349   1354   1355     1  0.0000000  0.6973333  3
   1352   1349   1338   1356     1  0.0000000  1.0460000  1
   1352   1349   1338   1356     1  0.0000000  0.0000000  3
   1353   1349   1354   1355     1  0.0000000  0.6973333  3
   1353   1349   1338   1356     1  0.0000000  1.0460000  1
   1353   1349   1338   1356     1  0.0000000  0.0000000  3
   1356   1343   1347   1357     1  0.0000000  0.6973333  3
   1356   1338   1339   1358     1  0.0000000  1.0460000  1
   1356   1338   1339   1358     1  0.0000000  0.0000000  3
   1358   1339   1359   1360     1  0.0000000  0.6973333  3
   1363   1365   1367   1369     1  0.0000000  0.6508444  3
   1363   1365   1367   1370     1  0.0000000  0.6508444  3
   1364   1363   1365   1367     1  0.0000000  0.0000000  2
   1364   1363   1365   1366     1  0.0000000  0.0000000  2
   1364   1363   1365   1368     1  0.0000000  0.0000000  2
   1365   1367   1371   1436     1  0.0000000  0.6508444  3
   1366   1365   1367   1371     1  0.0000000  0.6508444  3
   1366   1365   1367   1369     1  0.0000000  0.6508444  3
   1366   1365   1367   1370     1  0.0000000  0.6508444  3
   1367   1371   1372   1381     1  0.0000000  0.6508444  3
   1367   1371   1372   1382     1  0.0000000  0.6508444  3
   1367   1371   1373   1374     1  0.0000000  0.6508444  3
   1367   1371   1373   1376     1  0.0000000  0.6508444  3
   1368   1365   1367   1371     1  0.0000000  0.6508444  3
   1368   1365   1367   1369     1  0.0000000  0.6508444  3
   1368   1365   1367   1370     1  0.0000000  0.6508444  3
   1369   1367   1371   1372     1  0.0000000  0.6508444  3
   1369   1367   1371   1373     1  0.0000000  0.6508444  3
   1369   1367   1371   1436     1  0.0000000  0.6508444  3
   1370   1367   1371   1372     1  0.0000000  0.6508444  3
   1370   1367   1371   1373     1  0.0000000  0.6508444  3
   1370   1367   1371   1436     1  0.0000000  0.6508444  3
   1371   1372   1383   1384     1  0.0000000  0.6508444  3
   1371   1372   1383   1385     1  0.0000000  0.6508444  3
   1371   1373   1375   1377     1  0.0000000  0.6508444  3
   1371   1373   1375   1378     1  0.0000000  0.6508444  3
   1372   1371   1373   1374     1  0.0000000  0.6508444  3
   1372   1371   1373   1376     1  0.0000000  0.6508444  3
   1373   1371   1372   1381     1  0.0000000  0.6508444  3
   1373   1371   1372   1382     1  0.0000000  0.6508444  3
   1374   1373   1371   1436     1  0.0000000  0.6508444  3
   1374   1373   1375   1379     1  0.0000000  0.6508444  3
   1374   1373   1375   1377     1  0.0000000  0.6508444  3
   1374   1373   1375   1378     1  0.0000000  0.6508444  3
   1375   1373   1371   1436     1  0.0000000  0.6508444  3
   1375   1379   1411   1401     1  180.0000771  6.0668000  2
   1375   1379   1411   1401     1  180.0000771  1.4644000  4
   1376   1373   1371   1436     1  0.0000000  0.6508444  3
   1376   1373   1375   1379     1  0.0000000  0.6508444  3
   1376   1373   1375   1377     1  0.0000000  0.6508444  3
   1376   1373   1375   1378     1  0.0000000  0.6508444  3
   1377   1375   1379   1380     1  0.0000000  3.3472000  1
   1377   1375   1379   1380     1  0.0000000  0.0000000  2
   1377   1375   1379   1380     1  180.0000771  0.3347200  3
   1377   1375   1379   1411     1  180.0000771  0.0000000  2
   1378   1375   1379   1380     1  0.0000000  3.3472000  1
   1378   1375   1379   1380     1  0.0000000  0.0000000  2
   1378   1375   1379   1380     1  180.0000771  0.3347200  3
   1378   1375   1379   1411     1  180.0000771  0.0000000  2
   1379   1411   1392   1394     1  0.0000000  1.2552000  3
   1380   1379   1411   1401     1  180.0000771  6.0668000  2
   1380   1379   1411   1401     1  180.0000771  1.4644000  4
   1381   1372   1371   1436     1  0.0000000  0.6508444  3
   1381   1372   1383   1386     1  0.0000000  0.6508444  3
   1381   1372   1383   1384     1  0.0000000  0.6508444  3
   1381   1372   1383   1385     1  0.0000000  0.6508444  3
   1382   1372   1371   1436     1  0.0000000  0.6508444  3
   1382   1372   1383   1386     1  0.0000000  0.6508444  3
   1382   1372   1383   1384     1  0.0000000  0.6508444  3
   1382   1372   1383   1385     1  0.0000000  0.6508444  3
   1383   1372   1371   1436     1  0.0000000  0.6508444  3
   1383   1386   1435   1425     1  180.0000771  6.0668000  2
   1383   1386   1435   1425     1  180.0000771  1.4644000  4
   1384   1383   1386   1387     1  0.0000000  3.3472000  1
   1384   1383   1386   1387     1  0.0000000  0.0000000  2
   1384   1383   1386   1387     1  180.0000771  0.3347200  3
   1384   1383   1386   1435     1  180.0000771  0.0000000  2
   1385   1383   1386   1387     1  0.0000000  3.3472000  1
   1385   1383   1386   1387     1  0.0000000  0.0000000  2
   1385   1383   1386   1387     1  180.0000771  0.3347200  3
   1385   1383   1386   1435     1  180.0000771  0.0000000  2
   1386   1435   1416   1418     1  0.0000000  1.2552000  3
   1387   1386   1435   1425     1  180.0000771  6.0668000  2
   1387   1386   1435   1425     1  180.0000771  1.4644000  4
   1388   1389   1391   1395     1  0.0000000  0.6508444  3
   1388   1389   1409   1410     1  0.0000000  1.0460000  1
   1388   1389   1409   1410     1  0.0000000  0.6694400  3
   1388   1399   1404   1405     1  0.0000000  1.0460000  1
   1388   1399   1404   1405     1  0.0000000  0.6694400  3
   1388   1406   1393   1396     1  0.0000000  1.6038667  3
   1389   1388   1399   1402     1  0.0000000  0.6508444  3
   1389   1388   1399   1403     1  0.0000000  0.6508444  3
   1389   1391   1392   1394     1  0.0000000  0.6508444  3
   1389   1391   1398   1400     1  0.0000000  1.0460000  1
   1389   1391   1398   1400     1  0.0000000  0.6694400  3
   1390   1388   1389   1391     1  0.0000000  0.6508444  3
   1390   1388   1389   1409     1  0.0000000  1.0460000  1
   1390   1388   1389   1409     1  0.0000000  0.0000000  3
   1390   1388   1389   1408     1  0.0000000  0.6508444  3
   1390   1388   1399   1404     1  0.0000000  1.0460000  1
   1390   1388   1399   1404     1  0.0000000  0.0000000  3
   1390   1388   1399   1402     1  0.0000000  0.6508444  3
   1390   1388   1399   1403     1  0.0000000  0.6508444  3
   1390   1388   1406   1393     1  0.0000000  1.6038667  3
   1391   1389   1409   1410     1  0.0000000  1.0460000  1
   1391   1389   1409   1410     1  0.0000000  0.6694400  3
   1391   1392   1393   1396     1  0.0000000  0.6508444  3
   1391   1392   1411   1401     1  0.0000000  1.2552000  3
   1392   1391   1389   1408     1  0.0000000  0.6508444  3
   1392   1391   1398   1400     1  0.0000000  1.0460000  1
   1392   1391   1398   1400     1  0.0000000  0.6694400  3
   1392   1393   1397   1407     1  0.0000000  1.0460000  1
   1392   1393   1397   1407     1  0.0000000  0.6694400  3
   1393   1392   1391   1395     1  0.0000000  0.6508444  3
   1393   1392   1411   1401     1  0.0000000  1.2552000  3
   1394   1392   1391   1398     1  0.0000000  1.0460000  1
   1394   1392   1391   1398     1  0.0000000  0.0000000  3
   1394   1392   1391   1395     1  0.0000000  0.6508444  3
   1394   1392   1393   1397     1  0.0000000  1.0460000  1
   1394   1392   1393   1397     1  0.0000000  0.0000000  3
   1394   1392   1393   1406     1  0.0000000  1.0460000  1
   1394   1392   1393   1406     1  0.0000000  0.0000000  3
   1394   1392   1393   1396     1  0.0000000  0.6508444  3
   1394   1392   1411   1401     1  0.0000000  1.2552000  3
   1395   1391   1389   1409     1  0.0000000  1.0460000  1
   1395   1391   1389   1409     1  0.0000000  0.0000000  3
   1395   1391   1389   1408     1  0.0000000  0.6508444  3
   1395   1391   1392   1411     1  0.0000000  0.6508444  3
   1395   1391   1398   1400     1  0.0000000  0.6973333  3
   1396   1393   1392   1411     1  0.0000000  0.6508444  3
   1396   1393   1397   1407     1  0.0000000  0.6973333  3
   1398   1391   1389   1408     1  0.0000000  1.0460000  1
   1398   1391   1389   1408     1  0.0000000  0.0000000  3
   1399   1388   1389   1408     1  0.0000000  0.6508444  3
   1402   1399   1388   1406     1  0.0000000  1.0460000  1
   1402   1399   1388   1406     1  0.0000000  0.0000000  3
   1402   1399   1404   1405     1  0.0000000  0.6973333  3
   1403   1399   1388   1406     1  0.0000000  1.0460000  1
   1403   1399   1388   1406     1  0.0000000  0.0000000  3
   1403   1399   1404   1405     1  0.0000000  0.6973333  3
   1406   1388   1389   1408     1  0.0000000  1.0460000  1
   1406   1388   1389   1408     1  0.0000000  0.0000000  3
   1406   1393   1397   1407     1  0.0000000  0.6973333  3
   1408   1389   1409   1410     1  0.0000000  0.6973333  3
   1412   1413   1415   1419     1  0.0000000  0.6508444  3
   1412   1413   1433   1434     1  0.0000000  1.0460000  1
   1412   1413   1433   1434     1  0.0000000  0.6694400  3
   1412   1423   1428   1429     1  0.0000000  1.0460000  1
   1412   1423   1428   1429     1  0.0000000  0.6694400  3
   1412   1430   1417   1420     1  0.0000000  1.6038667  3
   1413   1412   1423   1426     1  0.0000000  0.6508444  3
   1413   1412   1423   1427     1  0.0000000  0.6508444  3
   1413   1415   1416   1418     1  0.0000000  0.6508444  3
   1413   1415   1422   1424     1  0.0000000  1.0460000  1
   1413   1415   1422   1424     1  0.0000000  0.6694400  3
   1414   1412   1413   1415     1  0.0000000  0.6508444  3
   1414   1412   1413   1433     1  0.0000000  1.0460000  1
   1414   1412   1413   1433     1  0.0000000  0.0000000  3
   1414   1412   1413   1432     1  0.0000000  0.6508444  3
   1414   1412   1423   1428     1  0.0000000  1.0460000  1
   1414   1412   1423   1428     1  0.0000000  0.0000000  3
   1414   1412   1423   1426     1  0.0000000  0.6508444  3
   1414   1412   1423   1427     1  0.0000000  0.6508444  3
   1414   1412   1430   1417     1  0.0000000  1.6038667  3
   1415   1413   1433   1434     1  0.0000000  1.0460000  1
   1415   1413   1433   1434     1  0.0000000  0.6694400  3
   1415   1416   1417   1420     1  0.0000000  0.6508444  3
   1415   1416   1435   1425     1  0.0000000  1.2552000  3
   1416   1415   1413   1432     1  0.0000000  0.6508444  3
   1416   1415   1422   1424     1  0.0000000  1.0460000  1
   1416   1415   1422   1424     1  0.0000000  0.6694400  3
   1416   1417   1421   1431     1  0.0000000  1.0460000  1
   1416   1417   1421   1431     1  0.0000000  0.6694400  3
   1417   1416   1415   1419     1  0.0000000  0.6508444  3
   1417   1416   1435   1425     1  0.0000000  1.2552000  3
   1418   1416   1415   1422     1  0.0000000  1.0460000  1
   1418   1416   1415   1422     1  0.0000000  0.0000000  3
   1418   1416   1415   1419     1  0.0000000  0.6508444  3
   1418   1416   1417   1421     1  0.0000000  1.0460000  1
   1418   1416   1417   1421     1  0.0000000  0.0000000  3
   1418   1416   1417   1430     1  0.0000000  1.0460000  1
   1418   1416   1417   1430     1  0.0000000  0.0000000  3
   1418   1416   1417   1420     1  0.0000000  0.6508444  3
   1418   1416   1435   1425     1  0.0000000  1.2552000  3
   1419   1415   1413   1433     1  0.0000000  1.0460000  1
   1419   1415   1413   1433     1  0.0000000  0.0000000  3
   1419   1415   1413   1432     1  0.0000000  0.6508444  3
   1419   1415   1416   1435     1  0.0000000  0.6508444  3
   1419   1415   1422   1424     1  0.0000000  0.6973333  3
   1420   1417   1416   1435     1  0.0000000  0.6508444  3
   1420   1417   1421   1431     1  0.0000000  0.6973333  3
   1422   1415   1413   1432     1  0.0000000  1.0460000  1
   1422   1415   1413   1432     1  0.0000000  0.0000000  3
   1423   1412   1413   1432     1  0.0000000  0.6508444  3
   1426   1423   1412   1430     1  0.0000000  1.0460000  1
   1426   1423   1412   1430     1  0.0000000  0.0000000  3
   1426   1423   1428   1429     1  0.0000000  0.6973333  3
   1427   1423   1412   1430     1  0.0000000  1.0460000  1
   1427   1423   1412   1430     1  0.0000000  0.0000000  3
   1427   1423   1428   1429     1  0.0000000  0.6973333  3
   1430   1412   1413   1432     1  0.0000000  1.0460000  1
   1430   1412   1413   1432     1  0.0000000  0.0000000  3
   1430   1417   1421   1431     1  0.0000000  0.6973333  3
   1432   1413   1433   1434     1  0.0000000  0.6973333  3
   1437   1439   1441   1443     1  0.0000000  0.6508444  3
   1437   1439   1441   1444     1  0.0000000  0.6508444  3
   1438   1437   1439   1441     1  0.0000000  0.0000000  2
   1438   1437   1439   1440     1  0.0000000  0.0000000  2
   1438   1437   1439   1442     1  0.0000000  0.0000000  2
   1439   1441   1445   1510     1  0.0000000  0.6508444  3
   1440   1439   1441   1445     1  0.0000000  0.6508444  3
   1440   1439   1441   1443     1  0.0000000  0.6508444  3
   1440   1439   1441   1444     1  0.0000000  0.6508444  3
   1441   1445   1446   1455     1  0.0000000  0.6508444  3
   1441   1445   1446   1456     1  0.0000000  0.6508444  3
   1441   1445   1447   1448     1  0.0000000  0.6508444  3
   1441   1445   1447   1450     1  0.0000000  0.6508444  3
   1442   1439   1441   1445     1  0.0000000  0.6508444  3
   1442   1439   1441   1443     1  0.0000000  0.6508444  3
   1442   1439   1441   1444     1  0.0000000  0.6508444  3
   1443   1441   1445   1446     1  0.0000000  0.6508444  3
   1443   1441   1445   1447     1  0.0000000  0.6508444  3
   1443   1441   1445   1510     1  0.0000000  0.6508444  3
   1444   1441   1445   1446     1  0.0000000  0.6508444  3
   1444   1441   1445   1447     1  0.0000000  0.6508444  3
   1444   1441   1445   1510     1  0.0000000  0.6508444  3
   1445   1446   1457   1458     1  0.0000000  0.6508444  3
   1445   1446   1457   1459     1  0.0000000  0.6508444  3
   1445   1447   1449   1451     1  0.0000000  0.6508444  3
   1445   1447   1449   1452     1  0.0000000  0.6508444  3
   1446   1445   1447   1448     1  0.0000000  0.6508444  3
   1446   1445   1447   1450     1  0.0000000  0.6508444  3
   1447   1445   1446   1455     1  0.0000000  0.6508444  3
   1447   1445   1446   1456     1  0.0000000  0.6508444  3
   1448   1447   1449   1453     1  0.0000000  0.6508444  3
   1448   1447   1449   1451     1  0.0000000  0.6508444  3
   1448   1447   1449   1452     1  0.0000000  0.6508444  3
   1448   1447   1445   1510     1  0.0000000  0.6508444  3
   1449   1453   1485   1475     1  180.0000771  6.0668000  2
   1449   1453   1485   1475     1  180.0000771  1.4644000  4
   1449   1447   1445   1510     1  0.0000000  0.6508444  3
   1450   1447   1449   1453     1  0.0000000  0.6508444  3
   1450   1447   1449   1451     1  0.0000000  0.6508444  3
   1450   1447   1449   1452     1  0.0000000  0.6508444  3
   1450   1447   1445   1510     1  0.0000000  0.6508444  3
   1451   1449   1453   1454     1  0.0000000  3.3472000  1
   1451   1449   1453   1454     1  0.0000000  0.0000000  2
   1451   1449   1453   1454     1  180.0000771  0.3347200  3
   1451   1449   1453   1485     1  180.0000771  0.0000000  2
   1452   1449   1453   1454     1  0.0000000  3.3472000  1
   1452   1449   1453   1454     1  0.0000000  0.0000000  2
   1452   1449   1453   1454     1  180.0000771  0.3347200  3
   1452   1449   1453   1485     1  180.0000771  0.0000000  2
   1453   1485   1466   1468     1  0.0000000  1.2552000  3
   1454   1453   1485   1475     1  180.0000771  6.0668000  2
   1454   1453   1485   1475     1  180.0000771  1.4644000  4
   1455   1446   1457   1460     1  0.0000000  0.6508444  3
   1455   1446   1457   1458     1  0.0000000  0.6508444  3
   1455   1446   1457   1459     1  0.0000000  0.6508444  3
   1455   1446   1445   1510     1  0.0000000  0.6508444  3
   1456   1446   1457   1460     1  0.0000000  0.6508444  3
   1456   1446   1457   1458     1  0.0000000  0.6508444  3
   1456   1446   1457   1459     1  0.0000000  0.6508444  3
   1456   1446   1445   1510     1  0.0000000  0.6508444  3
   1457   1460   1509   1499     1  180.0000771  6.0668000  2
   1457   1460   1509   1499     1  180.0000771  1.4644000  4
   1457   1446   1445   1510     1  0.0000000  0.6508444  3
   1458   1457   1460   1461     1  0.0000000  3.3472000  1
   1458   1457   1460   1461     1  0.0000000  0.0000000  2
   1458   1457   1460   1461     1  180.0000771  0.3347200  3
   1458   1457   1460   1509     1  180.0000771  0.0000000  2
   1459   1457   1460   1461     1  0.0000000  3.3472000  1
   1459   1457   1460   1461     1  0.0000000  0.0000000  2
   1459   1457   1460   1461     1  180.0000771  0.3347200  3
   1459   1457   1460   1509     1  180.0000771  0.0000000  2
   1460   1509   1490   1492     1  0.0000000  1.2552000  3
   1461   1460   1509   1499     1  180.0000771  6.0668000  2
   1461   1460   1509   1499     1  180.0000771  1.4644000  4
   1462   1463   1465   1469     1  0.0000000  0.6508444  3
   1462   1463   1483   1484     1  0.0000000  1.0460000  1
   1462   1463   1483   1484     1  0.0000000  0.6694400  3
   1462   1473   1478   1479     1  0.0000000  1.0460000  1
   1462   1473   1478   1479     1  0.0000000  0.6694400  3
   1462   1480   1467   1470     1  0.0000000  1.6038667  3
   1463   1465   1466   1468     1  0.0000000  0.6508444  3
   1463   1465   1472   1474     1  0.0000000  1.0460000  1
   1463   1465   1472   1474     1  0.0000000  0.6694400  3
   1463   1462   1473   1476     1  0.0000000  0.6508444  3
   1463   1462   1473   1477     1  0.0000000  0.6508444  3
   1464   1462   1463   1465     1  0.0000000  0.6508444  3
   1464   1462   1463   1483     1  0.0000000  1.0460000  1
   1464   1462   1463   1483     1  0.0000000  0.0000000  3
   1464   1462   1463   1482     1  0.0000000  0.6508444  3
   1464   1462   1473   1478     1  0.0000000  1.0460000  1
   1464   1462   1473   1478     1  0.0000000  0.0000000  3
   1464   1462   1473   1476     1  0.0000000  0.6508444  3
   1464   1462   1473   1477     1  0.0000000  0.6508444  3
   1464   1462   1480   1467     1  0.0000000  1.6038667  3
   1465   1466   1467   1470     1  0.0000000  0.6508444  3
   1465   1466   1485   1475     1  0.0000000  1.2552000  3
   1465   1463   1483   1484     1  0.0000000  1.0460000  1
   1465   1463   1483   1484     1  0.0000000  0.6694400  3
   1466   1467   1471   1481     1  0.0000000  1.0460000  1
   1466   1467   1471   1481     1  0.0000000  0.6694400  3
   1466   1465   1472   1474     1  0.0000000  1.0460000  1
   1466   1465   1472   1474     1  0.0000000  0.6694400  3
   1466   1465   1463   1482     1  0.0000000  0.6508444  3
   1467   1466   1485   1475     1  0.0000000  1.2552000  3
   1467   1466   1465   1469     1  0.0000000  0.6508444  3
   1468   1466   1467   1471     1  0.0000000  1.0460000  1
   1468   1466   1467   1471     1  0.0000000  0.0000000  3
   1468   1466   1467   1480     1  0.0000000  1.0460000  1
   1468   1466   1467   1480     1  0.0000000  0.0000000  3
   1468   1466   1467   1470     1  0.0000000  0.6508444  3
   1468   1466   1485   1475     1  0.0000000  1.2552000  3
   1468   1466   1465   1472     1  0.0000000  1.0460000  1
   1468   1466   1465   1472     1  0.0000000  0.0000000  3
   1468   1466   1465   1469     1  0.0000000  0.6508444  3
   1469   1465   1466   1485     1  0.0000000  0.6508444  3
   1469   1465   1472   1474     1  0.0000000  0.6973333  3
   1469   1465   1463   1483     1  0.0000000  1.0460000  1
   1469   1465   1463   1483     1  0.0000000  0.0000000  3
   1469   1465   1463   1482     1  0.0000000  0.6508444  3
   1470   1467   1471   1481     1  0.0000000  0.6973333  3
   1470   1467   1466   1485     1  0.0000000  0.6508444  3
   1472   1465   1463   1482     1  0.0000000  1.0460000  1
   1472   1465   1463   1482     1  0.0000000  0.0000000  3
   1473   1462   1463   1482     1  0.0000000  0.6508444  3
   1476   1473   1478   1479     1  0.0000000  0.6973333  3
   1476   1473   1462   1480     1  0.0000000  1.0460000  1
   1476   1473   1462   1480     1  0.0000000  0.0000000  3
   1477   1473   1478   1479     1  0.0000000  0.6973333  3
   1477   1473   1462   1480     1  0.0000000  1.0460000  1
   1477   1473   1462   1480     1  0.0000000  0.0000000  3
   1480   1467   1471   1481     1  0.0000000  0.6973333  3
   1480   1462   1463   1482     1  0.0000000  1.0460000  1
   1480   1462   1463   1482     1  0.0000000  0.0000000  3
   1482   1463   1483   1484     1  0.0000000  0.6973333  3
   1486   1487   1489   1493     1  0.0000000  0.6508444  3
   1486   1487   1507   1508     1  0.0000000  1.0460000  1
   1486   1487   1507   1508     1  0.0000000  0.6694400  3
   1486   1497   1502   1503     1  0.0000000  1.0460000  1
   1486   1497   1502   1503     1  0.0000000  0.6694400  3
   1486   1504   1491   1494     1  0.0000000  1.6038667  3
   1487   1489   1490   1492     1  0.0000000  0.6508444  3
   1487   1489   1496   1498     1  0.0000000  1.0460000  1
   1487   1489   1496   1498     1  0.0000000  0.6694400  3
   1487   1486   1497   1500     1  0.0000000  0.6508444  3
   1487   1486   1497   1501     1  0.0000000  0.6508444  3
   1488   1486   1487   1489     1  0.0000000  0.6508444  3
   1488   1486   1487   1507     1  0.0000000  1.0460000  1
   1488   1486   1487   1507     1  0.0000000  0.0000000  3
   1488   1486   1487   1506     1  0.0000000  0.6508444  3
   1488   1486   1497   1502     1  0.0000000  1.0460000  1
   1488   1486   1497   1502     1  0.0000000  0.0000000  3
   1488   1486   1497   1500     1  0.0000000  0.6508444  3
   1488   1486   1497   1501     1  0.0000000  0.6508444  3
   1488   1486   1504   1491     1  0.0000000  1.6038667  3
   1489   1490   1491   1494     1  0.0000000  0.6508444  3
   1489   1490   1509   1499     1  0.0000000  1.2552000  3
   1489   1487   1507   1508     1  0.0000000  1.0460000  1
   1489   1487   1507   1508     1  0.0000000  0.6694400  3
   1490   1491   1495   1505     1  0.0000000  1.0460000  1
   1490   1491   1495   1505     1  0.0000000  0.6694400  3
   1490   1489   1496   1498     1  0.0000000  1.0460000  1
   1490   1489   1496   1498     1  0.0000000  0.6694400  3
   1490   1489   1487   1506     1  0.0000000  0.6508444  3
   1491   1490   1509   1499     1  0.0000000  1.2552000  3
   1491   1490   1489   1493     1  0.0000000  0.6508444  3
   1492   1490   1491   1495     1  0.0000000  1.0460000  1
   1492   1490   1491   1495     1  0.0000000  0.0000000  3
   1492   1490   1491   1504     1  0.0000000  1.0460000  1
   1492   1490   1491   1504     1  0.0000000  0.0000000  3
   1492   1490   1491   1494     1  0.0000000  0.6508444  3
   1492   1490   1509   1499     1  0.0000000  1.2552000  3
   1492   1490   1489   1496     1  0.0000000  1.0460000  1
   1492   1490   1489   1496     1  0.0000000  0.0000000  3
   1492   1490   1489   1493     1  0.0000000  0.6508444  3
   1493   1489   1490   1509     1  0.0000000  0.6508444  3
   1493   1489   1496   1498     1  0.0000000  0.6973333  3
   1493   1489   1487   1507     1  0.0000000  1.0460000  1
   1493   1489   1487   1507     1  0.0000000  0.0000000  3
   1493   1489   1487   1506     1  0.0000000  0.6508444  3
   1494   1491   1495   1505     1  0.0000000  0.6973333  3
   1494   1491   1490   1509     1  0.0000000  0.6508444  3
   1496   1489   1487   1506     1  0.0000000  1.0460000  1
   1496   1489   1487   1506     1  0.0000000  0.0000000  3
   1497   1486   1487   1506     1  0.0000000  0.6508444  3
   1500   1497   1502   1503     1  0.0000000  0.6973333  3
   1500   1497   1486   1504     1  0.0000000  1.0460000  1
   1500   1497   1486   1504     1  0.0000000  0.0000000  3
   1501   1497   1502   1503     1  0.0000000  0.6973333  3
   1501   1497   1486   1504     1  0.0000000  1.0460000  1
   1501   1497   1486   1504     1  0.0000000  0.0000000  3
   1504   1491   1495   1505     1  0.0000000  0.6973333  3
   1504   1486   1487   1506     1  0.0000000  1.0460000  1
   1504   1486   1487   1506     1  0.0000000  0.0000000  3
   1506   1487   1507   1508     1  0.0000000  0.6973333  3
   1511   1513   1515   1517     1  0.0000000  0.6508444  3
   1511   1513   1515   1518     1  0.0000000  0.6508444  3
   1512   1511   1513   1515     1  0.0000000  0.0000000  2
   1512   1511   1513   1514     1  0.0000000  0.0000000  2
   1512   1511   1513   1516     1  0.0000000  0.0000000  2
   1513   1515   1519   1584     1  0.0000000  0.6508444  3
   1514   1513   1515   1519     1  0.0000000  0.6508444  3
   1514   1513   1515   1517     1  0.0000000  0.6508444  3
   1514   1513   1515   1518     1  0.0000000  0.6508444  3
   1515   1519   1520   1529     1  0.0000000  0.6508444  3
   1515   1519   1520   1530     1  0.0000000  0.6508444  3
   1515   1519   1521   1522     1  0.0000000  0.6508444  3
   1515   1519   1521   1524     1  0.0000000  0.6508444  3
   1516   1513   1515   1519     1  0.0000000  0.6508444  3
   1516   1513   1515   1517     1  0.0000000  0.6508444  3
   1516   1513   1515   1518     1  0.0000000  0.6508444  3
   1517   1515   1519   1520     1  0.0000000  0.6508444  3
   1517   1515   1519   1521     1  0.0000000  0.6508444  3
   1517   1515   1519   1584     1  0.0000000  0.6508444  3
   1518   1515   1519   1520     1  0.0000000  0.6508444  3
   1518   1515   1519   1521     1  0.0000000  0.6508444  3
   1518   1515   1519   1584     1  0.0000000  0.6508444  3
   1519   1520   1531   1532     1  0.0000000  0.6508444  3
   1519   1520   1531   1533     1  0.0000000  0.6508444  3
   1519   1521   1523   1525     1  0.0000000  0.6508444  3
   1519   1521   1523   1526     1  0.0000000  0.6508444  3
   1520   1519   1521   1522     1  0.0000000  0.6508444  3
   1520   1519   1521   1524     1  0.0000000  0.6508444  3
   1521   1519   1520   1529     1  0.0000000  0.6508444  3
   1521   1519   1520   1530     1  0.0000000  0.6508444  3
   1522   1521   1519   1584     1  0.0000000  0.6508444  3
   1522   1521   1523   1527     1  0.0000000  0.6508444  3
   1522   1521   1523   1525     1  0.0000000  0.6508444  3
   1522   1521   1523   1526     1  0.0000000  0.6508444  3
   1523   1521   1519   1584     1  0.0000000  0.6508444  3
   1523   1527   1559   1549     1  180.0000771  6.0668000  2
   1523   1527   1559   1549     1  180.0000771  1.4644000  4
   1524   1521   1519   1584     1  0.0000000  0.6508444  3
   1524   1521   1523   1527     1  0.0000000  0.6508444  3
   1524   1521   1523   1525     1  0.0000000  0.6508444  3
   1524   1521   1523   1526     1  0.0000000  0.6508444  3
   1525   1523   1527   1528     1  0.0000000  3.3472000  1
   1525   1523   1527   1528     1  0.0000000  0.0000000  2
   1525   1523   1527   1528     1  180.0000771  0.3347200  3
   1525   1523   1527   1559     1  180.0000771  0.0000000  2
   1526   1523   1527   1528     1  0.0000000  3.3472000  1
   1526   1523   1527   1528     1  0.0000000  0.0000000  2
   1526   1523   1527   1528     1  180.0000771  0.3347200  3
   1526   1523   1527   1559     1  180.0000771  0.0000000  2
   1527   1559   1540   1542     1  0.0000000  1.2552000  3
   1528   1527   1559   1549     1  180.0000771  6.0668000  2
   1528   1527   1559   1549     1  180.0000771  1.4644000  4
   1529   1520   1519   1584     1  0.0000000  0.6508444  3
   1529   1520   1531   1534     1  0.0000000  0.6508444  3
   1529   1520   1531   1532     1  0.0000000  0.6508444  3
   1529   1520   1531   1533     1  0.0000000  0.6508444  3
   1530   1520   1519   1584     1  0.0000000  0.6508444  3
   1530   1520   1531   1534     1  0.0000000  0.6508444  3
   1530   1520   1531   1532     1  0.0000000  0.6508444  3
   1530   1520   1531   1533     1  0.0000000  0.6508444  3
   1531   1520   1519   1584     1  0.0000000  0.6508444  3
   1531   1534   1583   1573     1  180.0000771  6.0668000  2
   1531   1534   1583   1573     1  180.0000771  1.4644000  4
   1532   1531   1534   1535     1  0.0000000  3.3472000  1
   1532   1531   1534   1535     1  0.0000000  0.0000000  2
   1532   1531   1534   1535     1  180.0000771  0.3347200  3
   1532   1531   1534   1583     1  180.0000771  0.0000000  2
   1533   1531   1534   1535     1  0.0000000  3.3472000  1
   1533   1531   1534   1535     1  0.0000000  0.0000000  2
   1533   1531   1534   1535     1  180.0000771  0.3347200  3
   1533   1531   1534   1583     1  180.0000771  0.0000000  2
   1534   1583   1564   1566     1  0.0000000  1.2552000  3
   1535   1534   1583   1573     1  180.0000771  6.0668000  2
   1535   1534   1583   1573     1  180.0000771  1.4644000  4
   1536   1537   1539   1543     1  0.0000000  0.6508444  3
   1536   1537   1557   1558     1  0.0000000  1.0460000  1
   1536   1537   1557   1558     1  0.0000000  0.6694400  3
   1536   1547   1552   1553     1  0.0000000  1.0460000  1
   1536   1547   1552   1553     1  0.0000000  0.6694400  3
   1536   1554   1541   1544     1  0.0000000  1.6038667  3
   1537   1536   1547   1550     1  0.0000000  0.6508444  3
   1537   1536   1547   1551     1  0.0000000  0.6508444  3
   1537   1539   1540   1542     1  0.0000000  0.6508444  3
   1537   1539   1546   1548     1  0.0000000  1.0460000  1
   1537   1539   1546   1548     1  0.0000000  0.6694400  3
   1538   1536   1537   1539     1  0.0000000  0.6508444  3
   1538   1536   1537   1557     1  0.0000000  1.0460000  1
   1538   1536   1537   1557     1  0.0000000  0.0000000  3
   1538   1536   1537   1556     1  0.0000000  0.6508444  3
   1538   1536   1547   1552     1  0.0000000  1.0460000  1
   1538   1536   1547   1552     1  0.0000000  0.0000000  3
   1538   1536   1547   1550     1  0.0000000  0.6508444  3
   1538   1536   1547   1551     1  0.0000000  0.6508444  3
   1538   1536   1554   1541     1  0.0000000  1.6038667  3
   1539   1537   1557   1558     1  0.0000000  1.0460000  1
   1539   1537   1557   1558     1  0.0000000  0.6694400  3
   1539   1540   1541   1544     1  0.0000000  0.6508444  3
   1539   1540   1559   1549     1  0.0000000  1.2552000  3
   1540   1539   1537   1556     1  0.0000000  0.6508444  3
   1540   1539   1546   1548     1  0.0000000  1.0460000  1
   1540   1539   1546   1548     1  0.0000000  0.6694400  3
   1540   1541   1545   1555     1  0.0000000  1.0460000  1
   1540   1541   1545   1555     1  0.0000000  0.6694400  3
   1541   1540   1539   1543     1  0.0000000  0.6508444  3
   1541   1540   1559   1549     1  0.0000000  1.2552000  3
   1542   1540   1539   1546     1  0.0000000  1.0460000  1
   1542   1540   1539   1546     1  0.0000000  0.0000000  3
   1542   1540   1539   1543     1  0.0000000  0.6508444  3
   1542   1540   1541   1545     1  0.0000000  1.0460000  1
   1542   1540   1541   1545     1  0.0000000  0.0000000  3
   1542   1540   1541   1554     1  0.0000000  1.0460000  1
   1542   1540   1541   1554     1  0.0000000  0.0000000  3
   1542   1540   1541   1544     1  0.0000000  0.6508444  3
   1542   1540   1559   1549     1  0.0000000  1.2552000  3
   1543   1539   1537   1557     1  0.0000000  1.0460000  1
   1543   1539   1537   1557     1  0.0000000  0.0000000  3
   1543   1539   1537   1556     1  0.0000000  0.6508444  3
   1543   1539   1540   1559     1  0.0000000  0.6508444  3
   1543   1539   1546   1548     1  0.0000000  0.6973333  3
   1544   1541   1540   1559     1  0.0000000  0.6508444  3
   1544   1541   1545   1555     1  0.0000000  0.6973333  3
   1546   1539   1537   1556     1  0.0000000  1.0460000  1
   1546   1539   1537   1556     1  0.0000000  0.0000000  3
   1547   1536   1537   1556     1  0.0000000  0.6508444  3
   1550   1547   1536   1554     1  0.0000000  1.0460000  1
   1550   1547   1536   1554     1  0.0000000  0.0000000  3
   1550   1547   1552   1553     1  0.0000000  0.6973333  3
   1551   1547   1536   1554     1  0.0000000  1.0460000  1
   1551   1547   1536   1554     1  0.0000000  0.0000000  3
   1551   1547   1552   1553     1  0.0000000  0.6973333  3
   1554   1536   1537   1556     1  0.0000000  1.0460000  1
   1554   1536   1537   1556     1  0.0000000  0.0000000  3
   1554   1541   1545   1555     1  0.0000000  0.6973333  3
   1556   1537   1557   1558     1  0.0000000  0.6973333  3
   1560   1561   1563   1567     1  0.0000000  0.6508444  3
   1560   1561   1581   1582     1  0.0000000  1.0460000  1
   1560   1561   1581   1582     1  0.0000000  0.6694400  3
   1560   1571   1576   1577     1  0.0000000  1.0460000  1
   1560   1571   1576   1577     1  0.0000000  0.6694400  3
   1560   1578   1565   1568     1  0.0000000  1.6038667  3
   1561   1560   1571   1574     1  0.0000000  0.6508444  3
   1561   1560   1571   1575     1  0.0000000  0.6508444  3
   1561   1563   1564   1566     1  0.0000000  0.6508444  3
   1561   1563   1570   1572     1  0.0000000  1.0460000  1
   1561   1563   1570   1572     1  0.0000000  0.6694400  3
   1562   1560   1561   1563     1  0.0000000  0.6508444  3
   1562   1560   1561   1581     1  0.0000000  1.0460000  1
   1562   1560   1561   1581     1  0.0000000  0.0000000  3
   1562   1560   1561   1580     1  0.0000000  0.6508444  3
   1562   1560   1571   1576     1  0.0000000  1.0460000  1
   1562   1560   1571   1576     1  0.0000000  0.0000000  3
   1562   1560   1571   1574     1  0.0000000  0.6508444  3
   1562   1560   1571   1575     1  0.0000000  0.6508444  3
   1562   1560   1578   1565     1  0.0000000  1.6038667  3
   1563   1561   1581   1582     1  0.0000000  1.0460000  1
   1563   1561   1581   1582     1  0.0000000  0.6694400  3
   1563   1564   1565   1568     1  0.0000000  0.6508444  3
   1563   1564   1583   1573     1  0.0000000  1.2552000  3
   1564   1563   1561   1580     1  0.0000000  0.6508444  3
   1564   1563   1570   1572     1  0.0000000  1.0460000  1
   1564   1563   1570   1572     1  0.0000000  0.6694400  3
   1564   1565   1569   1579     1  0.0000000  1.0460000  1
   1564   1565   1569   1579     1  0.0000000  0.6694400  3
   1565   1564   1563   1567     1  0.0000000  0.6508444  3
   1565   1564   1583   1573     1  0.0000000  1.2552000  3
   1566   1564   1563   1570     1  0.0000000  1.0460000  1
   1566   1564   1563   1570     1  0.0000000  0.0000000  3
   1566   1564   1563   1567     1  0.0000000  0.6508444  3
   1566   1564   1565   1569     1  0.0000000  1.0460000  1
   1566   1564   1565   1569     1  0.0000000  0.0000000  3
   1566   1564   1565   1578     1  0.0000000  1.0460000  1
   1566   1564   1565   1578     1  0.0000000  0.0000000  3
   1566   1564   1565   1568     1  0.0000000  0.6508444  3
   1566   1564   1583   1573     1  0.0000000  1.2552000  3
   1567   1563   1561   1581     1  0.0000000  1.0460000  1
   1567   1563   1561   1581     1  0.0000000  0.0000000  3
   1567   1563   1561   1580     1  0.0000000  0.6508444  3
   1567   1563   1564   1583     1  0.0000000  0.6508444  3
   1567   1563   1570   1572     1  0.0000000  0.6973333  3
   1568   1565   1564   1583     1  0.0000000  0.6508444  3
   1568   1565   1569   1579     1  0.0000000  0.6973333  3
   1570   1563   1561   1580     1  0.0000000  1.0460000  1
   1570   1563   1561   1580     1  0.0000000  0.0000000  3
   1571   1560   1561   1580     1  0.0000000  0.6508444  3
   1574   1571   1560   1578     1  0.0000000  1.0460000  1
   1574   1571   1560   1578     1  0.0000000  0.0000000  3
   1574   1571   1576   1577     1  0.0000000  0.6973333  3
   1575   1571   1560   1578     1  0.0000000  1.0460000  1
   1575   1571   1560   1578     1  0.0000000  0.0000000  3
   1575   1571   1576   1577     1  0.0000000  0.6973333  3
   1578   1560   1561   1580     1  0.0000000  1.0460000  1
   1578   1560   1561   1580     1  0.0000000  0.0000000  3
   1578   1565   1569   1579     1  0.0000000  0.6973333  3
   1580   1561   1581   1582     1  0.0000000  0.6973333  3
   1585   1587   1589   1591     1  0.0000000  0.6508444  3
   1585   1587   1589   1592     1  0.0000000  0.6508444  3
   1586   1585   1587   1589     1  0.0000000  0.0000000  2
   1586   1585   1587   1588     1  0.0000000  0.0000000  2
   1586   1585   1587   1590     1  0.0000000  0.0000000  2
   1587   1589   1593   1658     1  0.0000000  0.6508444  3
   1588   1587   1589   1593     1  0.0000000  0.6508444  3
   1588   1587   1589   1591     1  0.0000000  0.6508444  3
   1588   1587   1589   1592     1  0.0000000  0.6508444  3
   1589   1593   1594   1603     1  0.0000000  0.6508444  3
   1589   1593   1594   1604     1  0.0000000  0.6508444  3
   1589   1593   1595   1596     1  0.0000000  0.6508444  3
   1589   1593   1595   1598     1  0.0000000  0.6508444  3
   1590   1587   1589   1593     1  0.0000000  0.6508444  3
   1590   1587   1589   1591     1  0.0000000  0.6508444  3
   1590   1587   1589   1592     1  0.0000000  0.6508444  3
   1591   1589   1593   1594     1  0.0000000  0.6508444  3
   1591   1589   1593   1595     1  0.0000000  0.6508444  3
   1591   1589   1593   1658     1  0.0000000  0.6508444  3
   1592   1589   1593   1594     1  0.0000000  0.6508444  3
   1592   1589   1593   1595     1  0.0000000  0.6508444  3
   1592   1589   1593   1658     1  0.0000000  0.6508444  3
   1593   1594   1605   1606     1  0.0000000  0.6508444  3
   1593   1594   1605   1607     1  0.0000000  0.6508444  3
   1593   1595   1597   1599     1  0.0000000  0.6508444  3
   1593   1595   1597   1600     1  0.0000000  0.6508444  3
   1594   1593   1595   1596     1  0.0000000  0.6508444  3
   1594   1593   1595   1598     1  0.0000000  0.6508444  3
   1595   1593   1594   1603     1  0.0000000  0.6508444  3
   1595   1593   1594   1604     1  0.0000000  0.6508444  3
   1596   1595   1597   1601     1  0.0000000  0.6508444  3
   1596   1595   1597   1599     1  0.0000000  0.6508444  3
   1596   1595   1597   1600     1  0.0000000  0.6508444  3
   1596   1595   1593   1658     1  0.0000000  0.6508444  3
   1597   1601   1633   1623     1  180.0000771  6.0668000  2
   1597   1601   1633   1623     1  180.0000771  1.4644000  4
   1597   1595   1593   1658     1  0.0000000  0.6508444  3
   1598   1595   1597   1601     1  0.0000000  0.6508444  3
   1598   1595   1597   1599     1  0.0000000  0.6508444  3
   1598   1595   1597   1600     1  0.0000000  0.6508444  3
   1598   1595   1593   1658     1  0.0000000  0.6508444  3
   1599   1597   1601   1602     1  0.0000000  3.3472000  1
   1599   1597   1601   1602     1  0.0000000  0.0000000  2
   1599   1597   1601   1602     1  180.0000771  0.3347200  3
   1599   1597   1601   1633     1  180.0000771  0.0000000  2
   1600   1597   1601   1602     1  0.0000000  3.3472000  1
   1600   1597   1601   1602     1  0.0000000  0.0000000  2
   1600   1597   1601   1602     1  180.0000771  0.3347200  3
   1600   1597   1601   1633     1  180.0000771  0.0000000  2
   1601   1633   1614   1616     1  0.0000000  1.2552000  3
   1602   1601   1633   1623     1  180.0000771  6.0668000  2
   1602   1601   1633   1623     1  180.0000771  1.4644000  4
   1603   1594   1605   1608     1  0.0000000  0.6508444  3
   1603   1594   1605   1606     1  0.0000000  0.6508444  3
   1603   1594   1605   1607     1  0.0000000  0.6508444  3
   1603   1594   1593   1658     1  0.0000000  0.6508444  3
   1604   1594   1605   1608     1  0.0000000  0.6508444  3
   1604   1594   1605   1606     1  0.0000000  0.6508444  3
   1604   1594   1605   1607     1  0.0000000  0.6508444  3
   1604   1594   1593   1658     1  0.0000000  0.6508444  3
   1605   1608   1657   1647     1  180.0000771  6.0668000  2
   1605   1608   1657   1647     1  180.0000771  1.4644000  4
   1605   1594   1593   1658     1  0.0000000  0.6508444  3
   1606   1605   1608   1609     1  0.0000000  3.3472000  1
   1606   1605   1608   1609     1  0.0000000  0.0000000  2
   1606   1605   1608   1609     1  180.0000771  0.3347200  3
   1606   1605   1608   1657     1  180.0000771  0.0000000  2
   1607   1605   1608   1609     1  0.0000000  3.3472000  1
   1607   1605   1608   1609     1  0.0000000  0.0000000  2
   1607   1605   1608   1609     1  180.0000771  0.3347200  3
   1607   1605   1608   1657     1  180.0000771  0.0000000  2
   1608   1657   1638   1640     1  0.0000000  1.2552000  3
   1609   1608   1657   1647     1  180.0000771  6.0668000  2
   1609   1608   1657   1647     1  180.0000771  1.4644000  4
   1610   1611   1613   1617     1  0.0000000  0.6508444  3
   1610   1611   1631   1632     1  0.0000000  1.0460000  1
   1610   1611   1631   1632     1  0.0000000  0.6694400  3
   1610   1621   1626   1627     1  0.0000000  1.0460000  1
   1610   1621   1626   1627     1  0.0000000  0.6694400  3
   1610   1628   1615   1618     1  0.0000000  1.6038667  3
   1611   1613   1614   1616     1  0.0000000  0.6508444  3
   1611   1613   1620   1622     1  0.0000000  1.0460000  1
   1611   1613   1620   1622     1  0.0000000  0.6694400  3
   1611   1610   1621   1624     1  0.0000000  0.6508444  3
   1611   1610   1621   1625     1  0.0000000  0.6508444  3
   1612   1610   1611   1613     1  0.0000000  0.6508444  3
   1612   1610   1611   1631     1  0.0000000  1.0460000  1
   1612   1610   1611   1631     1  0.0000000  0.0000000  3
   1612   1610   1611   1630     1  0.0000000  0.6508444  3
   1612   1610   1621   1626     1  0.0000000  1.0460000  1
   1612   1610   1621   1626     1  0.0000000  0.0000000  3
   1612   1610   1621   1624     1  0.0000000  0.6508444  3
   1612   1610   1621   1625     1  0.0000000  0.6508444  3
   1612   1610   1628   1615     1  0.0000000  1.6038667  3
   1613   1614   1615   1618     1  0.0000000  0.6508444  3
   1613   1614   1633   1623     1  0.0000000  1.2552000  3
   1613   1611   1631   1632     1  0.0000000  1.0460000  1
   1613   1611   1631   1632     1  0.0000000  0.6694400  3
   1614   1615   1619   1629     1  0.0000000  1.0460000  1
   1614   1615   1619   1629     1  0.0000000  0.6694400  3
   1614   1613   1620   1622     1  0.0000000  1.0460000  1
   1614   1613   1620   1622     1  0.0000000  0.6694400  3
   1614   1613   1611   1630     1  0.0000000  0.6508444  3
   1615   1614   1633   1623     1  0.0000000  1.2552000  3
   1615   1614   1613   1617     1  0.0000000  0.6508444  3
   1616   1614   1615   1619     1  0.0000000  1.0460000  1
   1616   1614   1615   1619     1  0.0000000  0.0000000  3
   1616   1614   1615   1628     1  0.0000000  1.0460000  1
   1616   1614   1615   1628     1  0.0000000  0.0000000  3
   1616   1614   1615   1618     1  0.0000000  0.6508444  3
   1616   1614   1633   1623     1  0.0000000  1.2552000  3
   1616   1614   1613   1620     1  0.0000000  1.0460000  1
   1616   1614   1613   1620     1  0.0000000  0.0000000  3
   1616   1614   1613   1617     1  0.0000000  0.6508444  3
   1617   1613   1614   1633     1  0.0000000  0.6508444  3
   1617   1613   1620   1622     1  0.0000000  0.6973333  3
   1617   1613   1611   1631     1  0.0000000  1.0460000  1
   1617   1613   1611   1631     1  0.0000000  0.0000000  3
   1617   1613   1611   1630     1  0.0000000  0.6508444  3
   1618   1615   1619   1629     1  0.0000000  0.6973333  3
   1618   1615   1614   1633     1  0.0000000  0.6508444  3
   1620   1613   1611   1630     1  0.0000000  1.0460000  1
   1620   1613   1611   1630     1  0.0000000  0.0000000  3
   1621   1610   1611   1630     1  0.0000000  0.6508444  3
   1624   1621   1626   1627     1  0.0000000  0.6973333  3
   1624   1621   1610   1628     1  0.0000000  1.0460000  1
   1624   1621   1610   1628     1  0.0000000  0.0000000  3
   1625   1621   1626   1627     1  0.0000000  0.6973333  3
   1625   1621   1610   1628     1  0.0000000  1.0460000  1
   1625   1621   1610   1628     1  0.0000000  0.0000000  3
   1628   1615   1619   1629     1  0.0000000  0.6973333  3
   1628   1610   1611   1630     1  0.0000000  1.0460000  1
   1628   1610   1611   1630     1  0.0000000  0.0000000  3
   1630   1611   1631   1632     1  0.0000000  0.6973333  3
   1634   1635   1637   1641     1  0.0000000  0.6508444  3
   1634   1635   1655   1656     1  0.0000000  1.0460000  1
   1634   1635   1655   1656     1  0.0000000  0.6694400  3
   1634   1645   1650   1651     1  0.0000000  1.0460000  1
   1634   1645   1650   1651     1  0.0000000  0.6694400  3
   1634   1652   1639   1642     1  0.0000000  1.6038667  3
   1635   1637   1638   1640     1  0.0000000  0.6508444  3
   1635   1637   1644   1646     1  0.0000000  1.0460000  1
   1635   1637   1644   1646     1  0.0000000  0.6694400  3
   1635   1634   1645   1648     1  0.0000000  0.6508444  3
   1635   1634   1645   1649     1  0.0000000  0.6508444  3
   1636   1634   1635   1637     1  0.0000000  0.6508444  3
   1636   1634   1635   1655     1  0.0000000  1.0460000  1
   1636   1634   1635   1655     1  0.0000000  0.0000000  3
   1636   1634   1635   1654     1  0.0000000  0.6508444  3
   1636   1634   1645   1650     1  0.0000000  1.0460000  1
   1636   1634   1645   1650     1  0.0000000  0.0000000  3
   1636   1634   1645   1648     1  0.0000000  0.6508444  3
   1636   1634   1645   1649     1  0.0000000  0.6508444  3
   1636   1634   1652   1639     1  0.0000000  1.6038667  3
   1637   1638   1639   1642     1  0.0000000  0.6508444  3
   1637   1638   1657   1647     1  0.0000000  1.2552000  3
   1637   1635   1655   1656     1  0.0000000  1.0460000  1
   1637   1635   1655   1656     1  0.0000000  0.6694400  3
   1638   1639   1643   1653     1  0.0000000  1.0460000  1
   1638   1639   1643   1653     1  0.0000000  0.6694400  3
   1638   1637   1644   1646     1  0.0000000  1.0460000  1
   1638   1637   1644   1646     1  0.0000000  0.6694400  3
   1638   1637   1635   1654     1  0.0000000  0.6508444  3
   1639   1638   1657   1647     1  0.0000000  1.2552000  3
   1639   1638   1637   1641     1  0.0000000  0.6508444  3
   1640   1638   1639   1643     1  0.0000000  1.0460000  1
   1640   1638   1639   1643     1  0.0000000  0.0000000  3
   1640   1638   1639   1652     1  0.0000000  1.0460000  1
   1640   1638   1639   1652     1  0.0000000  0.0000000  3
   1640   1638   1639   1642     1  0.0000000  0.6508444  3
   1640   1638   1657   1647     1  0.0000000  1.2552000  3
   1640   1638   1637   1644     1  0.0000000  1.0460000  1
   1640   1638   1637   1644     1  0.0000000  0.0000000  3
   1640   1638   1637   1641     1  0.0000000  0.6508444  3
   1641   1637   1638   1657     1  0.0000000  0.6508444  3
   1641   1637   1644   1646     1  0.0000000  0.6973333  3
   1641   1637   1635   1655     1  0.0000000  1.0460000  1
   1641   1637   1635   1655     1  0.0000000  0.0000000  3
   1641   1637   1635   1654     1  0.0000000  0.6508444  3
   1642   1639   1643   1653     1  0.0000000  0.6973333  3
   1642   1639   1638   1657     1  0.0000000  0.6508444  3
   1644   1637   1635   1654     1  0.0000000  1.0460000  1
   1644   1637   1635   1654     1  0.0000000  0.0000000  3
   1645   1634   1635   1654     1  0.0000000  0.6508444  3
   1648   1645   1650   1651     1  0.0000000  0.6973333  3
   1648   1645   1634   1652     1  0.0000000  1.0460000  1
   1648   1645   1634   1652     1  0.0000000  0.0000000  3
   1649   1645   1650   1651     1  0.0000000  0.6973333  3
   1649   1645   1634   1652     1  0.0000000  1.0460000  1
   1649   1645   1634   1652     1  0.0000000  0.0000000  3
   1652   1639   1643   1653     1  0.0000000  0.6973333  3
   1652   1634   1635   1654     1  0.0000000  1.0460000  1
   1652   1634   1635   1654     1  0.0000000  0.0000000  3
   1654   1635   1655   1656     1  0.0000000  0.6973333  3
   1659   1661   1663   1665     1  0.0000000  0.6508444  3
   1659   1661   1663   1666     1  0.0000000  0.6508444  3
   1660   1659   1661   1663     1  0.0000000  0.0000000  2
   1660   1659   1661   1662     1  0.0000000  0.0000000  2
   1660   1659   1661   1664     1  0.0000000  0.0000000  2
   1661   1663   1667   1732     1  0.0000000  0.6508444  3
   1662   1661   1663   1667     1  0.0000000  0.6508444  3
   1662   1661   1663   1665     1  0.0000000  0.6508444  3
   1662   1661   1663   1666     1  0.0000000  0.6508444  3
   1663   1667   1668   1677     1  0.0000000  0.6508444  3
   1663   1667   1668   1678     1  0.0000000  0.6508444  3
   1663   1667   1669   1670     1  0.0000000  0.6508444  3
   1663   1667   1669   1672     1  0.0000000  0.6508444  3
   1664   1661   1663   1667     1  0.0000000  0.6508444  3
   1664   1661   1663   1665     1  0.0000000  0.6508444  3
   1664   1661   1663   1666     1  0.0000000  0.6508444  3
   1665   1663   1667   1668     1  0.0000000  0.6508444  3
   1665   1663   1667   1669     1  0.0000000  0.6508444  3
   1665   1663   1667   1732     1  0.0000000  0.6508444  3
   1666   1663   1667   1668     1  0.0000000  0.6508444  3
   1666   1663   1667   1669     1  0.0000000  0.6508444  3
   1666   1663   1667   1732     1  0.0000000  0.6508444  3
   1667   1668   1679   1680     1  0.0000000  0.6508444  3
   1667   1668   1679   1681     1  0.0000000  0.6508444  3
   1667   1669   1671   1673     1  0.0000000  0.6508444  3
   1667   1669   1671   1674     1  0.0000000  0.6508444  3
   1668   1667   1669   1670     1  0.0000000  0.6508444  3
   1668   1667   1669   1672     1  0.0000000  0.6508444  3
   1669   1667   1668   1677     1  0.0000000  0.6508444  3
   1669   1667   1668   1678     1  0.0000000  0.6508444  3
   1670   1669   1667   1732     1  0.0000000  0.6508444  3
   1670   1669   1671   1675     1  0.0000000  0.6508444  3
   1670   1669   1671   1673     1  0.0000000  0.6508444  3
   1670   1669   1671   1674     1  0.0000000  0.6508444  3
   1671   1669   1667   1732     1  0.0000000  0.6508444  3
   1671   1675   1707   1697     1  180.0000771  6.0668000  2
   1671   1675   1707   1697     1  180.0000771  1.4644000  4
   1672   1669   1667   1732     1  0.0000000  0.6508444  3
   1672   1669   1671   1675     1  0.0000000  0.6508444  3
   1672   1669   1671   1673     1  0.0000000  0.6508444  3
   1672   1669   1671   1674     1  0.0000000  0.6508444  3
   1673   1671   1675   1676     1  0.0000000  3.3472000  1
   1673   1671   1675   1676     1  0.0000000  0.0000000  2
   1673   1671   1675   1676     1  180.0000771  0.3347200  3
   1673   1671   1675   1707     1  180.0000771  0.0000000  2
   1674   1671   1675   1676     1  0.0000000  3.3472000  1
   1674   1671   1675   1676     1  0.0000000  0.0000000  2
   1674   1671   1675   1676     1  180.0000771  0.3347200  3
   1674   1671   1675   1707     1  180.0000771  0.0000000  2
   1675   1707   1688   1690     1  0.0000000  1.2552000  3
   1676   1675   1707   1697     1  180.0000771  6.0668000  2
   1676   1675   1707   1697     1  180.0000771  1.4644000  4
   1677   1668   1667   1732     1  0.0000000  0.6508444  3
   1677   1668   1679   1682     1  0.0000000  0.6508444  3
   1677   1668   1679   1680     1  0.0000000  0.6508444  3
   1677   1668   1679   1681     1  0.0000000  0.6508444  3
   1678   1668   1667   1732     1  0.0000000  0.6508444  3
   1678   1668   1679   1682     1  0.0000000  0.6508444  3
   1678   1668   1679   1680     1  0.0000000  0.6508444  3
   1678   1668   1679   1681     1  0.0000000  0.6508444  3
   1679   1668   1667   1732     1  0.0000000  0.6508444  3
   1679   1682   1731   1721     1  180.0000771  6.0668000  2
   1679   1682   1731   1721     1  180.0000771  1.4644000  4
   1680   1679   1682   1683     1  0.0000000  3.3472000  1
   1680   1679   1682   1683     1  0.0000000  0.0000000  2
   1680   1679   1682   1683     1  180.0000771  0.3347200  3
   1680   1679   1682   1731     1  180.0000771  0.0000000  2
   1681   1679   1682   1683     1  0.0000000  3.3472000  1
   1681   1679   1682   1683     1  0.0000000  0.0000000  2
   1681   1679   1682   1683     1  180.0000771  0.3347200  3
   1681   1679   1682   1731     1  180.0000771  0.0000000  2
   1682   1731   1712   1714     1  0.0000000  1.2552000  3
   1683   1682   1731   1721     1  180.0000771  6.0668000  2
   1683   1682   1731   1721     1  180.0000771  1.4644000  4
   1684   1685   1687   1691     1  0.0000000  0.6508444  3
   1684   1685   1705   1706     1  0.0000000  1.0460000  1
   1684   1685   1705   1706     1  0.0000000  0.6694400  3
   1684   1695   1700   1701     1  0.0000000  1.0460000  1
   1684   1695   1700   1701     1  0.0000000  0.6694400  3
   1684   1702   1689   1692     1  0.0000000  1.6038667  3
   1685   1684   1695   1698     1  0.0000000  0.6508444  3
   1685   1684   1695   1699     1  0.0000000  0.6508444  3
   1685   1687   1688   1690     1  0.0000000  0.6508444  3
   1685   1687   1694   1696     1  0.0000000  1.0460000  1
   1685   1687   1694   1696     1  0.0000000  0.6694400  3
   1686   1684   1685   1687     1  0.0000000  0.6508444  3
   1686   1684   1685   1705     1  0.0000000  1.0460000  1
   1686   1684   1685   1705     1  0.0000000  0.0000000  3
   1686   1684   1685   1704     1  0.0000000  0.6508444  3
   1686   1684   1695   1700     1  0.0000000  1.0460000  1
   1686   1684   1695   1700     1  0.0000000  0.0000000  3
   1686   1684   1695   1698     1  0.0000000  0.6508444  3
   1686   1684   1695   1699     1  0.0000000  0.6508444  3
   1686   1684   1702   1689     1  0.0000000  1.6038667  3
   1687   1685   1705   1706     1  0.0000000  1.0460000  1
   1687   1685   1705   1706     1  0.0000000  0.6694400  3
   1687   1688   1689   1692     1  0.0000000  0.6508444  3
   1687   1688   1707   1697     1  0.0000000  1.2552000  3
   1688   1687   1685   1704     1  0.0000000  0.6508444  3
   1688   1687   1694   1696     1  0.0000000  1.0460000  1
   1688   1687   1694   1696     1  0.0000000  0.6694400  3
   1688   1689   1693   1703     1  0.0000000  1.0460000  1
   1688   1689   1693   1703     1  0.0000000  0.6694400  3
   1689   1688   1687   1691     1  0.0000000  0.6508444  3
   1689   1688   1707   1697     1  0.0000000  1.2552000  3
   1690   1688   1687   1694     1  0.0000000  1.0460000  1
   1690   1688   1687   1694     1  0.0000000  0.0000000  3
   1690   1688   1687   1691     1  0.0000000  0.6508444  3
   1690   1688   1689   1693     1  0.0000000  1.0460000  1
   1690   1688   1689   1693     1  0.0000000  0.0000000  3
   1690   1688   1689   1702     1  0.0000000  1.0460000  1
   1690   1688   1689   1702     1  0.0000000  0.0000000  3
   1690   1688   1689   1692     1  0.0000000  0.6508444  3
   1690   1688   1707   1697     1  0.0000000  1.2552000  3
   1691   1687   1685   1705     1  0.0000000  1.0460000  1
   1691   1687   1685   1705     1  0.0000000  0.0000000  3
   1691   1687   1685   1704     1  0.0000000  0.6508444  3
   1691   1687   1688   1707     1  0.0000000  0.6508444  3
   1691   1687   1694   1696     1  0.0000000  0.6973333  3
   1692   1689   1688   1707     1  0.0000000  0.6508444  3
   1692   1689   1693   1703     1  0.0000000  0.6973333  3
   1694   1687   1685   1704     1  0.0000000  1.0460000  1
   1694   1687   1685   1704     1  0.0000000  0.0000000  3
   1695   1684   1685   1704     1  0.0000000  0.6508444  3
   1698   1695   1684   1702     1  0.0000000  1.0460000  1
   1698   1695   1684   1702     1  0.0000000  0.0000000  3
   1698   1695   1700   1701     1  0.0000000  0.6973333  3
   1699   1695   1684   1702     1  0.0000000  1.0460000  1
   1699   1695   1684   1702     1  0.0000000  0.0000000  3
   1699   1695   1700   1701     1  0.0000000  0.6973333  3
   1702   1684   1685   1704     1  0.0000000  1.0460000  1
   1702   1684   1685   1704     1  0.0000000  0.0000000  3
   1702   1689   1693   1703     1  0.0000000  0.6973333  3
   1704   1685   1705   1706     1  0.0000000  0.6973333  3
   1708   1709   1711   1715     1  0.0000000  0.6508444  3
   1708   1709   1729   1730     1  0.0000000  1.0460000  1
   1708   1709   1729   1730     1  0.0000000  0.6694400  3
   1708   1719   1724   1725     1  0.0000000  1.0460000  1
   1708   1719   1724   1725     1  0.0000000  0.6694400  3
   1708   1726   1713   1716     1  0.0000000  1.6038667  3
   1709   1708   1719   1722     1  0.0000000  0.6508444  3
   1709   1708   1719   1723     1  0.0000000  0.6508444  3
   1709   1711   1712   1714     1  0.0000000  0.6508444  3
   1709   1711   1718   1720     1  0.0000000  1.0460000  1
   1709   1711   1718   1720     1  0.0000000  0.6694400  3
   1710   1708   1709   1711     1  0.0000000  0.6508444  3
   1710   1708   1709   1729     1  0.0000000  1.0460000  1
   1710   1708   1709   1729     1  0.0000000  0.0000000  3
   1710   1708   1709   1728     1  0.0000000  0.6508444  3
   1710   1708   1719   1724     1  0.0000000  1.0460000  1
   1710   1708   1719   1724     1  0.0000000  0.0000000  3
   1710   1708   1719   1722     1  0.0000000  0.6508444  3
   1710   1708   1719   1723     1  0.0000000  0.6508444  3
   1710   1708   1726   1713     1  0.0000000  1.6038667  3
   1711   1709   1729   1730     1  0.0000000  1.0460000  1
   1711   1709   1729   1730     1  0.0000000  0.6694400  3
   1711   1712   1713   1716     1  0.0000000  0.6508444  3
   1711   1712   1731   1721     1  0.0000000  1.2552000  3
   1712   1711   1709   1728     1  0.0000000  0.6508444  3
   1712   1711   1718   1720     1  0.0000000  1.0460000  1
   1712   1711   1718   1720     1  0.0000000  0.6694400  3
   1712   1713   1717   1727     1  0.0000000  1.0460000  1
   1712   1713   1717   1727     1  0.0000000  0.6694400  3
   1713   1712   1711   1715     1  0.0000000  0.6508444  3
   1713   1712   1731   1721     1  0.0000000  1.2552000  3
   1714   1712   1711   1718     1  0.0000000  1.0460000  1
   1714   1712   1711   1718     1  0.0000000  0.0000000  3
   1714   1712   1711   1715     1  0.0000000  0.6508444  3
   1714   1712   1713   1717     1  0.0000000  1.0460000  1
   1714   1712   1713   1717     1  0.0000000  0.0000000  3
   1714   1712   1713   1726     1  0.0000000  1.0460000  1
   1714   1712   1713   1726     1  0.0000000  0.0000000  3
   1714   1712   1713   1716     1  0.0000000  0.6508444  3
   1714   1712   1731   1721     1  0.0000000  1.2552000  3
   1715   1711   1709   1729     1  0.0000000  1.0460000  1
   1715   1711   1709   1729     1  0.0000000  0.0000000  3
   1715   1711   1709   1728     1  0.0000000  0.6508444  3
   1715   1711   1712   1731     1  0.0000000  0.6508444  3
   1715   1711   1718   1720     1  0.0000000  0.6973333  3
   1716   1713   1712   1731     1  0.0000000  0.6508444  3
   1716   1713   1717   1727     1  0.0000000  0.6973333  3
   1718   1711   1709   1728     1  0.0000000  1.0460000  1
   1718   1711   1709   1728     1  0.0000000  0.0000000  3
   1719   1708   1709   1728     1  0.0000000  0.6508444  3
   1722   1719   1708   1726     1  0.0000000  1.0460000  1
   1722   1719   1708   1726     1  0.0000000  0.0000000  3
   1722   1719   1724   1725     1  0.0000000  0.6973333  3
   1723   1719   1708   1726     1  0.0000000  1.0460000  1
   1723   1719   1708   1726     1  0.0000000  0.0000000  3
   1723   1719   1724   1725     1  0.0000000  0.6973333  3
   1726   1708   1709   1728     1  0.0000000  1.0460000  1
   1726   1708   1709   1728     1  0.0000000  0.0000000  3
   1726   1713   1717   1727     1  0.0000000  0.6973333  3
   1728   1709   1729   1730     1  0.0000000  0.6973333  3
   1733   1735   1737   1739     1  0.0000000  0.6508444  3
   1733   1735   1737   1740     1  0.0000000  0.6508444  3
   1734   1733   1735   1737     1  0.0000000  0.0000000  2
   1734   1733   1735   1736     1  0.0000000  0.0000000  2
   1734   1733   1735   1738     1  0.0000000  0.0000000  2
   1735   1737   1741   1806     1  0.0000000  0.6508444  3
   1736   1735   1737   1741     1  0.0000000  0.6508444  3
   1736   1735   1737   1739     1  0.0000000  0.6508444  3
   1736   1735   1737   1740     1  0.0000000  0.6508444  3
   1737   1741   1742   1751     1  0.0000000  0.6508444  3
   1737   1741   1742   1752     1  0.0000000  0.6508444  3
   1737   1741   1743   1744     1  0.0000000  0.6508444  3
   1737   1741   1743   1746     1  0.0000000  0.6508444  3
   1738   1735   1737   1741     1  0.0000000  0.6508444  3
   1738   1735   1737   1739     1  0.0000000  0.6508444  3
   1738   1735   1737   1740     1  0.0000000  0.6508444  3
   1739   1737   1741   1742     1  0.0000000  0.6508444  3
   1739   1737   1741   1743     1  0.0000000  0.6508444  3
   1739   1737   1741   1806     1  0.0000000  0.6508444  3
   1740   1737   1741   1742     1  0.0000000  0.6508444  3
   1740   1737   1741   1743     1  0.0000000  0.6508444  3
   1740   1737   1741   1806     1  0.0000000  0.6508444  3
   1741   1742   1753   1754     1  0.0000000  0.6508444  3
   1741   1742   1753   1755     1  0.0000000  0.6508444  3
   1741   1743   1745   1747     1  0.0000000  0.6508444  3
   1741   1743   1745   1748     1  0.0000000  0.6508444  3
   1742   1741   1743   1744     1  0.0000000  0.6508444  3
   1742   1741   1743   1746     1  0.0000000  0.6508444  3
   1743   1741   1742   1751     1  0.0000000  0.6508444  3
   1743   1741   1742   1752     1  0.0000000  0.6508444  3
   1744   1743   1745   1749     1  0.0000000  0.6508444  3
   1744   1743   1745   1747     1  0.0000000  0.6508444  3
   1744   1743   1745   1748     1  0.0000000  0.6508444  3
   1744   1743   1741   1806     1  0.0000000  0.6508444  3
   1745   1749   1781   1771     1  180.0000771  6.0668000  2
   1745   1749   1781   1771     1  180.0000771  1.4644000  4
   1745   1743   1741   1806     1  0.0000000  0.6508444  3
   1746   1743   1745   1749     1  0.0000000  0.6508444  3
   1746   1743   1745   1747     1  0.0000000  0.6508444  3
   1746   1743   1745   1748     1  0.0000000  0.6508444  3
   1746   1743   1741   1806     1  0.0000000  0.6508444  3
   1747   1745   1749   1750     1  0.0000000  3.3472000  1
   1747   1745   1749   1750     1  0.0000000  0.0000000  2
   1747   1745   1749   1750     1  180.0000771  0.3347200  3
   1747   1745   1749   1781     1  180.0000771  0.0000000  2
   1748   1745   1749   1750     1  0.0000000  3.3472000  1
   1748   1745   1749   1750     1  0.0000000  0.0000000  2
   1748   1745   1749   1750     1  180.0000771  0.3347200  3
   1748   1745   1749   1781     1  180.0000771  0.0000000  2
   1749   1781   1762   1764     1  0.0000000  1.2552000  3
   1750   1749   1781   1771     1  180.0000771  6.0668000  2
   1750   1749   1781   1771     1  180.0000771  1.4644000  4
   1751   1742   1753   1756     1  0.0000000  0.6508444  3
   1751   1742   1753   1754     1  0.0000000  0.6508444  3
   1751   1742   1753   1755     1  0.0000000  0.6508444  3
   1751   1742   1741   1806     1  0.0000000  0.6508444  3
   1752   1742   1753   1756     1  0.0000000  0.6508444  3
   1752   1742   1753   1754     1  0.0000000  0.6508444  3
   1752   1742   1753   1755     1  0.0000000  0.6508444  3
   1752   1742   1741   1806     1  0.0000000  0.6508444  3
   1753   1756   1805   1795     1  180.0000771  6.0668000  2
   1753   1756   1805   1795     1  180.0000771  1.4644000  4
   1753   1742   1741   1806     1  0.0000000  0.6508444  3
   1754   1753   1756   1757     1  0.0000000  3.3472000  1
   1754   1753   1756   1757     1  0.0000000  0.0000000  2
   1754   1753   1756   1757     1  180.0000771  0.3347200  3
   1754   1753   1756   1805     1  180.0000771  0.0000000  2
   1755   1753   1756   1757     1  0.0000000  3.3472000  1
   1755   1753   1756   1757     1  0.0000000  0.0000000  2
   1755   1753   1756   1757     1  180.0000771  0.3347200  3
   1755   1753   1756   1805     1  180.0000771  0.0000000  2
   1756   1805   1786   1788     1  0.0000000  1.2552000  3
   1757   1756   1805   1795     1  180.0000771  6.0668000  2
   1757   1756   1805   1795     1  180.0000771  1.4644000  4
   1758   1759   1761   1765     1  0.0000000  0.6508444  3
   1758   1759   1779   1780     1  0.0000000  1.0460000  1
   1758   1759   1779   1780     1  0.0000000  0.6694400  3
   1758   1769   1774   1775     1  0.0000000  1.0460000  1
   1758   1769   1774   1775     1  0.0000000  0.6694400  3
   1758   1776   1763   1766     1  0.0000000  1.6038667  3
   1759   1761   1762   1764     1  0.0000000  0.6508444  3
   1759   1761   1768   1770     1  0.0000000  1.0460000  1
   1759   1761   1768   1770     1  0.0000000  0.6694400  3
   1759   1758   1769   1772     1  0.0000000  0.6508444  3
   1759   1758   1769   1773     1  0.0000000  0.6508444  3
   1760   1758   1759   1761     1  0.0000000  0.6508444  3
   1760   1758   1759   1779     1  0.0000000  1.0460000  1
   1760   1758   1759   1779     1  0.0000000  0.0000000  3
   1760   1758   1759   1778     1  0.0000000  0.6508444  3
   1760   1758   1769   1774     1  0.0000000  1.0460000  1
   1760   1758   1769   1774     1  0.0000000  0.0000000  3
   1760   1758   1769   1772     1  0.0000000  0.6508444  3
   1760   1758   1769   1773     1  0.0000000  0.6508444  3
   1760   1758   1776   1763     1  0.0000000  1.6038667  3
   1761   1762   1763   1766     1  0.0000000  0.6508444  3
   1761   1762   1781   1771     1  0.0000000  1.2552000  3
   1761   1759   1779   1780     1  0.0000000  1.0460000  1
   1761   1759   1779   1780     1  0.0000000  0.6694400  3
   1762   1763   1767   1777     1  0.0000000  1.0460000  1
   1762   1763   1767   1777     1  0.0000000  0.6694400  3
   1762   1761   1768   1770     1  0.0000000  1.0460000  1
   1762   1761   1768   1770     1  0.0000000  0.6694400  3
   1762   1761   1759   1778     1  0.0000000  0.6508444  3
   1763   1762   1781   1771     1  0.0000000  1.2552000  3
   1763   1762   1761   1765     1  0.0000000  0.6508444  3
   1764   1762   1763   1767     1  0.0000000  1.0460000  1
   1764   1762   1763   1767     1  0.0000000  0.0000000  3
   1764   1762   1763   1776     1  0.0000000  1.0460000  1
   1764   1762   1763   1776     1  0.0000000  0.0000000  3
   1764   1762   1763   1766     1  0.0000000  0.6508444  3
   1764   1762   1781   1771     1  0.0000000  1.2552000  3
   1764   1762   1761   1768     1  0.0000000  1.0460000  1
   1764   1762   1761   1768     1  0.0000000  0.0000000  3
   1764   1762   1761   1765     1  0.0000000  0.6508444  3
   1765   1761   1762   1781     1  0.0000000  0.6508444  3
   1765   1761   1768   1770     1  0.0000000  0.6973333  3
   1765   1761   1759   1779     1  0.0000000  1.0460000  1
   1765   1761   1759   1779     1  0.0000000  0.0000000  3
   1765   1761   1759   1778     1  0.0000000  0.6508444  3
   1766   1763   1767   1777     1  0.0000000  0.6973333  3
   1766   1763   1762   1781     1  0.0000000  0.6508444  3
   1768   1761   1759   1778     1  0.0000000  1.0460000  1
   1768   1761   1759   1778     1  0.0000000  0.0000000  3
   1769   1758   1759   1778     1  0.0000000  0.6508444  3
   1772   1769   1774   1775     1  0.0000000  0.6973333  3
   1772   1769   1758   1776     1  0.0000000  1.0460000  1
   1772   1769   1758   1776     1  0.0000000  0.0000000  3
   1773   1769   1774   1775     1  0.0000000  0.6973333  3
   1773   1769   1758   1776     1  0.0000000  1.0460000  1
   1773   1769   1758   1776     1  0.0000000  0.0000000  3
   1776   1763   1767   1777     1  0.0000000  0.6973333  3
   1776   1758   1759   1778     1  0.0000000  1.0460000  1
   1776   1758   1759   1778     1  0.0000000  0.0000000  3
   1778   1759   1779   1780     1  0.0000000  0.6973333  3
   1782   1783   1785   1789     1  0.0000000  0.6508444  3
   1782   1783   1803   1804     1  0.0000000  1.0460000  1
   1782   1783   1803   1804     1  0.0000000  0.6694400  3
   1782   1793   1798   1799     1  0.0000000  1.0460000  1
   1782   1793   1798   1799     1  0.0000000  0.6694400  3
   1782   1800   1787   1790     1  0.0000000  1.6038667  3
   1783   1785   1786   1788     1  0.0000000  0.6508444  3
   1783   1785   1792   1794     1  0.0000000  1.0460000  1
   1783   1785   1792   1794     1  0.0000000  0.6694400  3
   1783   1782   1793   1796     1  0.0000000  0.6508444  3
   1783   1782   1793   1797     1  0.0000000  0.6508444  3
   1784   1782   1783   1785     1  0.0000000  0.6508444  3
   1784   1782   1783   1803     1  0.0000000  1.0460000  1
   1784   1782   1783   1803     1  0.0000000  0.0000000  3
   1784   1782   1783   1802     1  0.0000000  0.6508444  3
   1784   1782   1793   1798     1  0.0000000  1.0460000  1
   1784   1782   1793   1798     1  0.0000000  0.0000000  3
   1784   1782   1793   1796     1  0.0000000  0.6508444  3
   1784   1782   1793   1797     1  0.0000000  0.6508444  3
   1784   1782   1800   1787     1  0.0000000  1.6038667  3
   1785   1786   1787   1790     1  0.0000000  0.6508444  3
   1785   1786   1805   1795     1  0.0000000  1.2552000  3
   1785   1783   1803   1804     1  0.0000000  1.0460000  1
   1785   1783   1803   1804     1  0.0000000  0.6694400  3
   1786   1787   1791   1801     1  0.0000000  1.0460000  1
   1786   1787   1791   1801     1  0.0000000  0.6694400  3
   1786   1785   1792   1794     1  0.0000000  1.0460000  1
   1786   1785   1792   1794     1  0.0000000  0.6694400  3
   1786   1785   1783   1802     1  0.0000000  0.6508444  3
   1787   1786   1805   1795     1  0.0000000  1.2552000  3
   1787   1786   1785   1789     1  0.0000000  0.6508444  3
   1788   1786   1787   1791     1  0.0000000  1.0460000  1
   1788   1786   1787   1791     1  0.0000000  0.0000000  3
   1788   1786   1787   1800     1  0.0000000  1.0460000  1
   1788   1786   1787   1800     1  0.0000000  0.0000000  3
   1788   1786   1787   1790     1  0.0000000  0.6508444  3
   1788   1786   1805   1795     1  0.0000000  1.2552000  3
   1788   1786   1785   1792     1  0.0000000  1.0460000  1
   1788   1786   1785   1792     1  0.0000000  0.0000000  3
   1788   1786   1785   1789     1  0.0000000  0.6508444  3
   1789   1785   1786   1805     1  0.0000000  0.6508444  3
   1789   1785   1792   1794     1  0.0000000  0.6973333  3
   1789   1785   1783   1803     1  0.0000000  1.0460000  1
   1789   1785   1783   1803     1  0.0000000  0.0000000  3
   1789   1785   1783   1802     1  0.0000000  0.6508444  3
   1790   1787   1791   1801     1  0.0000000  0.6973333  3
   1790   1787   1786   1805     1  0.0000000  0.6508444  3
   1792   1785   1783   1802     1  0.0000000  1.0460000  1
   1792   1785   1783   1802     1  0.0000000  0.0000000  3
   1793   1782   1783   1802     1  0.0000000  0.6508444  3
   1796   1793   1798   1799     1  0.0000000  0.6973333  3
   1796   1793   1782   1800     1  0.0000000  1.0460000  1
   1796   1793   1782   1800     1  0.0000000  0.0000000  3
   1797   1793   1798   1799     1  0.0000000  0.6973333  3
   1797   1793   1782   1800     1  0.0000000  1.0460000  1
   1797   1793   1782   1800     1  0.0000000  0.0000000  3
   1800   1787   1791   1801     1  0.0000000  0.6973333  3
   1800   1782   1783   1802     1  0.0000000  1.0460000  1
   1800   1782   1783   1802     1  0.0000000  0.0000000  3
   1802   1783   1803   1804     1  0.0000000  0.6973333  3
   1807   1809   1811   1813     1  0.0000000  0.6508444  3
   1807   1809   1811   1814     1  0.0000000  0.6508444  3
   1808   1807   1809   1811     1  0.0000000  0.0000000  2
   1808   1807   1809   1810     1  0.0000000  0.0000000  2
   1808   1807   1809   1812     1  0.0000000  0.0000000  2
   1809   1811   1815   1880     1  0.0000000  0.6508444  3
   1810   1809   1811   1815     1  0.0000000  0.6508444  3
   1810   1809   1811   1813     1  0.0000000  0.6508444  3
   1810   1809   1811   1814     1  0.0000000  0.6508444  3
   1811   1815   1816   1825     1  0.0000000  0.6508444  3
   1811   1815   1816   1826     1  0.0000000  0.6508444  3
   1811   1815   1817   1818     1  0.0000000  0.6508444  3
   1811   1815   1817   1820     1  0.0000000  0.6508444  3
   1812   1809   1811   1815     1  0.0000000  0.6508444  3
   1812   1809   1811   1813     1  0.0000000  0.6508444  3
   1812   1809   1811   1814     1  0.0000000  0.6508444  3
   1813   1811   1815   1816     1  0.0000000  0.6508444  3
   1813   1811   1815   1817     1  0.0000000  0.6508444  3
   1813   1811   1815   1880     1  0.0000000  0.6508444  3
   1814   1811   1815   1816     1  0.0000000  0.6508444  3
   1814   1811   1815   1817     1  0.0000000  0.6508444  3
   1814   1811   1815   1880     1  0.0000000  0.6508444  3
   1815   1816   1827   1828     1  0.0000000  0.6508444  3
   1815   1816   1827   1829     1  0.0000000  0.6508444  3
   1815   1817   1819   1821     1  0.0000000  0.6508444  3
   1815   1817   1819   1822     1  0.0000000  0.6508444  3
   1816   1815   1817   1818     1  0.0000000  0.6508444  3
   1816   1815   1817   1820     1  0.0000000  0.6508444  3
   1817   1815   1816   1825     1  0.0000000  0.6508444  3
   1817   1815   1816   1826     1  0.0000000  0.6508444  3
   1818   1817   1815   1880     1  0.0000000  0.6508444  3
   1818   1817   1819   1823     1  0.0000000  0.6508444  3
   1818   1817   1819   1821     1  0.0000000  0.6508444  3
   1818   1817   1819   1822     1  0.0000000  0.6508444  3
   1819   1817   1815   1880     1  0.0000000  0.6508444  3
   1819   1823   1855   1845     1  180.0000771  6.0668000  2
   1819   1823   1855   1845     1  180.0000771  1.4644000  4
   1820   1817   1815   1880     1  0.0000000  0.6508444  3
   1820   1817   1819   1823     1  0.0000000  0.6508444  3
   1820   1817   1819   1821     1  0.0000000  0.6508444  3
   1820   1817   1819   1822     1  0.0000000  0.6508444  3
   1821   1819   1823   1824     1  0.0000000  3.3472000  1
   1821   1819   1823   1824     1  0.0000000  0.0000000  2
   1821   1819   1823   1824     1  180.0000771  0.3347200  3
   1821   1819   1823   1855     1  180.0000771  0.0000000  2
   1822   1819   1823   1824     1  0.0000000  3.3472000  1
   1822   1819   1823   1824     1  0.0000000  0.0000000  2
   1822   1819   1823   1824     1  180.0000771  0.3347200  3
   1822   1819   1823   1855     1  180.0000771  0.0000000  2
   1823   1855   1836   1838     1  0.0000000  1.2552000  3
   1824   1823   1855   1845     1  180.0000771  6.0668000  2
   1824   1823   1855   1845     1  180.0000771  1.4644000  4
   1825   1816   1815   1880     1  0.0000000  0.6508444  3
   1825   1816   1827   1830     1  0.0000000  0.6508444  3
   1825   1816   1827   1828     1  0.0000000  0.6508444  3
   1825   1816   1827   1829     1  0.0000000  0.6508444  3
   1826   1816   1815   1880     1  0.0000000  0.6508444  3
   1826   1816   1827   1830     1  0.0000000  0.6508444  3
   1826   1816   1827   1828     1  0.0000000  0.6508444  3
   1826   1816   1827   1829     1  0.0000000  0.6508444  3
   1827   1816   1815   1880     1  0.0000000  0.6508444  3
   1827   1830   1879   1869     1  180.0000771  6.0668000  2
   1827   1830   1879   1869     1  180.0000771  1.4644000  4
   1828   1827   1830   1831     1  0.0000000  3.3472000  1
   1828   1827   1830   1831     1  0.0000000  0.0000000  2
   1828   1827   1830   1831     1  180.0000771  0.3347200  3
   1828   1827   1830   1879     1  180.0000771  0.0000000  2
   1829   1827   1830   1831     1  0.0000000  3.3472000  1
   1829   1827   1830   1831     1  0.0000000  0.0000000  2
   1829   1827   1830   1831     1  180.0000771  0.3347200  3
   1829   1827   1830   1879     1  180.0000771  0.0000000  2
   1830   1879   1860   1862     1  0.0000000  1.2552000  3
   1831   1830   1879   1869     1  180.0000771  6.0668000  2
   1831   1830   1879   1869     1  180.0000771  1.4644000  4
   1832   1833   1835   1839     1  0.0000000  0.6508444  3
   1832   1833   1853   1854     1  0.0000000  1.0460000  1
   1832   1833   1853   1854     1  0.0000000  0.6694400  3
   1832   1843   1848   1849     1  0.0000000  1.0460000  1
   1832   1843   1848   1849     1  0.0000000  0.6694400  3
   1832   1850   1837   1840     1  0.0000000  1.6038667  3
   1833   1832   1843   1846     1  0.0000000  0.6508444  3
   1833   1832   1843   1847     1  0.0000000  0.6508444  3
   1833   1835   1836   1838     1  0.0000000  0.6508444  3
   1833   1835   1842   1844     1  0.0000000  1.0460000  1
   1833   1835   1842   1844     1  0.0000000  0.6694400  3
   1834   1832   1833   1835     1  0.0000000  0.6508444  3
   1834   1832   1833   1853     1  0.0000000  1.0460000  1
   1834   1832   1833   1853     1  0.0000000  0.0000000  3
   1834   1832   1833   1852     1  0.0000000  0.6508444  3
   1834   1832   1843   1848     1  0.0000000  1.0460000  1
   1834   1832   1843   1848     1  0.0000000  0.0000000  3
   1834   1832   1843   1846     1  0.0000000  0.6508444  3
   1834   1832   1843   1847     1  0.0000000  0.6508444  3
   1834   1832   1850   1837     1  0.0000000  1.6038667  3
   1835   1833   1853   1854     1  0.0000000  1.0460000  1
   1835   1833   1853   1854     1  0.0000000  0.6694400  3
   1835   1836   1837   1840     1  0.0000000  0.6508444  3
   1835   1836   1855   1845     1  0.0000000  1.2552000  3
   1836   1835   1833   1852     1  0.0000000  0.6508444  3
   1836   1835   1842   1844     1  0.0000000  1.0460000  1
   1836   1835   1842   1844     1  0.0000000  0.6694400  3
   1836   1837   1841   1851     1  0.0000000  1.0460000  1
   1836   1837   1841   1851     1  0.0000000  0.6694400  3
   1837   1836   1835   1839     1  0.0000000  0.6508444  3
   1837   1836   1855   1845     1  0.0000000  1.2552000  3
   1838   1836   1835   1842     1  0.0000000  1.0460000  1
   1838   1836   1835   1842     1  0.0000000  0.0000000  3
   1838   1836   1835   1839     1  0.0000000  0.6508444  3
   1838   1836   1837   1841     1  0.0000000  1.0460000  1
   1838   1836   1837   1841     1  0.0000000  0.0000000  3
   1838   1836   1837   1850     1  0.0000000  1.0460000  1
   1838   1836   1837   1850     1  0.0000000  0.0000000  3
   1838   1836   1837   1840     1  0.0000000  0.6508444  3
   1838   1836   1855   1845     1  0.0000000  1.2552000  3
   1839   1835   1833   1853     1  0.0000000  1.0460000  1
   1839   1835   1833   1853     1  0.0000000  0.0000000  3
   1839   1835   1833   1852     1  0.0000000  0.6508444  3
   1839   1835   1836   1855     1  0.0000000  0.6508444  3
   1839   1835   1842   1844     1  0.0000000  0.6973333  3
   1840   1837   1836   1855     1  0.0000000  0.6508444  3
   1840   1837   1841   1851     1  0.0000000  0.6973333  3
   1842   1835   1833   1852     1  0.0000000  1.0460000  1
   1842   1835   1833   1852     1  0.0000000  0.0000000  3
   1843   1832   1833   1852     1  0.0000000  0.6508444  3
   1846   1843   1832   1850     1  0.0000000  1.0460000  1
   1846   1843   1832   1850     1  0.0000000  0.0000000  3
   1846   1843   1848   1849     1  0.0000000  0.6973333  3
   1847   1843   1832   1850     1  0.0000000  1.0460000  1
   1847   1843   1832   1850     1  0.0000000  0.0000000  3
   1847   1843   1848   1849     1  0.0000000  0.6973333  3
   1850   1832   1833   1852     1  0.0000000  1.0460000  1
   1850   1832   1833   1852     1  0.0000000  0.0000000  3
   1850   1837   1841   1851     1  0.0000000  0.6973333  3
   1852   1833   1853   1854     1  0.0000000  0.6973333  3
   1856   1857   1859   1863     1  0.0000000  0.6508444  3
   1856   1857   1877   1878     1  0.0000000  1.0460000  1
   1856   1857   1877   1878     1  0.0000000  0.6694400  3
   1856   1867   1872   1873     1  0.0000000  1.0460000  1
   1856   1867   1872   1873     1  0.0000000  0.6694400  3
   1856   1874   1861   1864     1  0.0000000  1.6038667  3
   1857   1856   1867   1870     1  0.0000000  0.6508444  3
   1857   1856   1867   1871     1  0.0000000  0.6508444  3
   1857   1859   1860   1862     1  0.0000000  0.6508444  3
   1857   1859   1866   1868     1  0.0000000  1.0460000  1
   1857   1859   1866   1868     1  0.0000000  0.6694400  3
   1858   1856   1857   1859     1  0.0000000  0.6508444  3
   1858   1856   1857   1877     1  0.0000000  1.0460000  1
   1858   1856   1857   1877     1  0.0000000  0.0000000  3
   1858   1856   1857   1876     1  0.0000000  0.6508444  3
   1858   1856   1867   1872     1  0.0000000  1.0460000  1
   1858   1856   1867   1872     1  0.0000000  0.0000000  3
   1858   1856   1867   1870     1  0.0000000  0.6508444  3
   1858   1856   1867   1871     1  0.0000000  0.6508444  3
   1858   1856   1874   1861     1  0.0000000  1.6038667  3
   1859   1857   1877   1878     1  0.0000000  1.0460000  1
   1859   1857   1877   1878     1  0.0000000  0.6694400  3
   1859   1860   1861   1864     1  0.0000000  0.6508444  3
   1859   1860   1879   1869     1  0.0000000  1.2552000  3
   1860   1859   1857   1876     1  0.0000000  0.6508444  3
   1860   1859   1866   1868     1  0.0000000  1.0460000  1
   1860   1859   1866   1868     1  0.0000000  0.6694400  3
   1860   1861   1865   1875     1  0.0000000  1.0460000  1
   1860   1861   1865   1875     1  0.0000000  0.6694400  3
   1861   1860   1859   1863     1  0.0000000  0.6508444  3
   1861   1860   1879   1869     1  0.0000000  1.2552000  3
   1862   1860   1859   1866     1  0.0000000  1.0460000  1
   1862   1860   1859   1866     1  0.0000000  0.0000000  3
   1862   1860   1859   1863     1  0.0000000  0.6508444  3
   1862   1860   1861   1865     1  0.0000000  1.0460000  1
   1862   1860   1861   1865     1  0.0000000  0.0000000  3
   1862   1860   1861   1874     1  0.0000000  1.0460000  1
   1862   1860   1861   1874     1  0.0000000  0.0000000  3
   1862   1860   1861   1864     1  0.0000000  0.6508444  3
   1862   1860   1879   1869     1  0.0000000  1.2552000  3
   1863   1859   1857   1877     1  0.0000000  1.0460000  1
   1863   1859   1857   1877     1  0.0000000  0.0000000  3
   1863   1859   1857   1876     1  0.0000000  0.6508444  3
   1863   1859   1860   1879     1  0.0000000  0.6508444  3
   1863   1859   1866   1868     1  0.0000000  0.6973333  3
   1864   1861   1860   1879     1  0.0000000  0.6508444  3
   1864   1861   1865   1875     1  0.0000000  0.6973333  3
   1866   1859   1857   1876     1  0.0000000  1.0460000  1
   1866   1859   1857   1876     1  0.0000000  0.0000000  3
   1867   1856   1857   1876     1  0.0000000  0.6508444  3
   1870   1867   1856   1874     1  0.0000000  1.0460000  1
   1870   1867   1856   1874     1  0.0000000  0.0000000  3
   1870   1867   1872   1873     1  0.0000000  0.6973333  3
   1871   1867   1856   1874     1  0.0000000  1.0460000  1
   1871   1867   1856   1874     1  0.0000000  0.0000000  3
   1871   1867   1872   1873     1  0.0000000  0.6973333  3
   1874   1856   1857   1876     1  0.0000000  1.0460000  1
   1874   1856   1857   1876     1  0.0000000  0.0000000  3
   1874   1861   1865   1875     1  0.0000000  0.6973333  3
   1876   1857   1877   1878     1  0.0000000  0.6973333  3
   1881   1883   1885   1887     1  0.0000000  0.6508444  3
   1881   1883   1885   1888     1  0.0000000  0.6508444  3
   1882   1881   1883   1885     1  0.0000000  0.0000000  2
   1882   1881   1883   1884     1  0.0000000  0.0000000  2
   1882   1881   1883   1886     1  0.0000000  0.0000000  2
   1883   1885   1889   1954     1  0.0000000  0.6508444  3
   1884   1883   1885   1889     1  0.0000000  0.6508444  3
   1884   1883   1885   1887     1  0.0000000  0.6508444  3
   1884   1883   1885   1888     1  0.0000000  0.6508444  3
   1885   1889   1890   1899     1  0.0000000  0.6508444  3
   1885   1889   1890   1900     1  0.0000000  0.6508444  3
   1885   1889   1891   1892     1  0.0000000  0.6508444  3
   1885   1889   1891   1894     1  0.0000000  0.6508444  3
   1886   1883   1885   1889     1  0.0000000  0.6508444  3
   1886   1883   1885   1887     1  0.0000000  0.6508444  3
   1886   1883   1885   1888     1  0.0000000  0.6508444  3
   1887   1885   1889   1890     1  0.0000000  0.6508444  3
   1887   1885   1889   1891     1  0.0000000  0.6508444  3
   1887   1885   1889   1954     1  0.0000000  0.6508444  3
   1888   1885   1889   1890     1  0.0000000  0.6508444  3
   1888   1885   1889   1891     1  0.0000000  0.6508444  3
   1888   1885   1889   1954     1  0.0000000  0.6508444  3
   1889   1890   1901   1902     1  0.0000000  0.6508444  3
   1889   1890   1901   1903     1  0.0000000  0.6508444  3
   1889   1891   1893   1895     1  0.0000000  0.6508444  3
   1889   1891   1893   1896     1  0.0000000  0.6508444  3
   1890   1889   1891   1892     1  0.0000000  0.6508444  3
   1890   1889   1891   1894     1  0.0000000  0.6508444  3
   1891   1889   1890   1899     1  0.0000000  0.6508444  3
   1891   1889   1890   1900     1  0.0000000  0.6508444  3
   1892   1891   1893   1897     1  0.0000000  0.6508444  3
   1892   1891   1893   1895     1  0.0000000  0.6508444  3
   1892   1891   1893   1896     1  0.0000000  0.6508444  3
   1892   1891   1889   1954     1  0.0000000  0.6508444  3
   1893   1897   1929   1919     1  180.0000771  6.0668000  2
   1893   1897   1929   1919     1  180.0000771  1.4644000  4
   1893   1891   1889   1954     1  0.0000000  0.6508444  3
   1894   1891   1893   1897     1  0.0000000  0.6508444  3
   1894   1891   1893   1895     1  0.0000000  0.6508444  3
   1894   1891   1893   1896     1  0.0000000  0.6508444  3
   1894   1891   1889   1954     1  0.0000000  0.6508444  3
   1895   1893   1897   1898     1  0.0000000  3.3472000  1
   1895   1893   1897   1898     1  0.0000000  0.0000000  2
   1895   1893   1897   1898     1  180.0000771  0.3347200  3
   1895   1893   1897   1929     1  180.0000771  0.0000000  2
   1896   1893   1897   1898     1  0.0000000  3.3472000  1
   1896   1893   1897   1898     1  0.0000000  0.0000000  2
   1896   1893   1897   1898     1  180.0000771  0.3347200  3
   1896   1893   1897   1929     1  180.0000771  0.0000000  2
   1897   1929   1910   1912     1  0.0000000  1.2552000  3
   1898   1897   1929   1919     1  180.0000771  6.0668000  2
   1898   1897   1929   1919     1  180.0000771  1.4644000  4
   1899   1890   1901   1904     1  0.0000000  0.6508444  3
   1899   1890   1901   1902     1  0.0000000  0.6508444  3
   1899   1890   1901   1903     1  0.0000000  0.6508444  3
   1899   1890   1889   1954     1  0.0000000  0.6508444  3
   1900   1890   1901   1904     1  0.0000000  0.6508444  3
   1900   1890   1901   1902     1  0.0000000  0.6508444  3
   1900   1890   1901   1903     1  0.0000000  0.6508444  3
   1900   1890   1889   1954     1  0.0000000  0.6508444  3
   1901   1904   1953   1943     1  180.0000771  6.0668000  2
   1901   1904   1953   1943     1  180.0000771  1.4644000  4
   1901   1890   1889   1954     1  0.0000000  0.6508444  3
   1902   1901   1904   1905     1  0.0000000  3.3472000  1
   1902   1901   1904   1905     1  0.0000000  0.0000000  2
   1902   1901   1904   1905     1  180.0000771  0.3347200  3
   1902   1901   1904   1953     1  180.0000771  0.0000000  2
   1903   1901   1904   1905     1  0.0000000  3.3472000  1
   1903   1901   1904   1905     1  0.0000000  0.0000000  2
   1903   1901   1904   1905     1  180.0000771  0.3347200  3
   1903   1901   1904   1953     1  180.0000771  0.0000000  2
   1904   1953   1934   1936     1  0.0000000  1.2552000  3
   1905   1904   1953   1943     1  180.0000771  6.0668000  2
   1905   1904   1953   1943     1  180.0000771  1.4644000  4
   1906   1907   1909   1913     1  0.0000000  0.6508444  3
   1906   1907   1927   1928     1  0.0000000  1.0460000  1
   1906   1907   1927   1928     1  0.0000000  0.6694400  3
   1906   1917   1922   1923     1  0.0000000  1.0460000  1
   1906   1917   1922   1923     1  0.0000000  0.6694400  3
   1906   1924   1911   1914     1  0.0000000  1.6038667  3
   1907   1909   1910   1912     1  0.0000000  0.6508444  3
   1907   1909   1916   1918     1  0.0000000  1.0460000  1
   1907   1909   1916   1918     1  0.0000000  0.6694400  3
   1907   1906   1917   1920     1  0.0000000  0.6508444  3
   1907   1906   1917   1921     1  0.0000000  0.6508444  3
   1908   1906   1907   1909     1  0.0000000  0.6508444  3
   1908   1906   1907   1927     1  0.0000000  1.0460000  1
   1908   1906   1907   1927     1  0.0000000  0.0000000  3
   1908   1906   1907   1926     1  0.0000000  0.6508444  3
   1908   1906   1917   1922     1  0.0000000  1.0460000  1
   1908   1906   1917   1922     1  0.0000000  0.0000000  3
   1908   1906   1917   1920     1  0.0000000  0.6508444  3
   1908   1906   1917   1921     1  0.0000000  0.6508444  3
   1908   1906   1924   1911     1  0.0000000  1.6038667  3
   1909   1910   1911   1914     1  0.0000000  0.6508444  3
   1909   1910   1929   1919     1  0.0000000  1.2552000  3
   1909   1907   1927   1928     1  0.0000000  1.0460000  1
   1909   1907   1927   1928     1  0.0000000  0.6694400  3
   1910   1911   1915   1925     1  0.0000000  1.0460000  1
   1910   1911   1915   1925     1  0.0000000  0.6694400  3
   1910   1909   1916   1918     1  0.0000000  1.0460000  1
   1910   1909   1916   1918     1  0.0000000  0.6694400  3
   1910   1909   1907   1926     1  0.0000000  0.6508444  3
   1911   1910   1929   1919     1  0.0000000  1.2552000  3
   1911   1910   1909   1913     1  0.0000000  0.6508444  3
   1912   1910   1911   1915     1  0.0000000  1.0460000  1
   1912   1910   1911   1915     1  0.0000000  0.0000000  3
   1912   1910   1911   1924     1  0.0000000  1.0460000  1
   1912   1910   1911   1924     1  0.0000000  0.0000000  3
   1912   1910   1911   1914     1  0.0000000  0.6508444  3
   1912   1910   1929   1919     1  0.0000000  1.2552000  3
   1912   1910   1909   1916     1  0.0000000  1.0460000  1
   1912   1910   1909   1916     1  0.0000000  0.0000000  3
   1912   1910   1909   1913     1  0.0000000  0.6508444  3
   1913   1909   1910   1929     1  0.0000000  0.6508444  3
   1913   1909   1916   1918     1  0.0000000  0.6973333  3
   1913   1909   1907   1927     1  0.0000000  1.0460000  1
   1913   1909   1907   1927     1  0.0000000  0.0000000  3
   1913   1909   1907   1926     1  0.0000000  0.6508444  3
   1914   1911   1915   1925     1  0.0000000  0.6973333  3
   1914   1911   1910   1929     1  0.0000000  0.6508444  3
   1916   1909   1907   1926     1  0.0000000  1.0460000  1
   1916   1909   1907   1926     1  0.0000000  0.0000000  3
   1917   1906   1907   1926     1  0.0000000  0.6508444  3
   1920   1917   1922   1923     1  0.0000000  0.6973333  3
   1920   1917   1906   1924     1  0.0000000  1.0460000  1
   1920   1917   1906   1924     1  0.0000000  0.0000000  3
   1921   1917   1922   1923     1  0.0000000  0.6973333  3
   1921   1917   1906   1924     1  0.0000000  1.0460000  1
   1921   1917   1906   1924     1  0.0000000  0.0000000  3
   1924   1911   1915   1925     1  0.0000000  0.6973333  3
   1924   1906   1907   1926     1  0.0000000  1.0460000  1
   1924   1906   1907   1926     1  0.0000000  0.0000000  3
   1926   1907   1927   1928     1  0.0000000  0.6973333  3
   1930   1931   1933   1937     1  0.0000000  0.6508444  3
   1930   1931   1951   1952     1  0.0000000  1.0460000  1
   1930   1931   1951   1952     1  0.0000000  0.6694400  3
   1930   1941   1946   1947     1  0.0000000  1.0460000  1
   1930   1941   1946   1947     1  0.0000000  0.6694400  3
   1930   1948   1935   1938     1  0.0000000  1.6038667  3
   1931   1933   1934   1936     1  0.0000000  0.6508444  3
   1931   1933   1940   1942     1  0.0000000  1.0460000  1
   1931   1933   1940   1942     1  0.0000000  0.6694400  3
   1931   1930   1941   1944     1  0.0000000  0.6508444  3
   1931   1930   1941   1945     1  0.0000000  0.6508444  3
   1932   1930   1931   1933     1  0.0000000  0.6508444  3
   1932   1930   1931   1951     1  0.0000000  1.0460000  1
   1932   1930   1931   1951     1  0.0000000  0.0000000  3
   1932   1930   1931   1950     1  0.0000000  0.6508444  3
   1932   1930   1941   1946     1  0.0000000  1.0460000  1
   1932   1930   1941   1946     1  0.0000000  0.0000000  3
   1932   1930   1941   1944     1  0.0000000  0.6508444  3
   1932   1930   1941   1945     1  0.0000000  0.6508444  3
   1932   1930   1948   1935     1  0.0000000  1.6038667  3
   1933   1934   1935   1938     1  0.0000000  0.6508444  3
   1933   1934   1953   1943     1  0.0000000  1.2552000  3
   1933   1931   1951   1952     1  0.0000000  1.0460000  1
   1933   1931   1951   1952     1  0.0000000  0.6694400  3
   1934   1935   1939   1949     1  0.0000000  1.0460000  1
   1934   1935   1939   1949     1  0.0000000  0.6694400  3
   1934   1933   1940   1942     1  0.0000000  1.0460000  1
   1934   1933   1940   1942     1  0.0000000  0.6694400  3
   1934   1933   1931   1950     1  0.0000000  0.6508444  3
   1935   1934   1953   1943     1  0.0000000  1.2552000  3
   1935   1934   1933   1937     1  0.0000000  0.6508444  3
   1936   1934   1935   1939     1  0.0000000  1.0460000  1
   1936   1934   1935   1939     1  0.0000000  0.0000000  3
   1936   1934   1935   1948     1  0.0000000  1.0460000  1
   1936   1934   1935   1948     1  0.0000000  0.0000000  3
   1936   1934   1935   1938     1  0.0000000  0.6508444  3
   1936   1934   1953   1943     1  0.0000000  1.2552000  3
   1936   1934   1933   1940     1  0.0000000  1.0460000  1
   1936   1934   1933   1940     1  0.0000000  0.0000000  3
   1936   1934   1933   1937     1  0.0000000  0.6508444  3
   1937   1933   1934   1953     1  0.0000000  0.6508444  3
   1937   1933   1940   1942     1  0.0000000  0.6973333  3
   1937   1933   1931   1951     1  0.0000000  1.0460000  1
   1937   1933   1931   1951     1  0.0000000  0.0000000  3
   1937   1933   1931   1950     1  0.0000000  0.6508444  3
   1938   1935   1939   1949     1  0.0000000  0.6973333  3
   1938   1935   1934   1953     1  0.0000000  0.6508444  3
   1940   1933   1931   1950     1  0.0000000  1.0460000  1
   1940   1933   1931   1950     1  0.0000000  0.0000000  3
   1941   1930   1931   1950     1  0.0000000  0.6508444  3
   1944   1941   1946   1947     1  0.0000000  0.6973333  3
   1944   1941   1930   1948     1  0.0000000  1.0460000  1
   1944   1941   1930   1948     1  0.0000000  0.0000000  3
   1945   1941   1946   1947     1  0.0000000  0.6973333  3
   1945   1941   1930   1948     1  0.0000000  1.0460000  1
   1945   1941   1930   1948     1  0.0000000  0.0000000  3
   1948   1935   1939   1949     1  0.0000000  0.6973333  3
   1948   1930   1931   1950     1  0.0000000  1.0460000  1
   1948   1930   1931   1950     1  0.0000000  0.0000000  3
   1950   1931   1951   1952     1  0.0000000  0.6973333  3
   1955   1957   1959   1961     1  0.0000000  0.6508444  3
   1955   1957   1959   1962     1  0.0000000  0.6508444  3
   1956   1955   1957   1959     1  0.0000000  0.0000000  2
   1956   1955   1957   1958     1  0.0000000  0.0000000  2
   1956   1955   1957   1960     1  0.0000000  0.0000000  2
   1957   1959   1963   2028     1  0.0000000  0.6508444  3
   1958   1957   1959   1963     1  0.0000000  0.6508444  3
   1958   1957   1959   1961     1  0.0000000  0.6508444  3
   1958   1957   1959   1962     1  0.0000000  0.6508444  3
   1959   1963   1964   1973     1  0.0000000  0.6508444  3
   1959   1963   1964   1974     1  0.0000000  0.6508444  3
   1959   1963   1965   1966     1  0.0000000  0.6508444  3
   1959   1963   1965   1968     1  0.0000000  0.6508444  3
   1960   1957   1959   1963     1  0.0000000  0.6508444  3
   1960   1957   1959   1961     1  0.0000000  0.6508444  3
   1960   1957   1959   1962     1  0.0000000  0.6508444  3
   1961   1959   1963   1964     1  0.0000000  0.6508444  3
   1961   1959   1963   1965     1  0.0000000  0.6508444  3
   1961   1959   1963   2028     1  0.0000000  0.6508444  3
   1962   1959   1963   1964     1  0.0000000  0.6508444  3
   1962   1959   1963   1965     1  0.0000000  0.6508444  3
   1962   1959   1963   2028     1  0.0000000  0.6508444  3
   1963   1964   1975   1976     1  0.0000000  0.6508444  3
   1963   1964   1975   1977     1  0.0000000  0.6508444  3
   1963   1965   1967   1969     1  0.0000000  0.6508444  3
   1963   1965   1967   1970     1  0.0000000  0.6508444  3
   1964   1963   1965   1966     1  0.0000000  0.6508444  3
   1964   1963   1965   1968     1  0.0000000  0.6508444  3
   1965   1963   1964   1973     1  0.0000000  0.6508444  3
   1965   1963   1964   1974     1  0.0000000  0.6508444  3
   1966   1965   1963   2028     1  0.0000000  0.6508444  3
   1966   1965   1967   1971     1  0.0000000  0.6508444  3
   1966   1965   1967   1969     1  0.0000000  0.6508444  3
   1966   1965   1967   1970     1  0.0000000  0.6508444  3
   1967   1965   1963   2028     1  0.0000000  0.6508444  3
   1967   1971   2003   1993     1  180.0000771  6.0668000  2
   1967   1971   2003   1993     1  180.0000771  1.4644000  4
   1968   1965   1963   2028     1  0.0000000  0.6508444  3
   1968   1965   1967   1971     1  0.0000000  0.6508444  3
   1968   1965   1967   1969     1  0.0000000  0.6508444  3
   1968   1965   1967   1970     1  0.0000000  0.6508444  3
   1969   1967   1971   1972     1  0.0000000  3.3472000  1
   1969   1967   1971   1972     1  0.0000000  0.0000000  2
   1969   1967   1971   1972     1  180.0000771  0.3347200  3
   1969   1967   1971   2003     1  180.0000771  0.0000000  2
   1970   1967   1971   1972     1  0.0000000  3.3472000  1
   1970   1967   1971   1972     1  0.0000000  0.0000000  2
   1970   1967   1971   1972     1  180.0000771  0.3347200  3
   1970   1967   1971   2003     1  180.0000771  0.0000000  2
   1971   2003   1984   1986     1  0.0000000  1.2552000  3
   1972   1971   2003   1993     1  180.0000771  6.0668000  2
   1972   1971   2003   1993     1  180.0000771  1.4644000  4
   1973   1964   1963   2028     1  0.0000000  0.6508444  3
   1973   1964   1975   1978     1  0.0000000  0.6508444  3
   1973   1964   1975   1976     1  0.0000000  0.6508444  3
   1973   1964   1975   1977     1  0.0000000  0.6508444  3
   1974   1964   1963   2028     1  0.0000000  0.6508444  3
   1974   1964   1975   1978     1  0.0000000  0.6508444  3
   1974   1964   1975   1976     1  0.0000000  0.6508444  3
   1974   1964   1975   1977     1  0.0000000  0.6508444  3
   1975   1964   1963   2028     1  0.0000000  0.6508444  3
   1975   1978   2027   2017     1  180.0000771  6.0668000  2
   1975   1978   2027   2017     1  180.0000771  1.4644000  4
   1976   1975   1978   1979     1  0.0000000  3.3472000  1
   1976   1975   1978   1979     1  0.0000000  0.0000000  2
   1976   1975   1978   1979     1  180.0000771  0.3347200  3
   1976   1975   1978   2027     1  180.0000771  0.0000000  2
   1977   1975   1978   1979     1  0.0000000  3.3472000  1
   1977   1975   1978   1979     1  0.0000000  0.0000000  2
   1977   1975   1978   1979     1  180.0000771  0.3347200  3
   1977   1975   1978   2027     1  180.0000771  0.0000000  2
   1978   2027   2008   2010     1  0.0000000  1.2552000  3
   1979   1978   2027   2017     1  180.0000771  6.0668000  2
   1979   1978   2027   2017     1  180.0000771  1.4644000  4
   1980   1981   1983   1987     1  0.0000000  0.6508444  3
   1980   1981   2001   2002     1  0.0000000  1.0460000  1
   1980   1981   2001   2002     1  0.0000000  0.6694400  3
   1980   1991   1996   1997     1  0.0000000  1.0460000  1
   1980   1991   1996   1997     1  0.0000000  0.6694400  3
   1980   1998   1985   1988     1  0.0000000  1.6038667  3
   1981   1980   1991   1994     1  0.0000000  0.6508444  3
   1981   1980   1991   1995     1  0.0000000  0.6508444  3
   1981   1983   1984   1986     1  0.0000000  0.6508444  3
   1981   1983   1990   1992     1  0.0000000  1.0460000  1
   1981   1983   1990   1992     1  0.0000000  0.6694400  3
   1982   1980   1981   1983     1  0.0000000  0.6508444  3
   1982   1980   1981   2001     1  0.0000000  1.0460000  1
   1982   1980   1981   2001     1  0.0000000  0.0000000  3
   1982   1980   1981   2000     1  0.0000000  0.6508444  3
   1982   1980   1991   1996     1  0.0000000  1.0460000  1
   1982   1980   1991   1996     1  0.0000000  0.0000000  3
   1982   1980   1991   1994     1  0.0000000  0.6508444  3
   1982   1980   1991   1995     1  0.0000000  0.6508444  3
   1982   1980   1998   1985     1  0.0000000  1.6038667  3
   1983   1981   2001   2002     1  0.0000000  1.0460000  1
   1983   1981   2001   2002     1  0.0000000  0.6694400  3
   1983   1984   1985   1988     1  0.0000000  0.6508444  3
   1983   1984   2003   1993     1  0.0000000  1.2552000  3
   1984   1983   1981   2000     1  0.0000000  0.6508444  3
   1984   1983   1990   1992     1  0.0000000  1.0460000  1
   1984   1983   1990   1992     1  0.0000000  0.6694400  3
   1984   1985   1989   1999     1  0.0000000  1.0460000  1
   1984   1985   1989   1999     1  0.0000000  0.6694400  3
   1985   1984   1983   1987     1  0.0000000  0.6508444  3
   1985   1984   2003   1993     1  0.0000000  1.2552000  3
   1986   1984   1983   1990     1  0.0000000  1.0460000  1
   1986   1984   1983   1990     1  0.0000000  0.0000000  3
   1986   1984   1983   1987     1  0.0000000  0.6508444  3
   1986   1984   1985   1989     1  0.0000000  1.0460000  1
   1986   1984   1985   1989     1  0.0000000  0.0000000  3
   1986   1984   1985   1998     1  0.0000000  1.0460000  1
   1986   1984   1985   1998     1  0.0000000  0.0000000  3
   1986   1984   1985   1988     1  0.0000000  0.6508444  3
   1986   1984   2003   1993     1  0.0000000  1.2552000  3
   1987   1983   1981   2001     1  0.0000000  1.0460000  1
   1987   1983   1981   2001     1  0.0000000  0.0000000  3
   1987   1983   1981   2000     1  0.0000000  0.6508444  3
   1987   1983   1984   2003     1  0.0000000  0.6508444  3
   1987   1983   1990   1992     1  0.0000000  0.6973333  3
   1988   1985   1984   2003     1  0.0000000  0.6508444  3
   1988   1985   1989   1999     1  0.0000000  0.6973333  3
   1990   1983   1981   2000     1  0.0000000  1.0460000  1
   1990   1983   1981   2000     1  0.0000000  0.0000000  3
   1991   1980   1981   2000     1  0.0000000  0.6508444  3
   1994   1991   1980   1998     1  0.0000000  1.0460000  1
   1994   1991   1980   1998     1  0.0000000  0.0000000  3
   1994   1991   1996   1997     1  0.0000000  0.6973333  3
   1995   1991   1980   1998     1  0.0000000  1.0460000  1
   1995   1991   1980   1998     1  0.0000000  0.0000000  3
   1995   1991   1996   1997     1  0.0000000  0.6973333  3
   1998   1980   1981   2000     1  0.0000000  1.0460000  1
   1998   1980   1981   2000     1  0.0000000  0.0000000  3
   1998   1985   1989   1999     1  0.0000000  0.6973333  3
   2000   1981   2001   2002     1  0.0000000  0.6973333  3
   2004   2005   2007   2011     1  0.0000000  0.6508444  3
   2004   2005   2025   2026     1  0.0000000  1.0460000  1
   2004   2005   2025   2026     1  0.0000000  0.6694400  3
   2004   2015   2020   2021     1  0.0000000  1.0460000  1
   2004   2015   2020   2021     1  0.0000000  0.6694400  3
   2004   2022   2009   2012     1  0.0000000  1.6038667  3
   2005   2004   2015   2018     1  0.0000000  0.6508444  3
   2005   2004   2015   2019     1  0.0000000  0.6508444  3
   2005   2007   2008   2010     1  0.0000000  0.6508444  3
   2005   2007   2014   2016     1  0.0000000  1.0460000  1
   2005   2007   2014   2016     1  0.0000000  0.6694400  3
   2006   2004   2005   2007     1  0.0000000  0.6508444  3
   2006   2004   2005   2025     1  0.0000000  1.0460000  1
   2006   2004   2005   2025     1  0.0000000  0.0000000  3
   2006   2004   2005   2024     1  0.0000000  0.6508444  3
   2006   2004   2015   2020     1  0.0000000  1.0460000  1
   2006   2004   2015   2020     1  0.0000000  0.0000000  3
   2006   2004   2015   2018     1  0.0000000  0.6508444  3
   2006   2004   2015   2019     1  0.0000000  0.6508444  3
   2006   2004   2022   2009     1  0.0000000  1.6038667  3
   2007   2005   2025   2026     1  0.0000000  1.0460000  1
   2007   2005   2025   2026     1  0.0000000  0.6694400  3
   2007   2008   2009   2012     1  0.0000000  0.6508444  3
   2007   2008   2027   2017     1  0.0000000  1.2552000  3
   2008   2007   2005   2024     1  0.0000000  0.6508444  3
   2008   2007   2014   2016     1  0.0000000  1.0460000  1
   2008   2007   2014   2016     1  0.0000000  0.6694400  3
   2008   2009   2013   2023     1  0.0000000  1.0460000  1
   2008   2009   2013   2023     1  0.0000000  0.6694400  3
   2009   2008   2007   2011     1  0.0000000  0.6508444  3
   2009   2008   2027   2017     1  0.0000000  1.2552000  3
   2010   2008   2007   2014     1  0.0000000  1.0460000  1
   2010   2008   2007   2014     1  0.0000000  0.0000000  3
   2010   2008   2007   2011     1  0.0000000  0.6508444  3
   2010   2008   2009   2013     1  0.0000000  1.0460000  1
   2010   2008   2009   2013     1  0.0000000  0.0000000  3
   2010   2008   2009   2022     1  0.0000000  1.0460000  1
   2010   2008   2009   2022     1  0.0000000  0.0000000  3
   2010   2008   2009   2012     1  0.0000000  0.6508444  3
   2010   2008   2027   2017     1  0.0000000  1.2552000  3
   2011   2007   2005   2025     1  0.0000000  1.0460000  1
   2011   2007   2005   2025     1  0.0000000  0.0000000  3
   2011   2007   2005   2024     1  0.0000000  0.6508444  3
   2011   2007   2008   2027     1  0.0000000  0.6508444  3
   2011   2007   2014   2016     1  0.0000000  0.6973333  3
   2012   2009   2008   2027     1  0.0000000  0.6508444  3
   2012   2009   2013   2023     1  0.0000000  0.6973333  3
   2014   2007   2005   2024     1  0.0000000  1.0460000  1
   2014   2007   2005   2024     1  0.0000000  0.0000000  3
   2015   2004   2005   2024     1  0.0000000  0.6508444  3
   2018   2015   2004   2022     1  0.0000000  1.0460000  1
   2018   2015   2004   2022     1  0.0000000  0.0000000  3
   2018   2015   2020   2021     1  0.0000000  0.6973333  3
   2019   2015   2004   2022     1  0.0000000  1.0460000  1
   2019   2015   2004   2022     1  0.0000000  0.0000000  3
   2019   2015   2020   2021     1  0.0000000  0.6973333  3
   2022   2004   2005   2024     1  0.0000000  1.0460000  1
   2022   2004   2005   2024     1  0.0000000  0.0000000  3
   2022   2009   2013   2023     1  0.0000000  0.6973333  3
   2024   2005   2025   2026     1  0.0000000  0.6973333  3
   2029   2031   2033   2035     1  0.0000000  0.6508444  3
   2029   2031   2033   2036     1  0.0000000  0.6508444  3
   2030   2029   2031   2033     1  0.0000000  0.0000000  2
   2030   2029   2031   2032     1  0.0000000  0.0000000  2
   2030   2029   2031   2034     1  0.0000000  0.0000000  2
   2031   2033   2037   2102     1  0.0000000  0.6508444  3
   2032   2031   2033   2037     1  0.0000000  0.6508444  3
   2032   2031   2033   2035     1  0.0000000  0.6508444  3
   2032   2031   2033   2036     1  0.0000000  0.6508444  3
   2033   2037   2038   2047     1  0.0000000  0.6508444  3
   2033   2037   2038   2048     1  0.0000000  0.6508444  3
   2033   2037   2039   2040     1  0.0000000  0.6508444  3
   2033   2037   2039   2042     1  0.0000000  0.6508444  3
   2034   2031   2033   2037     1  0.0000000  0.6508444  3
   2034   2031   2033   2035     1  0.0000000  0.6508444  3
   2034   2031   2033   2036     1  0.0000000  0.6508444  3
   2035   2033   2037   2038     1  0.0000000  0.6508444  3
   2035   2033   2037   2039     1  0.0000000  0.6508444  3
   2035   2033   2037   2102     1  0.0000000  0.6508444  3
   2036   2033   2037   2038     1  0.0000000  0.6508444  3
   2036   2033   2037   2039     1  0.0000000  0.6508444  3
   2036   2033   2037   2102     1  0.0000000  0.6508444  3
   2037   2038   2049   2050     1  0.0000000  0.6508444  3
   2037   2038   2049   2051     1  0.0000000  0.6508444  3
   2037   2039   2041   2043     1  0.0000000  0.6508444  3
   2037   2039   2041   2044     1  0.0000000  0.6508444  3
   2038   2037   2039   2040     1  0.0000000  0.6508444  3
   2038   2037   2039   2042     1  0.0000000  0.6508444  3
   2039   2037   2038   2047     1  0.0000000  0.6508444  3
   2039   2037   2038   2048     1  0.0000000  0.6508444  3
   2040   2039   2041   2045     1  0.0000000  0.6508444  3
   2040   2039   2041   2043     1  0.0000000  0.6508444  3
   2040   2039   2041   2044     1  0.0000000  0.6508444  3
   2040   2039   2037   2102     1  0.0000000  0.6508444  3
   2041   2045   2077   2067     1  180.0000771  6.0668000  2
   2041   2045   2077   2067     1  180.0000771  1.4644000  4
   2041   2039   2037   2102     1  0.0000000  0.6508444  3
   2042   2039   2041   2045     1  0.0000000  0.6508444  3
   2042   2039   2041   2043     1  0.0000000  0.6508444  3
   2042   2039   2041   2044     1  0.0000000  0.6508444  3
   2042   2039   2037   2102     1  0.0000000  0.6508444  3
   2043   2041   2045   2046     1  0.0000000  3.3472000  1
   2043   2041   2045   2046     1  0.0000000  0.0000000  2
   2043   2041   2045   2046     1  180.0000771  0.3347200  3
   2043   2041   2045   2077     1  180.0000771  0.0000000  2
   2044   2041   2045   2046     1  0.0000000  3.3472000  1
   2044   2041   2045   2046     1  0.0000000  0.0000000  2
   2044   2041   2045   2046     1  180.0000771  0.3347200  3
   2044   2041   2045   2077     1  180.0000771  0.0000000  2
   2045   2077   2058   2060     1  0.0000000  1.2552000  3
   2046   2045   2077   2067     1  180.0000771  6.0668000  2
   2046   2045   2077   2067     1  180.0000771  1.4644000  4
   2047   2038   2049   2052     1  0.0000000  0.6508444  3
   2047   2038   2049   2050     1  0.0000000  0.6508444  3
   2047   2038   2049   2051     1  0.0000000  0.6508444  3
   2047   2038   2037   2102     1  0.0000000  0.6508444  3
   2048   2038   2049   2052     1  0.0000000  0.6508444  3
   2048   2038   2049   2050     1  0.0000000  0.6508444  3
   2048   2038   2049   2051     1  0.0000000  0.6508444  3
   2048   2038   2037   2102     1  0.0000000  0.6508444  3
   2049   2052   2101   2091     1  180.0000771  6.0668000  2
   2049   2052   2101   2091     1  180.0000771  1.4644000  4
   2049   2038   2037   2102     1  0.0000000  0.6508444  3
   2050   2049   2052   2053     1  0.0000000  3.3472000  1
   2050   2049   2052   2053     1  0.0000000  0.0000000  2
   2050   2049   2052   2053     1  180.0000771  0.3347200  3
   2050   2049   2052   2101     1  180.0000771  0.0000000  2
   2051   2049   2052   2053     1  0.0000000  3.3472000  1
   2051   2049   2052   2053     1  0.0000000  0.0000000  2
   2051   2049   2052   2053     1  180.0000771  0.3347200  3
   2051   2049   2052   2101     1  180.0000771  0.0000000  2
   2052   2101   2082   2084     1  0.0000000  1.2552000  3
   2053   2052   2101   2091     1  180.0000771  6.0668000  2
   2053   2052   2101   2091     1  180.0000771  1.4644000  4
   2054   2055   2057   2061     1  0.0000000  0.6508444  3
   2054   2055   2075   2076     1  0.0000000  1.0460000  1
   2054   2055   2075   2076     1  0.0000000  0.6694400  3
   2054   2065   2070   2071     1  0.0000000  1.0460000  1
   2054   2065   2070   2071     1  0.0000000  0.6694400  3
   2054   2072   2059   2062     1  0.0000000  1.6038667  3
   2055   2057   2058   2060     1  0.0000000  0.6508444  3
   2055   2057   2064   2066     1  0.0000000  1.0460000  1
   2055   2057   2064   2066     1  0.0000000  0.6694400  3
   2055   2054   2065   2068     1  0.0000000  0.6508444  3
   2055   2054   2065   2069     1  0.0000000  0.6508444  3
   2056   2054   2055   2057     1  0.0000000  0.6508444  3
   2056   2054   2055   2075     1  0.0000000  1.0460000  1
   2056   2054   2055   2075     1  0.0000000  0.0000000  3
   2056   2054   2055   2074     1  0.0000000  0.6508444  3
   2056   2054   2065   2070     1  0.0000000  1.0460000  1
   2056   2054   2065   2070     1  0.0000000  0.0000000  3
   2056   2054   2065   2068     1  0.0000000  0.6508444  3
   2056   2054   2065   2069     1  0.0000000  0.6508444  3
   2056   2054   2072   2059     1  0.0000000  1.6038667  3
   2057   2058   2059   2062     1  0.0000000  0.6508444  3
   2057   2058   2077   2067     1  0.0000000  1.2552000  3
   2057   2055   2075   2076     1  0.0000000  1.0460000  1
   2057   2055   2075   2076     1  0.0000000  0.6694400  3
   2058   2059   2063   2073     1  0.0000000  1.0460000  1
   2058   2059   2063   2073     1  0.0000000  0.6694400  3
   2058   2057   2064   2066     1  0.0000000  1.0460000  1
   2058   2057   2064   2066     1  0.0000000  0.6694400  3
   2058   2057   2055   2074     1  0.0000000  0.6508444  3
   2059   2058   2077   2067     1  0.0000000  1.2552000  3
   2059   2058   2057   2061     1  0.0000000  0.6508444  3
   2060   2058   2059   2063     1  0.0000000  1.0460000  1
   2060   2058   2059   2063     1  0.0000000  0.0000000  3
   2060   2058   2059   2072     1  0.0000000  1.0460000  1
   2060   2058   2059   2072     1  0.0000000  0.0000000  3
   2060   2058   2059   2062     1  0.0000000  0.6508444  3
   2060   2058   2077   2067     1  0.0000000  1.2552000  3
   2060   2058   2057   2064     1  0.0000000  1.0460000  1
   2060   2058   2057   2064     1  0.0000000  0.0000000  3
   2060   2058   2057   2061     1  0.0000000  0.6508444  3
   2061   2057   2058   2077     1  0.0000000  0.6508444  3
   2061   2057   2064   2066     1  0.0000000  0.6973333  3
   2061   2057   2055   2075     1  0.0000000  1.0460000  1
   2061   2057   2055   2075     1  0.0000000  0.0000000  3
   2061   2057   2055   2074     1  0.0000000  0.6508444  3
   2062   2059   2063   2073     1  0.0000000  0.6973333  3
   2062   2059   2058   2077     1  0.0000000  0.6508444  3
   2064   2057   2055   2074     1  0.0000000  1.0460000  1
   2064   2057   2055   2074     1  0.0000000  0.0000000  3
   2065   2054   2055   2074     1  0.0000000  0.6508444  3
   2068   2065   2070   2071     1  0.0000000  0.6973333  3
   2068   2065   2054   2072     1  0.0000000  1.0460000  1
   2068   2065   2054   2072     1  0.0000000  0.0000000  3
   2069   2065   2070   2071     1  0.0000000  0.6973333  3
   2069   2065   2054   2072     1  0.0000000  1.0460000  1
   2069   2065   2054   2072     1  0.0000000  0.0000000  3
   2072   2059   2063   2073     1  0.0000000  0.6973333  3
   2072   2054   2055   2074     1  0.0000000  1.0460000  1
   2072   2054   2055   2074     1  0.0000000  0.0000000  3
   2074   2055   2075   2076     1  0.0000000  0.6973333  3
   2078   2079   2081   2085     1  0.0000000  0.6508444  3
   2078   2079   2099   2100     1  0.0000000  1.0460000  1
   2078   2079   2099   2100     1  0.0000000  0.6694400  3
   2078   2089   2094   2095     1  0.0000000  1.0460000  1
   2078   2089   2094   2095     1  0.0000000  0.6694400  3
   2078   2096   2083   2086     1  0.0000000  1.6038667  3
   2079   2081   2082   2084     1  0.0000000  0.6508444  3
   2079   2081   2088   2090     1  0.0000000  1.0460000  1
   2079   2081   2088   2090     1  0.0000000  0.6694400  3
   2079   2078   2089   2092     1  0.0000000  0.6508444  3
   2079   2078   2089   2093     1  0.0000000  0.6508444  3
   2080   2078   2079   2081     1  0.0000000  0.6508444  3
   2080   2078   2079   2099     1  0.0000000  1.0460000  1
   2080   2078   2079   2099     1  0.0000000  0.0000000  3
   2080   2078   2079   2098     1  0.0000000  0.6508444  3
   2080   2078   2089   2094     1  0.0000000  1.0460000  1
   2080   2078   2089   2094     1  0.0000000  0.0000000  3
   2080   2078   2089   2092     1  0.0000000  0.6508444  3
   2080   2078   2089   2093     1  0.0000000  0.6508444  3
   2080   2078   2096   2083     1  0.0000000  1.6038667  3
   2081   2082   2083   2086     1  0.0000000  0.6508444  3
   2081   2082   2101   2091     1  0.0000000  1.2552000  3
   2081   2079   2099   2100     1  0.0000000  1.0460000  1
   2081   2079   2099   2100     1  0.0000000  0.6694400  3
   2082   2083   2087   2097     1  0.0000000  1.0460000  1
   2082   2083   2087   2097     1  0.0000000  0.6694400  3
   2082   2081   2088   2090     1  0.0000000  1.0460000  1
   2082   2081   2088   2090     1  0.0000000  0.6694400  3
   2082   2081   2079   2098     1  0.0000000  0.6508444  3
   2083   2082   2101   2091     1  0.0000000  1.2552000  3
   2083   2082   2081   2085     1  0.0000000  0.6508444  3
   2084   2082   2083   2087     1  0.0000000  1.0460000  1
   2084   2082   2083   2087     1  0.0000000  0.0000000  3
   2084   2082   2083   2096     1  0.0000000  1.0460000  1
   2084   2082   2083   2096     1  0.0000000  0.0000000  3
   2084   2082   2083   2086     1  0.0000000  0.6508444  3
   2084   2082   2101   2091     1  0.0000000  1.2552000  3
   2084   2082   2081   2088     1  0.0000000  1.0460000  1
   2084   2082   2081   2088     1  0.0000000  0.0000000  3
   2084   2082   2081   2085     1  0.0000000  0.6508444  3
   2085   2081   2082   2101     1  0.0000000  0.6508444  3
   2085   2081   2088   2090     1  0.0000000  0.6973333  3
   2085   2081   2079   2099     1  0.0000000  1.0460000  1
   2085   2081   2079   2099     1  0.0000000  0.0000000  3
   2085   2081   2079   2098     1  0.0000000  0.6508444  3
   2086   2083   2087   2097     1  0.0000000  0.6973333  3
   2086   2083   2082   2101     1  0.0000000  0.6508444  3
   2088   2081   2079   2098     1  0.0000000  1.0460000  1
   2088   2081   2079   2098     1  0.0000000  0.0000000  3
   2089   2078   2079   2098     1  0.0000000  0.6508444  3
   2092   2089   2094   2095     1  0.0000000  0.6973333  3
   2092   2089   2078   2096     1  0.0000000  1.0460000  1
   2092   2089   2078   2096     1  0.0000000  0.0000000  3
   2093   2089   2094   2095     1  0.0000000  0.6973333  3
   2093   2089   2078   2096     1  0.0000000  1.0460000  1
   2093   2089   2078   2096     1  0.0000000  0.0000000  3
   2096   2083   2087   2097     1  0.0000000  0.6973333  3
   2096   2078   2079   2098     1  0.0000000  1.0460000  1
   2096   2078   2079   2098     1  0.0000000  0.0000000  3
   2098   2079   2099   2100     1  0.0000000  0.6973333  3
   2103   2105   2107   2109     1  0.0000000  0.6508444  3
   2103   2105   2107   2110     1  0.0000000  0.6508444  3
   2104   2103   2105   2107     1  0.0000000  0.0000000  2
   2104   2103   2105   2106     1  0.0000000  0.0000000  2
   2104   2103   2105   2108     1  0.0000000  0.0000000  2
   2105   2107   2111   2176     1  0.0000000  0.6508444  3
   2106   2105   2107   2111     1  0.0000000  0.6508444  3
   2106   2105   2107   2109     1  0.0000000  0.6508444  3
   2106   2105   2107   2110     1  0.0000000  0.6508444  3
   2107   2111   2112   2121     1  0.0000000  0.6508444  3
   2107   2111   2112   2122     1  0.0000000  0.6508444  3
   2107   2111   2113   2114     1  0.0000000  0.6508444  3
   2107   2111   2113   2116     1  0.0000000  0.6508444  3
   2108   2105   2107   2111     1  0.0000000  0.6508444  3
   2108   2105   2107   2109     1  0.0000000  0.6508444  3
   2108   2105   2107   2110     1  0.0000000  0.6508444  3
   2109   2107   2111   2112     1  0.0000000  0.6508444  3
   2109   2107   2111   2113     1  0.0000000  0.6508444  3
   2109   2107   2111   2176     1  0.0000000  0.6508444  3
   2110   2107   2111   2112     1  0.0000000  0.6508444  3
   2110   2107   2111   2113     1  0.0000000  0.6508444  3
   2110   2107   2111   2176     1  0.0000000  0.6508444  3
   2111   2112   2123   2124     1  0.0000000  0.6508444  3
   2111   2112   2123   2125     1  0.0000000  0.6508444  3
   2111   2113   2115   2117     1  0.0000000  0.6508444  3
   2111   2113   2115   2118     1  0.0000000  0.6508444  3
   2112   2111   2113   2114     1  0.0000000  0.6508444  3
   2112   2111   2113   2116     1  0.0000000  0.6508444  3
   2113   2111   2112   2121     1  0.0000000  0.6508444  3
   2113   2111   2112   2122     1  0.0000000  0.6508444  3
   2114   2113   2111   2176     1  0.0000000  0.6508444  3
   2114   2113   2115   2119     1  0.0000000  0.6508444  3
   2114   2113   2115   2117     1  0.0000000  0.6508444  3
   2114   2113   2115   2118     1  0.0000000  0.6508444  3
   2115   2113   2111   2176     1  0.0000000  0.6508444  3
   2115   2119   2151   2141     1  180.0000771  6.0668000  2
   2115   2119   2151   2141     1  180.0000771  1.4644000  4
   2116   2113   2111   2176     1  0.0000000  0.6508444  3
   2116   2113   2115   2119     1  0.0000000  0.6508444  3
   2116   2113   2115   2117     1  0.0000000  0.6508444  3
   2116   2113   2115   2118     1  0.0000000  0.6508444  3
   2117   2115   2119   2120     1  0.0000000  3.3472000  1
   2117   2115   2119   2120     1  0.0000000  0.0000000  2
   2117   2115   2119   2120     1  180.0000771  0.3347200  3
   2117   2115   2119   2151     1  180.0000771  0.0000000  2
   2118   2115   2119   2120     1  0.0000000  3.3472000  1
   2118   2115   2119   2120     1  0.0000000  0.0000000  2
   2118   2115   2119   2120     1  180.0000771  0.3347200  3
   2118   2115   2119   2151     1  180.0000771  0.0000000  2
   2119   2151   2132   2134     1  0.0000000  1.2552000  3
   2120   2119   2151   2141     1  180.0000771  6.0668000  2
   2120   2119   2151   2141     1  180.0000771  1.4644000  4
   2121   2112   2111   2176     1  0.0000000  0.6508444  3
   2121   2112   2123   2126     1  0.0000000  0.6508444  3
   2121   2112   2123   2124     1  0.0000000  0.6508444  3
   2121   2112   2123   2125     1  0.0000000  0.6508444  3
   2122   2112   2111   2176     1  0.0000000  0.6508444  3
   2122   2112   2123   2126     1  0.0000000  0.6508444  3
   2122   2112   2123   2124     1  0.0000000  0.6508444  3
   2122   2112   2123   2125     1  0.0000000  0.6508444  3
   2123   2112   2111   2176     1  0.0000000  0.6508444  3
   2123   2126   2175   2165     1  180.0000771  6.0668000  2
   2123   2126   2175   2165     1  180.0000771  1.4644000  4
   2124   2123   2126   2127     1  0.0000000  3.3472000  1
   2124   2123   2126   2127     1  0.0000000  0.0000000  2
   2124   2123   2126   2127     1  180.0000771  0.3347200  3
   2124   2123   2126   2175     1  180.0000771  0.0000000  2
   2125   2123   2126   2127     1  0.0000000  3.3472000  1
   2125   2123   2126   2127     1  0.0000000  0.0000000  2
   2125   2123   2126   2127     1  180.0000771  0.3347200  3
   2125   2123   2126   2175     1  180.0000771  0.0000000  2
   2126   2175   2156   2158     1  0.0000000  1.2552000  3
   2127   2126   2175   2165     1  180.0000771  6.0668000  2
   2127   2126   2175   2165     1  180.0000771  1.4644000  4
   2128   2129   2131   2135     1  0.0000000  0.6508444  3
   2128   2129   2149   2150     1  0.0000000  1.0460000  1
   2128   2129   2149   2150     1  0.0000000  0.6694400  3
   2128   2139   2144   2145     1  0.0000000  1.0460000  1
   2128   2139   2144   2145     1  0.0000000  0.6694400  3
   2128   2146   2133   2136     1  0.0000000  1.6038667  3
   2129   2128   2139   2142     1  0.0000000  0.6508444  3
   2129   2128   2139   2143     1  0.0000000  0.6508444  3
   2129   2131   2132   2134     1  0.0000000  0.6508444  3
   2129   2131   2138   2140     1  0.0000000  1.0460000  1
   2129   2131   2138   2140     1  0.0000000  0.6694400  3
   2130   2128   2129   2131     1  0.0000000  0.6508444  3
   2130   2128   2129   2149     1  0.0000000  1.0460000  1
   2130   2128   2129   2149     1  0.0000000  0.0000000  3
   2130   2128   2129   2148     1  0.0000000  0.6508444  3
   2130   2128   2139   2144     1  0.0000000  1.0460000  1
   2130   2128   2139   2144     1  0.0000000  0.0000000  3
   2130   2128   2139   2142     1  0.0000000  0.6508444  3
   2130   2128   2139   2143     1  0.0000000  0.6508444  3
   2130   2128   2146   2133     1  0.0000000  1.6038667  3
   2131   2129   2149   2150     1  0.0000000  1.0460000  1
   2131   2129   2149   2150     1  0.0000000  0.6694400  3
   2131   2132   2133   2136     1  0.0000000  0.6508444  3
   2131   2132   2151   2141     1  0.0000000  1.2552000  3
   2132   2131   2129   2148     1  0.0000000  0.6508444  3
   2132   2131   2138   2140     1  0.0000000  1.0460000  1
   2132   2131   2138   2140     1  0.0000000  0.6694400  3
   2132   2133   2137   2147     1  0.0000000  1.0460000  1
   2132   2133   2137   2147     1  0.0000000  0.6694400  3
   2133   2132   2131   2135     1  0.0000000  0.6508444  3
   2133   2132   2151   2141     1  0.0000000  1.2552000  3
   2134   2132   2131   2138     1  0.0000000  1.0460000  1
   2134   2132   2131   2138     1  0.0000000  0.0000000  3
   2134   2132   2131   2135     1  0.0000000  0.6508444  3
   2134   2132   2133   2137     1  0.0000000  1.0460000  1
   2134   2132   2133   2137     1  0.0000000  0.0000000  3
   2134   2132   2133   2146     1  0.0000000  1.0460000  1
   2134   2132   2133   2146     1  0.0000000  0.0000000  3
   2134   2132   2133   2136     1  0.0000000  0.6508444  3
   2134   2132   2151   2141     1  0.0000000  1.2552000  3
   2135   2131   2129   2149     1  0.0000000  1.0460000  1
   2135   2131   2129   2149     1  0.0000000  0.0000000  3
   2135   2131   2129   2148     1  0.0000000  0.6508444  3
   2135   2131   2132   2151     1  0.0000000  0.6508444  3
   2135   2131   2138   2140     1  0.0000000  0.6973333  3
   2136   2133   2132   2151     1  0.0000000  0.6508444  3
   2136   2133   2137   2147     1  0.0000000  0.6973333  3
   2138   2131   2129   2148     1  0.0000000  1.0460000  1
   2138   2131   2129   2148     1  0.0000000  0.0000000  3
   2139   2128   2129   2148     1  0.0000000  0.6508444  3
   2142   2139   2128   2146     1  0.0000000  1.0460000  1
   2142   2139   2128   2146     1  0.0000000  0.0000000  3
   2142   2139   2144   2145     1  0.0000000  0.6973333  3
   2143   2139   2128   2146     1  0.0000000  1.0460000  1
   2143   2139   2128   2146     1  0.0000000  0.0000000  3
   2143   2139   2144   2145     1  0.0000000  0.6973333  3
   2146   2128   2129   2148     1  0.0000000  1.0460000  1
   2146   2128   2129   2148     1  0.0000000  0.0000000  3
   2146   2133   2137   2147     1  0.0000000  0.6973333  3
   2148   2129   2149   2150     1  0.0000000  0.6973333  3
   2152   2153   2155   2159     1  0.0000000  0.6508444  3
   2152   2153   2173   2174     1  0.0000000  1.0460000  1
   2152   2153   2173   2174     1  0.0000000  0.6694400  3
   2152   2163   2168   2169     1  0.0000000  1.0460000  1
   2152   2163   2168   2169     1  0.0000000  0.6694400  3
   2152   2170   2157   2160     1  0.0000000  1.6038667  3
   2153   2152   2163   2166     1  0.0000000  0.6508444  3
   2153   2152   2163   2167     1  0.0000000  0.6508444  3
   2153   2155   2156   2158     1  0.0000000  0.6508444  3
   2153   2155   2162   2164     1  0.0000000  1.0460000  1
   2153   2155   2162   2164     1  0.0000000  0.6694400  3
   2154   2152   2153   2155     1  0.0000000  0.6508444  3
   2154   2152   2153   2173     1  0.0000000  1.0460000  1
   2154   2152   2153   2173     1  0.0000000  0.0000000  3
   2154   2152   2153   2172     1  0.0000000  0.6508444  3
   2154   2152   2163   2168     1  0.0000000  1.0460000  1
   2154   2152   2163   2168     1  0.0000000  0.0000000  3
   2154   2152   2163   2166     1  0.0000000  0.6508444  3
   2154   2152   2163   2167     1  0.0000000  0.6508444  3
   2154   2152   2170   2157     1  0.0000000  1.6038667  3
   2155   2153   2173   2174     1  0.0000000  1.0460000  1
   2155   2153   2173   2174     1  0.0000000  0.6694400  3
   2155   2156   2157   2160     1  0.0000000  0.6508444  3
   2155   2156   2175   2165     1  0.0000000  1.2552000  3
   2156   2155   2153   2172     1  0.0000000  0.6508444  3
   2156   2155   2162   2164     1  0.0000000  1.0460000  1
   2156   2155   2162   2164     1  0.0000000  0.6694400  3
   2156   2157   2161   2171     1  0.0000000  1.0460000  1
   2156   2157   2161   2171     1  0.0000000  0.6694400  3
   2157   2156   2155   2159     1  0.0000000  0.6508444  3
   2157   2156   2175   2165     1  0.0000000  1.2552000  3
   2158   2156   2155   2162     1  0.0000000  1.0460000  1
   2158   2156   2155   2162     1  0.0000000  0.0000000  3
   2158   2156   2155   2159     1  0.0000000  0.6508444  3
   2158   2156   2157   2161     1  0.0000000  1.0460000  1
   2158   2156   2157   2161     1  0.0000000  0.0000000  3
   2158   2156   2157   2170     1  0.0000000  1.0460000  1
   2158   2156   2157   2170     1  0.0000000  0.0000000  3
   2158   2156   2157   2160     1  0.0000000  0.6508444  3
   2158   2156   2175   2165     1  0.0000000  1.2552000  3
   2159   2155   2153   2173     1  0.0000000  1.0460000  1
   2159   2155   2153   2173     1  0.0000000  0.0000000  3
   2159   2155   2153   2172     1  0.0000000  0.6508444  3
   2159   2155   2156   2175     1  0.0000000  0.6508444  3
   2159   2155   2162   2164     1  0.0000000  0.6973333  3
   2160   2157   2156   2175     1  0.0000000  0.6508444  3
   2160   2157   2161   2171     1  0.0000000  0.6973333  3
   2162   2155   2153   2172     1  0.0000000  1.0460000  1
   2162   2155   2153   2172     1  0.0000000  0.0000000  3
   2163   2152   2153   2172     1  0.0000000  0.6508444  3
   2166   2163   2152   2170     1  0.0000000  1.0460000  1
   2166   2163   2152   2170     1  0.0000000  0.0000000  3
   2166   2163   2168   2169     1  0.0000000  0.6973333  3
   2167   2163   2152   2170     1  0.0000000  1.0460000  1
   2167   2163   2152   2170     1  0.0000000  0.0000000  3
   2167   2163   2168   2169     1  0.0000000  0.6973333  3
   2170   2152   2153   2172     1  0.0000000  1.0460000  1
   2170   2152   2153   2172     1  0.0000000  0.0000000  3
   2170   2157   2161   2171     1  0.0000000  0.6973333  3
   2172   2153   2173   2174     1  0.0000000  0.6973333  3
   2177   2179   2181   2183     1  0.0000000  0.6508444  3
   2177   2179   2181   2184     1  0.0000000  0.6508444  3
   2178   2177   2179   2181     1  0.0000000  0.0000000  2
   2178   2177   2179   2180     1  0.0000000  0.0000000  2
   2178   2177   2179   2182     1  0.0000000  0.0000000  2
   2179   2181   2185   2250     1  0.0000000  0.6508444  3
   2180   2179   2181   2185     1  0.0000000  0.6508444  3
   2180   2179   2181   2183     1  0.0000000  0.6508444  3
   2180   2179   2181   2184     1  0.0000000  0.6508444  3
   2181   2185   2186   2195     1  0.0000000  0.6508444  3
   2181   2185   2186   2196     1  0.0000000  0.6508444  3
   2181   2185   2187   2188     1  0.0000000  0.6508444  3
   2181   2185   2187   2190     1  0.0000000  0.6508444  3
   2182   2179   2181   2185     1  0.0000000  0.6508444  3
   2182   2179   2181   2183     1  0.0000000  0.6508444  3
   2182   2179   2181   2184     1  0.0000000  0.6508444  3
   2183   2181   2185   2186     1  0.0000000  0.6508444  3
   2183   2181   2185   2187     1  0.0000000  0.6508444  3
   2183   2181   2185   2250     1  0.0000000  0.6508444  3
   2184   2181   2185   2186     1  0.0000000  0.6508444  3
   2184   2181   2185   2187     1  0.0000000  0.6508444  3
   2184   2181   2185   2250     1  0.0000000  0.6508444  3
   2185   2186   2197   2198     1  0.0000000  0.6508444  3
   2185   2186   2197   2199     1  0.0000000  0.6508444  3
   2185   2187   2189   2191     1  0.0000000  0.6508444  3
   2185   2187   2189   2192     1  0.0000000  0.6508444  3
   2186   2185   2187   2188     1  0.0000000  0.6508444  3
   2186   2185   2187   2190     1  0.0000000  0.6508444  3
   2187   2185   2186   2195     1  0.0000000  0.6508444  3
   2187   2185   2186   2196     1  0.0000000  0.6508444  3
   2188   2187   2189   2193     1  0.0000000  0.6508444  3
   2188   2187   2189   2191     1  0.0000000  0.6508444  3
   2188   2187   2189   2192     1  0.0000000  0.6508444  3
   2188   2187   2185   2250     1  0.0000000  0.6508444  3
   2189   2193   2225   2215     1  180.0000771  6.0668000  2
   2189   2193   2225   2215     1  180.0000771  1.4644000  4
   2189   2187   2185   2250     1  0.0000000  0.6508444  3
   2190   2187   2189   2193     1  0.0000000  0.6508444  3
   2190   2187   2189   2191     1  0.0000000  0.6508444  3
   2190   2187   2189   2192     1  0.0000000  0.6508444  3
   2190   2187   2185   2250     1  0.0000000  0.6508444  3
   2191   2189   2193   2194     1  0.0000000  3.3472000  1
   2191   2189   2193   2194     1  0.0000000  0.0000000  2
   2191   2189   2193   2194     1  180.0000771  0.3347200  3
   2191   2189   2193   2225     1  180.0000771  0.0000000  2
   2192   2189   2193   2194     1  0.0000000  3.3472000  1
   2192   2189   2193   2194     1  0.0000000  0.0000000  2
   2192   2189   2193   2194     1  180.0000771  0.3347200  3
   2192   2189   2193   2225     1  180.0000771  0.0000000  2
   2193   2225   2206   2208     1  0.0000000  1.2552000  3
   2194   2193   2225   2215     1  180.0000771  6.0668000  2
   2194   2193   2225   2215     1  180.0000771  1.4644000  4
   2195   2186   2197   2200     1  0.0000000  0.6508444  3
   2195   2186   2197   2198     1  0.0000000  0.6508444  3
   2195   2186   2197   2199     1  0.0000000  0.6508444  3
   2195   2186   2185   2250     1  0.0000000  0.6508444  3
   2196   2186   2197   2200     1  0.0000000  0.6508444  3
   2196   2186   2197   2198     1  0.0000000  0.6508444  3
   2196   2186   2197   2199     1  0.0000000  0.6508444  3
   2196   2186   2185   2250     1  0.0000000  0.6508444  3
   2197   2200   2249   2239     1  180.0000771  6.0668000  2
   2197   2200   2249   2239     1  180.0000771  1.4644000  4
   2197   2186   2185   2250     1  0.0000000  0.6508444  3
   2198   2197   2200   2201     1  0.0000000  3.3472000  1
   2198   2197   2200   2201     1  0.0000000  0.0000000  2
   2198   2197   2200   2201     1  180.0000771  0.3347200  3
   2198   2197   2200   2249     1  180.0000771  0.0000000  2
   2199   2197   2200   2201     1  0.0000000  3.3472000  1
   2199   2197   2200   2201     1  0.0000000  0.0000000  2
   2199   2197   2200   2201     1  180.0000771  0.3347200  3
   2199   2197   2200   2249     1  180.0000771  0.0000000  2
   2200   2249   2230   2232     1  0.0000000  1.2552000  3
   2201   2200   2249   2239     1  180.0000771  6.0668000  2
   2201   2200   2249   2239     1  180.0000771  1.4644000  4
   2202   2203   2205   2209     1  0.0000000  0.6508444  3
   2202   2203   2223   2224     1  0.0000000  1.0460000  1
   2202   2203   2223   2224     1  0.0000000  0.6694400  3
   2202   2213   2218   2219     1  0.0000000  1.0460000  1
   2202   2213   2218   2219     1  0.0000000  0.6694400  3
   2202   2220   2207   2210     1  0.0000000  1.6038667  3
   2203   2205   2206   2208     1  0.0000000  0.6508444  3
   2203   2205   2212   2214     1  0.0000000  1.0460000  1
   2203   2205   2212   2214     1  0.0000000  0.6694400  3
   2203   2202   2213   2216     1  0.0000000  0.6508444  3
   2203   2202   2213   2217     1  0.0000000  0.6508444  3
   2204   2202   2203   2205     1  0.0000000  0.6508444  3
   2204   2202   2203   2223     1  0.0000000  1.0460000  1
   2204   2202   2203   2223     1  0.0000000  0.0000000  3
   2204   2202   2203   2222     1  0.0000000  0.6508444  3
   2204   2202   2213   2218     1  0.0000000  1.0460000  1
   2204   2202   2213   2218     1  0.0000000  0.0000000  3
   2204   2202   2213   2216     1  0.0000000  0.6508444  3
   2204   2202   2213   2217     1  0.0000000  0.6508444  3
   2204   2202   2220   2207     1  0.0000000  1.6038667  3
   2205   2206   2207   2210     1  0.0000000  0.6508444  3
   2205   2206   2225   2215     1  0.0000000  1.2552000  3
   2205   2203   2223   2224     1  0.0000000  1.0460000  1
   2205   2203   2223   2224     1  0.0000000  0.6694400  3
   2206   2207   2211   2221     1  0.0000000  1.0460000  1
   2206   2207   2211   2221     1  0.0000000  0.6694400  3
   2206   2205   2212   2214     1  0.0000000  1.0460000  1
   2206   2205   2212   2214     1  0.0000000  0.6694400  3
   2206   2205   2203   2222     1  0.0000000  0.6508444  3
   2207   2206   2225   2215     1  0.0000000  1.2552000  3
   2207   2206   2205   2209     1  0.0000000  0.6508444  3
   2208   2206   2207   2211     1  0.0000000  1.0460000  1
   2208   2206   2207   2211     1  0.0000000  0.0000000  3
   2208   2206   2207   2220     1  0.0000000  1.0460000  1
   2208   2206   2207   2220     1  0.0000000  0.0000000  3
   2208   2206   2207   2210     1  0.0000000  0.6508444  3
   2208   2206   2225   2215     1  0.0000000  1.2552000  3
   2208   2206   2205   2212     1  0.0000000  1.0460000  1
   2208   2206   2205   2212     1  0.0000000  0.0000000  3
   2208   2206   2205   2209     1  0.0000000  0.6508444  3
   2209   2205   2206   2225     1  0.0000000  0.6508444  3
   2209   2205   2212   2214     1  0.0000000  0.6973333  3
   2209   2205   2203   2223     1  0.0000000  1.0460000  1
   2209   2205   2203   2223     1  0.0000000  0.0000000  3
   2209   2205   2203   2222     1  0.0000000  0.6508444  3
   2210   2207   2211   2221     1  0.0000000  0.6973333  3
   2210   2207   2206   2225     1  0.0000000  0.6508444  3
   2212   2205   2203   2222     1  0.0000000  1.0460000  1
   2212   2205   2203   2222     1  0.0000000  0.0000000  3
   2213   2202   2203   2222     1  0.0000000  0.6508444  3
   2216   2213   2218   2219     1  0.0000000  0.6973333  3
   2216   2213   2202   2220     1  0.0000000  1.0460000  1
   2216   2213   2202   2220     1  0.0000000  0.0000000  3
   2217   2213   2218   2219     1  0.0000000  0.6973333  3
   2217   2213   2202   2220     1  0.0000000  1.0460000  1
   2217   2213   2202   2220     1  0.0000000  0.0000000  3
   2220   2207   2211   2221     1  0.0000000  0.6973333  3
   2220   2202   2203   2222     1  0.0000000  1.0460000  1
   2220   2202   2203   2222     1  0.0000000  0.0000000  3
   2222   2203   2223   2224     1  0.0000000  0.6973333  3
   2226   2227   2229   2233     1  0.0000000  0.6508444  3
   2226   2227   2247   2248     1  0.0000000  1.0460000  1
   2226   2227   2247   2248     1  0.0000000  0.6694400  3
   2226   2237   2242   2243     1  0.0000000  1.0460000  1
   2226   2237   2242   2243     1  0.0000000  0.6694400  3
   2226   2244   2231   2234     1  0.0000000  1.6038667  3
   2227   2229   2230   2232     1  0.0000000  0.6508444  3
   2227   2229   2236   2238     1  0.0000000  1.0460000  1
   2227   2229   2236   2238     1  0.0000000  0.6694400  3
   2227   2226   2237   2240     1  0.0000000  0.6508444  3
   2227   2226   2237   2241     1  0.0000000  0.6508444  3
   2228   2226   2227   2229     1  0.0000000  0.6508444  3
   2228   2226   2227   2247     1  0.0000000  1.0460000  1
   2228   2226   2227   2247     1  0.0000000  0.0000000  3
   2228   2226   2227   2246     1  0.0000000  0.6508444  3
   2228   2226   2237   2242     1  0.0000000  1.0460000  1
   2228   2226   2237   2242     1  0.0000000  0.0000000  3
   2228   2226   2237   2240     1  0.0000000  0.6508444  3
   2228   2226   2237   2241     1  0.0000000  0.6508444  3
   2228   2226   2244   2231     1  0.0000000  1.6038667  3
   2229   2230   2231   2234     1  0.0000000  0.6508444  3
   2229   2230   2249   2239     1  0.0000000  1.2552000  3
   2229   2227   2247   2248     1  0.0000000  1.0460000  1
   2229   2227   2247   2248     1  0.0000000  0.6694400  3
   2230   2231   2235   2245     1  0.0000000  1.0460000  1
   2230   2231   2235   2245     1  0.0000000  0.6694400  3
   2230   2229   2236   2238     1  0.0000000  1.0460000  1
   2230   2229   2236   2238     1  0.0000000  0.6694400  3
   2230   2229   2227   2246     1  0.0000000  0.6508444  3
   2231   2230   2249   2239     1  0.0000000  1.2552000  3
   2231   2230   2229   2233     1  0.0000000  0.6508444  3
   2232   2230   2231   2235     1  0.0000000  1.0460000  1
   2232   2230   2231   2235     1  0.0000000  0.0000000  3
   2232   2230   2231   2244     1  0.0000000  1.0460000  1
   2232   2230   2231   2244     1  0.0000000  0.0000000  3
   2232   2230   2231   2234     1  0.0000000  0.6508444  3
   2232   2230   2249   2239     1  0.0000000  1.2552000  3
   2232   2230   2229   2236     1  0.0000000  1.0460000  1
   2232   2230   2229   2236     1  0.0000000  0.0000000  3
   2232   2230   2229   2233     1  0.0000000  0.6508444  3
   2233   2229   2230   2249     1  0.0000000  0.6508444  3
   2233   2229   2236   2238     1  0.0000000  0.6973333  3
   2233   2229   2227   2247     1  0.0000000  1.0460000  1
   2233   2229   2227   2247     1  0.0000000  0.0000000  3
   2233   2229   2227   2246     1  0.0000000  0.6508444  3
   2234   2231   2235   2245     1  0.0000000  0.6973333  3
   2234   2231   2230   2249     1  0.0000000  0.6508444  3
   2236   2229   2227   2246     1  0.0000000  1.0460000  1
   2236   2229   2227   2246     1  0.0000000  0.0000000  3
   2237   2226   2227   2246     1  0.0000000  0.6508444  3
   2240   2237   2242   2243     1  0.0000000  0.6973333  3
   2240   2237   2226   2244     1  0.0000000  1.0460000  1
   2240   2237   2226   2244     1  0.0000000  0.0000000  3
   2241   2237   2242   2243     1  0.0000000  0.6973333  3
   2241   2237   2226   2244     1  0.0000000  1.0460000  1
   2241   2237   2226   2244     1  0.0000000  0.0000000  3
   2244   2231   2235   2245     1  0.0000000  0.6973333  3
   2244   2226   2227   2246     1  0.0000000  1.0460000  1
   2244   2226   2227   2246     1  0.0000000  0.0000000  3
   2246   2227   2247   2248     1  0.0000000  0.6973333  3
   2251   2253   2255   2257     1  0.0000000  0.6508444  3
   2251   2253   2255   2258     1  0.0000000  0.6508444  3
   2252   2251   2253   2255     1  0.0000000  0.0000000  2
   2252   2251   2253   2254     1  0.0000000  0.0000000  2
   2252   2251   2253   2256     1  0.0000000  0.0000000  2
   2253   2255   2259   2324     1  0.0000000  0.6508444  3
   2254   2253   2255   2259     1  0.0000000  0.6508444  3
   2254   2253   2255   2257     1  0.0000000  0.6508444  3
   2254   2253   2255   2258     1  0.0000000  0.6508444  3
   2255   2259   2260   2269     1  0.0000000  0.6508444  3
   2255   2259   2260   2270     1  0.0000000  0.6508444  3
   2255   2259   2261   2262     1  0.0000000  0.6508444  3
   2255   2259   2261   2264     1  0.0000000  0.6508444  3
   2256   2253   2255   2259     1  0.0000000  0.6508444  3
   2256   2253   2255   2257     1  0.0000000  0.6508444  3
   2256   2253   2255   2258     1  0.0000000  0.6508444  3
   2257   2255   2259   2260     1  0.0000000  0.6508444  3
   2257   2255   2259   2261     1  0.0000000  0.6508444  3
   2257   2255   2259   2324     1  0.0000000  0.6508444  3
   2258   2255   2259   2260     1  0.0000000  0.6508444  3
   2258   2255   2259   2261     1  0.0000000  0.6508444  3
   2258   2255   2259   2324     1  0.0000000  0.6508444  3
   2259   2260   2271   2272     1  0.0000000  0.6508444  3
   2259   2260   2271   2273     1  0.0000000  0.6508444  3
   2259   2261   2263   2265     1  0.0000000  0.6508444  3
   2259   2261   2263   2266     1  0.0000000  0.6508444  3
   2260   2259   2261   2262     1  0.0000000  0.6508444  3
   2260   2259   2261   2264     1  0.0000000  0.6508444  3
   2261   2259   2260   2269     1  0.0000000  0.6508444  3
   2261   2259   2260   2270     1  0.0000000  0.6508444  3
   2262   2261   2259   2324     1  0.0000000  0.6508444  3
   2262   2261   2263   2267     1  0.0000000  0.6508444  3
   2262   2261   2263   2265     1  0.0000000  0.6508444  3
   2262   2261   2263   2266     1  0.0000000  0.6508444  3
   2263   2261   2259   2324     1  0.0000000  0.6508444  3
   2263   2267   2299   2289     1  180.0000771  6.0668000  2
   2263   2267   2299   2289     1  180.0000771  1.4644000  4
   2264   2261   2259   2324     1  0.0000000  0.6508444  3
   2264   2261   2263   2267     1  0.0000000  0.6508444  3
   2264   2261   2263   2265     1  0.0000000  0.6508444  3
   2264   2261   2263   2266     1  0.0000000  0.6508444  3
   2265   2263   2267   2268     1  0.0000000  3.3472000  1
   2265   2263   2267   2268     1  0.0000000  0.0000000  2
   2265   2263   2267   2268     1  180.0000771  0.3347200  3
   2265   2263   2267   2299     1  180.0000771  0.0000000  2
   2266   2263   2267   2268     1  0.0000000  3.3472000  1
   2266   2263   2267   2268     1  0.0000000  0.0000000  2
   2266   2263   2267   2268     1  180.0000771  0.3347200  3
   2266   2263   2267   2299     1  180.0000771  0.0000000  2
   2267   2299   2280   2282     1  0.0000000  1.2552000  3
   2268   2267   2299   2289     1  180.0000771  6.0668000  2
   2268   2267   2299   2289     1  180.0000771  1.4644000  4
   2269   2260   2259   2324     1  0.0000000  0.6508444  3
   2269   2260   2271   2274     1  0.0000000  0.6508444  3
   2269   2260   2271   2272     1  0.0000000  0.6508444  3
   2269   2260   2271   2273     1  0.0000000  0.6508444  3
   2270   2260   2259   2324     1  0.0000000  0.6508444  3
   2270   2260   2271   2274     1  0.0000000  0.6508444  3
   2270   2260   2271   2272     1  0.0000000  0.6508444  3
   2270   2260   2271   2273     1  0.0000000  0.6508444  3
   2271   2260   2259   2324     1  0.0000000  0.6508444  3
   2271   2274   2323   2313     1  180.0000771  6.0668000  2
   2271   2274   2323   2313     1  180.0000771  1.4644000  4
   2272   2271   2274   2275     1  0.0000000  3.3472000  1
   2272   2271   2274   2275     1  0.0000000  0.0000000  2
   2272   2271   2274   2275     1  180.0000771  0.3347200  3
   2272   2271   2274   2323     1  180.0000771  0.0000000  2
   2273   2271   2274   2275     1  0.0000000  3.3472000  1
   2273   2271   2274   2275     1  0.0000000  0.0000000  2
   2273   2271   2274   2275     1  180.0000771  0.3347200  3
   2273   2271   2274   2323     1  180.0000771  0.0000000  2
   2274   2323   2304   2306     1  0.0000000  1.2552000  3
   2275   2274   2323   2313     1  180.0000771  6.0668000  2
   2275   2274   2323   2313     1  180.0000771  1.4644000  4
   2276   2277   2279   2283     1  0.0000000  0.6508444  3
   2276   2277   2297   2298     1  0.0000000  1.0460000  1
   2276   2277   2297   2298     1  0.0000000  0.6694400  3
   2276   2287   2292   2293     1  0.0000000  1.0460000  1
   2276   2287   2292   2293     1  0.0000000  0.6694400  3
   2276   2294   2281   2284     1  0.0000000  1.6038667  3
   2277   2276   2287   2290     1  0.0000000  0.6508444  3
   2277   2276   2287   2291     1  0.0000000  0.6508444  3
   2277   2279   2280   2282     1  0.0000000  0.6508444  3
   2277   2279   2286   2288     1  0.0000000  1.0460000  1
   2277   2279   2286   2288     1  0.0000000  0.6694400  3
   2278   2276   2277   2279     1  0.0000000  0.6508444  3
   2278   2276   2277   2297     1  0.0000000  1.0460000  1
   2278   2276   2277   2297     1  0.0000000  0.0000000  3
   2278   2276   2277   2296     1  0.0000000  0.6508444  3
   2278   2276   2287   2292     1  0.0000000  1.0460000  1
   2278   2276   2287   2292     1  0.0000000  0.0000000  3
   2278   2276   2287   2290     1  0.0000000  0.6508444  3
   2278   2276   2287   2291     1  0.0000000  0.6508444  3
   2278   2276   2294   2281     1  0.0000000  1.6038667  3
   2279   2277   2297   2298     1  0.0000000  1.0460000  1
   2279   2277   2297   2298     1  0.0000000  0.6694400  3
   2279   2280   2281   2284     1  0.0000000  0.6508444  3
   2279   2280   2299   2289     1  0.0000000  1.2552000  3
   2280   2279   2277   2296     1  0.0000000  0.6508444  3
   2280   2279   2286   2288     1  0.0000000  1.0460000  1
   2280   2279   2286   2288     1  0.0000000  0.6694400  3
   2280   2281   2285   2295     1  0.0000000  1.0460000  1
   2280   2281   2285   2295     1  0.0000000  0.6694400  3
   2281   2280   2279   2283     1  0.0000000  0.6508444  3
   2281   2280   2299   2289     1  0.0000000  1.2552000  3
   2282   2280   2279   2286     1  0.0000000  1.0460000  1
   2282   2280   2279   2286     1  0.0000000  0.0000000  3
   2282   2280   2279   2283     1  0.0000000  0.6508444  3
   2282   2280   2281   2285     1  0.0000000  1.0460000  1
   2282   2280   2281   2285     1  0.0000000  0.0000000  3
   2282   2280   2281   2294     1  0.0000000  1.0460000  1
   2282   2280   2281   2294     1  0.0000000  0.0000000  3
   2282   2280   2281   2284     1  0.0000000  0.6508444  3
   2282   2280   2299   2289     1  0.0000000  1.2552000  3
   2283   2279   2277   2297     1  0.0000000  1.0460000  1
   2283   2279   2277   2297     1  0.0000000  0.0000000  3
   2283   2279   2277   2296     1  0.0000000  0.6508444  3
   2283   2279   2280   2299     1  0.0000000  0.6508444  3
   2283   2279   2286   2288     1  0.0000000  0.6973333  3
   2284   2281   2280   2299     1  0.0000000  0.6508444  3
   2284   2281   2285   2295     1  0.0000000  0.6973333  3
   2286   2279   2277   2296     1  0.0000000  1.0460000  1
   2286   2279   2277   2296     1  0.0000000  0.0000000  3
   2287   2276   2277   2296     1  0.0000000  0.6508444  3
   2290   2287   2276   2294     1  0.0000000  1.0460000  1
   2290   2287   2276   2294     1  0.0000000  0.0000000  3
   2290   2287   2292   2293     1  0.0000000  0.6973333  3
   2291   2287   2276   2294     1  0.0000000  1.0460000  1
   2291   2287   2276   2294     1  0.0000000  0.0000000  3
   2291   2287   2292   2293     1  0.0000000  0.6973333  3
   2294   2276   2277   2296     1  0.0000000  1.0460000  1
   2294   2276   2277   2296     1  0.0000000  0.0000000  3
   2294   2281   2285   2295     1  0.0000000  0.6973333  3
   2296   2277   2297   2298     1  0.0000000  0.6973333  3
   2300   2301   2303   2307     1  0.0000000  0.6508444  3
   2300   2301   2321   2322     1  0.0000000  1.0460000  1
   2300   2301   2321   2322     1  0.0000000  0.6694400  3
   2300   2311   2316   2317     1  0.0000000  1.0460000  1
   2300   2311   2316   2317     1  0.0000000  0.6694400  3
   2300   2318   2305   2308     1  0.0000000  1.6038667  3
   2301   2300   2311   2314     1  0.0000000  0.6508444  3
   2301   2300   2311   2315     1  0.0000000  0.6508444  3
   2301   2303   2304   2306     1  0.0000000  0.6508444  3
   2301   2303   2310   2312     1  0.0000000  1.0460000  1
   2301   2303   2310   2312     1  0.0000000  0.6694400  3
   2302   2300   2301   2303     1  0.0000000  0.6508444  3
   2302   2300   2301   2321     1  0.0000000  1.0460000  1
   2302   2300   2301   2321     1  0.0000000  0.0000000  3
   2302   2300   2301   2320     1  0.0000000  0.6508444  3
   2302   2300   2311   2316     1  0.0000000  1.0460000  1
   2302   2300   2311   2316     1  0.0000000  0.0000000  3
   2302   2300   2311   2314     1  0.0000000  0.6508444  3
   2302   2300   2311   2315     1  0.0000000  0.6508444  3
   2302   2300   2318   2305     1  0.0000000  1.6038667  3
   2303   2301   2321   2322     1  0.0000000  1.0460000  1
   2303   2301   2321   2322     1  0.0000000  0.6694400  3
   2303   2304   2305   2308     1  0.0000000  0.6508444  3
   2303   2304   2323   2313     1  0.0000000  1.2552000  3
   2304   2303   2301   2320     1  0.0000000  0.6508444  3
   2304   2303   2310   2312     1  0.0000000  1.0460000  1
   2304   2303   2310   2312     1  0.0000000  0.6694400  3
   2304   2305   2309   2319     1  0.0000000  1.0460000  1
   2304   2305   2309   2319     1  0.0000000  0.6694400  3
   2305   2304   2303   2307     1  0.0000000  0.6508444  3
   2305   2304   2323   2313     1  0.0000000  1.2552000  3
   2306   2304   2303   2310     1  0.0000000  1.0460000  1
   2306   2304   2303   2310     1  0.0000000  0.0000000  3
   2306   2304   2303   2307     1  0.0000000  0.6508444  3
   2306   2304   2305   2309     1  0.0000000  1.0460000  1
   2306   2304   2305   2309     1  0.0000000  0.0000000  3
   2306   2304   2305   2318     1  0.0000000  1.0460000  1
   2306   2304   2305   2318     1  0.0000000  0.0000000  3
   2306   2304   2305   2308     1  0.0000000  0.6508444  3
   2306   2304   2323   2313     1  0.0000000  1.2552000  3
   2307   2303   2301   2321     1  0.0000000  1.0460000  1
   2307   2303   2301   2321     1  0.0000000  0.0000000  3
   2307   2303   2301   2320     1  0.0000000  0.6508444  3
   2307   2303   2304   2323     1  0.0000000  0.6508444  3
   2307   2303   2310   2312     1  0.0000000  0.6973333  3
   2308   2305   2304   2323     1  0.0000000  0.6508444  3
   2308   2305   2309   2319     1  0.0000000  0.6973333  3
   2310   2303   2301   2320     1  0.0000000  1.0460000  1
   2310   2303   2301   2320     1  0.0000000  0.0000000  3
   2311   2300   2301   2320     1  0.0000000  0.6508444  3
   2314   2311   2300   2318     1  0.0000000  1.0460000  1
   2314   2311   2300   2318     1  0.0000000  0.0000000  3
   2314   2311   2316   2317     1  0.0000000  0.6973333  3
   2315   2311   2300   2318     1  0.0000000  1.0460000  1
   2315   2311   2300   2318     1  0.0000000  0.0000000  3
   2315   2311   2316   2317     1  0.0000000  0.6973333  3
   2318   2300   2301   2320     1  0.0000000  1.0460000  1
   2318   2300   2301   2320     1  0.0000000  0.0000000  3
   2318   2305   2309   2319     1  0.0000000  0.6973333  3
   2320   2301   2321   2322     1  0.0000000  0.6973333  3
   2325   2327   2329   2331     1  0.0000000  0.6508444  3
   2325   2327   2329   2332     1  0.0000000  0.6508444  3
   2326   2325   2327   2329     1  0.0000000  0.0000000  2
   2326   2325   2327   2328     1  0.0000000  0.0000000  2
   2326   2325   2327   2330     1  0.0000000  0.0000000  2
   2327   2329   2333   2398     1  0.0000000  0.6508444  3
   2328   2327   2329   2333     1  0.0000000  0.6508444  3
   2328   2327   2329   2331     1  0.0000000  0.6508444  3
   2328   2327   2329   2332     1  0.0000000  0.6508444  3
   2329   2333   2334   2343     1  0.0000000  0.6508444  3
   2329   2333   2334   2344     1  0.0000000  0.6508444  3
   2329   2333   2335   2336     1  0.0000000  0.6508444  3
   2329   2333   2335   2338     1  0.0000000  0.6508444  3
   2330   2327   2329   2333     1  0.0000000  0.6508444  3
   2330   2327   2329   2331     1  0.0000000  0.6508444  3
   2330   2327   2329   2332     1  0.0000000  0.6508444  3
   2331   2329   2333   2334     1  0.0000000  0.6508444  3
   2331   2329   2333   2335     1  0.0000000  0.6508444  3
   2331   2329   2333   2398     1  0.0000000  0.6508444  3
   2332   2329   2333   2334     1  0.0000000  0.6508444  3
   2332   2329   2333   2335     1  0.0000000  0.6508444  3
   2332   2329   2333   2398     1  0.0000000  0.6508444  3
   2333   2334   2345   2346     1  0.0000000  0.6508444  3
   2333   2334   2345   2347     1  0.0000000  0.6508444  3
   2333   2335   2337   2339     1  0.0000000  0.6508444  3
   2333   2335   2337   2340     1  0.0000000  0.6508444  3
   2334   2333   2335   2336     1  0.0000000  0.6508444  3
   2334   2333   2335   2338     1  0.0000000  0.6508444  3
   2335   2333   2334   2343     1  0.0000000  0.6508444  3
   2335   2333   2334   2344     1  0.0000000  0.6508444  3
   2336   2335   2337   2341     1  0.0000000  0.6508444  3
   2336   2335   2337   2339     1  0.0000000  0.6508444  3
   2336   2335   2337   2340     1  0.0000000  0.6508444  3
   2336   2335   2333   2398     1  0.0000000  0.6508444  3
   2337   2341   2373   2363     1  180.0000771  6.0668000  2
   2337   2341   2373   2363     1  180.0000771  1.4644000  4
   2337   2335   2333   2398     1  0.0000000  0.6508444  3
   2338   2335   2337   2341     1  0.0000000  0.6508444  3
   2338   2335   2337   2339     1  0.0000000  0.6508444  3
   2338   2335   2337   2340     1  0.0000000  0.6508444  3
   2338   2335   2333   2398     1  0.0000000  0.6508444  3
   2339   2337   2341   2342     1  0.0000000  3.3472000  1
   2339   2337   2341   2342     1  0.0000000  0.0000000  2
   2339   2337   2341   2342     1  180.0000771  0.3347200  3
   2339   2337   2341   2373     1  180.0000771  0.0000000  2
   2340   2337   2341   2342     1  0.0000000  3.3472000  1
   2340   2337   2341   2342     1  0.0000000  0.0000000  2
   2340   2337   2341   2342     1  180.0000771  0.3347200  3
   2340   2337   2341   2373     1  180.0000771  0.0000000  2
   2341   2373   2354   2356     1  0.0000000  1.2552000  3
   2342   2341   2373   2363     1  180.0000771  6.0668000  2
   2342   2341   2373   2363     1  180.0000771  1.4644000  4
   2343   2334   2345   2348     1  0.0000000  0.6508444  3
   2343   2334   2345   2346     1  0.0000000  0.6508444  3
   2343   2334   2345   2347     1  0.0000000  0.6508444  3
   2343   2334   2333   2398     1  0.0000000  0.6508444  3
   2344   2334   2345   2348     1  0.0000000  0.6508444  3
   2344   2334   2345   2346     1  0.0000000  0.6508444  3
   2344   2334   2345   2347     1  0.0000000  0.6508444  3
   2344   2334   2333   2398     1  0.0000000  0.6508444  3
   2345   2348   2397   2387     1  180.0000771  6.0668000  2
   2345   2348   2397   2387     1  180.0000771  1.4644000  4
   2345   2334   2333   2398     1  0.0000000  0.6508444  3
   2346   2345   2348   2349     1  0.0000000  3.3472000  1
   2346   2345   2348   2349     1  0.0000000  0.0000000  2
   2346   2345   2348   2349     1  180.0000771  0.3347200  3
   2346   2345   2348   2397     1  180.0000771  0.0000000  2
   2347   2345   2348   2349     1  0.0000000  3.3472000  1
   2347   2345   2348   2349     1  0.0000000  0.0000000  2
   2347   2345   2348   2349     1  180.0000771  0.3347200  3
   2347   2345   2348   2397     1  180.0000771  0.0000000  2
   2348   2397   2378   2380     1  0.0000000  1.2552000  3
   2349   2348   2397   2387     1  180.0000771  6.0668000  2
   2349   2348   2397   2387     1  180.0000771  1.4644000  4
   2350   2351   2353   2357     1  0.0000000  0.6508444  3
   2350   2351   2371   2372     1  0.0000000  1.0460000  1
   2350   2351   2371   2372     1  0.0000000  0.6694400  3
   2350   2361   2366   2367     1  0.0000000  1.0460000  1
   2350   2361   2366   2367     1  0.0000000  0.6694400  3
   2350   2368   2355   2358     1  0.0000000  1.6038667  3
   2351   2353   2354   2356     1  0.0000000  0.6508444  3
   2351   2353   2360   2362     1  0.0000000  1.0460000  1
   2351   2353   2360   2362     1  0.0000000  0.6694400  3
   2351   2350   2361   2364     1  0.0000000  0.6508444  3
   2351   2350   2361   2365     1  0.0000000  0.6508444  3
   2352   2350   2351   2353     1  0.0000000  0.6508444  3
   2352   2350   2351   2371     1  0.0000000  1.0460000  1
   2352   2350   2351   2371     1  0.0000000  0.0000000  3
   2352   2350   2351   2370     1  0.0000000  0.6508444  3
   2352   2350   2361   2366     1  0.0000000  1.0460000  1
   2352   2350   2361   2366     1  0.0000000  0.0000000  3
   2352   2350   2361   2364     1  0.0000000  0.6508444  3
   2352   2350   2361   2365     1  0.0000000  0.6508444  3
   2352   2350   2368   2355     1  0.0000000  1.6038667  3
   2353   2354   2355   2358     1  0.0000000  0.6508444  3
   2353   2354   2373   2363     1  0.0000000  1.2552000  3
   2353   2351   2371   2372     1  0.0000000  1.0460000  1
   2353   2351   2371   2372     1  0.0000000  0.6694400  3
   2354   2355   2359   2369     1  0.0000000  1.0460000  1
   2354   2355   2359   2369     1  0.0000000  0.6694400  3
   2354   2353   2360   2362     1  0.0000000  1.0460000  1
   2354   2353   2360   2362     1  0.0000000  0.6694400  3
   2354   2353   2351   2370     1  0.0000000  0.6508444  3
   2355   2354   2373   2363     1  0.0000000  1.2552000  3
   2355   2354   2353   2357     1  0.0000000  0.6508444  3
   2356   2354   2355   2359     1  0.0000000  1.0460000  1
   2356   2354   2355   2359     1  0.0000000  0.0000000  3
   2356   2354   2355   2368     1  0.0000000  1.0460000  1
   2356   2354   2355   2368     1  0.0000000  0.0000000  3
   2356   2354   2355   2358     1  0.0000000  0.6508444  3
   2356   2354   2373   2363     1  0.0000000  1.2552000  3
   2356   2354   2353   2360     1  0.0000000  1.0460000  1
   2356   2354   2353   2360     1  0.0000000  0.0000000  3
   2356   2354   2353   2357     1  0.0000000  0.6508444  3
   2357   2353   2354   2373     1  0.0000000  0.6508444  3
   2357   2353   2360   2362     1  0.0000000  0.6973333  3
   2357   2353   2351   2371     1  0.0000000  1.0460000  1
   2357   2353   2351   2371     1  0.0000000  0.0000000  3
   2357   2353   2351   2370     1  0.0000000  0.6508444  3
   2358   2355   2359   2369     1  0.0000000  0.6973333  3
   2358   2355   2354   2373     1  0.0000000  0.6508444  3
   2360   2353   2351   2370     1  0.0000000  1.0460000  1
   2360   2353   2351   2370     1  0.0000000  0.0000000  3
   2361   2350   2351   2370     1  0.0000000  0.6508444  3
   2364   2361   2366   2367     1  0.0000000  0.6973333  3
   2364   2361   2350   2368     1  0.0000000  1.0460000  1
   2364   2361   2350   2368     1  0.0000000  0.0000000  3
   2365   2361   2366   2367     1  0.0000000  0.6973333  3
   2365   2361   2350   2368     1  0.0000000  1.0460000  1
   2365   2361   2350   2368     1  0.0000000  0.0000000  3
   2368   2355   2359   2369     1  0.0000000  0.6973333  3
   2368   2350   2351   2370     1  0.0000000  1.0460000  1
   2368   2350   2351   2370     1  0.0000000  0.0000000  3
   2370   2351   2371   2372     1  0.0000000  0.6973333  3
   2374   2375   2377   2381     1  0.0000000  0.6508444  3
   2374   2375   2395   2396     1  0.0000000  1.0460000  1
   2374   2375   2395   2396     1  0.0000000  0.6694400  3
   2374   2385   2390   2391     1  0.0000000  1.0460000  1
   2374   2385   2390   2391     1  0.0000000  0.6694400  3
   2374   2392   2379   2382     1  0.0000000  1.6038667  3
   2375   2377   2378   2380     1  0.0000000  0.6508444  3
   2375   2377   2384   2386     1  0.0000000  1.0460000  1
   2375   2377   2384   2386     1  0.0000000  0.6694400  3
   2375   2374   2385   2388     1  0.0000000  0.6508444  3
   2375   2374   2385   2389     1  0.0000000  0.6508444  3
   2376   2374   2375   2377     1  0.0000000  0.6508444  3
   2376   2374   2375   2395     1  0.0000000  1.0460000  1
   2376   2374   2375   2395     1  0.0000000  0.0000000  3
   2376   2374   2375   2394     1  0.0000000  0.6508444  3
   2376   2374   2385   2390     1  0.0000000  1.0460000  1
   2376   2374   2385   2390     1  0.0000000  0.0000000  3
   2376   2374   2385   2388     1  0.0000000  0.6508444  3
   2376   2374   2385   2389     1  0.0000000  0.6508444  3
   2376   2374   2392   2379     1  0.0000000  1.6038667  3
   2377   2378   2379   2382     1  0.0000000  0.6508444  3
   2377   2378   2397   2387     1  0.0000000  1.2552000  3
   2377   2375   2395   2396     1  0.0000000  1.0460000  1
   2377   2375   2395   2396     1  0.0000000  0.6694400  3
   2378   2379   2383   2393     1  0.0000000  1.0460000  1
   2378   2379   2383   2393     1  0.0000000  0.6694400  3
   2378   2377   2384   2386     1  0.0000000  1.0460000  1
   2378   2377   2384   2386     1  0.0000000  0.6694400  3
   2378   2377   2375   2394     1  0.0000000  0.6508444  3
   2379   2378   2397   2387     1  0.0000000  1.2552000  3
   2379   2378   2377   2381     1  0.0000000  0.6508444  3
   2380   2378   2379   2383     1  0.0000000  1.0460000  1
   2380   2378   2379   2383     1  0.0000000  0.0000000  3
   2380   2378   2379   2392     1  0.0000000  1.0460000  1
   2380   2378   2379   2392     1  0.0000000  0.0000000  3
   2380   2378   2379   2382     1  0.0000000  0.6508444  3
   2380   2378   2397   2387     1  0.0000000  1.2552000  3
   2380   2378   2377   2384     1  0.0000000  1.0460000  1
   2380   2378   2377   2384     1  0.0000000  0.0000000  3
   2380   2378   2377   2381     1  0.0000000  0.6508444  3
   2381   2377   2378   2397     1  0.0000000  0.6508444  3
   2381   2377   2384   2386     1  0.0000000  0.6973333  3
   2381   2377   2375   2395     1  0.0000000  1.0460000  1
   2381   2377   2375   2395     1  0.0000000  0.0000000  3
   2381   2377   2375   2394     1  0.0000000  0.6508444  3
   2382   2379   2383   2393     1  0.0000000  0.6973333  3
   2382   2379   2378   2397     1  0.0000000  0.6508444  3
   2384   2377   2375   2394     1  0.0000000  1.0460000  1
   2384   2377   2375   2394     1  0.0000000  0.0000000  3
   2385   2374   2375   2394     1  0.0000000  0.6508444  3
   2388   2385   2390   2391     1  0.0000000  0.6973333  3
   2388   2385   2374   2392     1  0.0000000  1.0460000  1
   2388   2385   2374   2392     1  0.0000000  0.0000000  3
   2389   2385   2390   2391     1  0.0000000  0.6973333  3
   2389   2385   2374   2392     1  0.0000000  1.0460000  1
   2389   2385   2374   2392     1  0.0000000  0.0000000  3
   2392   2379   2383   2393     1  0.0000000  0.6973333  3
   2392   2374   2375   2394     1  0.0000000  1.0460000  1
   2392   2374   2375   2394     1  0.0000000  0.0000000  3
   2394   2375   2395   2396     1  0.0000000  0.6973333  3
   2399   2401   2403   2405     1  0.0000000  0.6508444  3
   2399   2401   2403   2406     1  0.0000000  0.6508444  3
   2400   2399   2401   2403     1  0.0000000  0.0000000  2
   2400   2399   2401   2402     1  0.0000000  0.0000000  2
   2400   2399   2401   2404     1  0.0000000  0.0000000  2
   2401   2403   2407   2472     1  0.0000000  0.6508444  3
   2402   2401   2403   2407     1  0.0000000  0.6508444  3
   2402   2401   2403   2405     1  0.0000000  0.6508444  3
   2402   2401   2403   2406     1  0.0000000  0.6508444  3
   2403   2407   2408   2417     1  0.0000000  0.6508444  3
   2403   2407   2408   2418     1  0.0000000  0.6508444  3
   2403   2407   2409   2410     1  0.0000000  0.6508444  3
   2403   2407   2409   2412     1  0.0000000  0.6508444  3
   2404   2401   2403   2407     1  0.0000000  0.6508444  3
   2404   2401   2403   2405     1  0.0000000  0.6508444  3
   2404   2401   2403   2406     1  0.0000000  0.6508444  3
   2405   2403   2407   2408     1  0.0000000  0.6508444  3
   2405   2403   2407   2409     1  0.0000000  0.6508444  3
   2405   2403   2407   2472     1  0.0000000  0.6508444  3
   2406   2403   2407   2408     1  0.0000000  0.6508444  3
   2406   2403   2407   2409     1  0.0000000  0.6508444  3
   2406   2403   2407   2472     1  0.0000000  0.6508444  3
   2407   2408   2419   2420     1  0.0000000  0.6508444  3
   2407   2408   2419   2421     1  0.0000000  0.6508444  3
   2407   2409   2411   2413     1  0.0000000  0.6508444  3
   2407   2409   2411   2414     1  0.0000000  0.6508444  3
   2408   2407   2409   2410     1  0.0000000  0.6508444  3
   2408   2407   2409   2412     1  0.0000000  0.6508444  3
   2409   2407   2408   2417     1  0.0000000  0.6508444  3
   2409   2407   2408   2418     1  0.0000000  0.6508444  3
   2410   2409   2407   2472     1  0.0000000  0.6508444  3
   2410   2409   2411   2415     1  0.0000000  0.6508444  3
   2410   2409   2411   2413     1  0.0000000  0.6508444  3
   2410   2409   2411   2414     1  0.0000000  0.6508444  3
   2411   2409   2407   2472     1  0.0000000  0.6508444  3
   2411   2415   2447   2437     1  180.0000771  6.0668000  2
   2411   2415   2447   2437     1  180.0000771  1.4644000  4
   2412   2409   2407   2472     1  0.0000000  0.6508444  3
   2412   2409   2411   2415     1  0.0000000  0.6508444  3
   2412   2409   2411   2413     1  0.0000000  0.6508444  3
   2412   2409   2411   2414     1  0.0000000  0.6508444  3
   2413   2411   2415   2416     1  0.0000000  3.3472000  1
   2413   2411   2415   2416     1  0.0000000  0.0000000  2
   2413   2411   2415   2416     1  180.0000771  0.3347200  3
   2413   2411   2415   2447     1  180.0000771  0.0000000  2
   2414   2411   2415   2416     1  0.0000000  3.3472000  1
   2414   2411   2415   2416     1  0.0000000  0.0000000  2
   2414   2411   2415   2416     1  180.0000771  0.3347200  3
   2414   2411   2415   2447     1  180.0000771  0.0000000  2
   2415   2447   2428   2430     1  0.0000000  1.2552000  3
   2416   2415   2447   2437     1  180.0000771  6.0668000  2
   2416   2415   2447   2437     1  180.0000771  1.4644000  4
   2417   2408   2407   2472     1  0.0000000  0.6508444  3
   2417   2408   2419   2422     1  0.0000000  0.6508444  3
   2417   2408   2419   2420     1  0.0000000  0.6508444  3
   2417   2408   2419   2421     1  0.0000000  0.6508444  3
   2418   2408   2407   2472     1  0.0000000  0.6508444  3
   2418   2408   2419   2422     1  0.0000000  0.6508444  3
   2418   2408   2419   2420     1  0.0000000  0.6508444  3
   2418   2408   2419   2421     1  0.0000000  0.6508444  3
   2419   2408   2407   2472     1  0.0000000  0.6508444  3
   2419   2422   2471   2461     1  180.0000771  6.0668000  2
   2419   2422   2471   2461     1  180.0000771  1.4644000  4
   2420   2419   2422   2423     1  0.0000000  3.3472000  1
   2420   2419   2422   2423     1  0.0000000  0.0000000  2
   2420   2419   2422   2423     1  180.0000771  0.3347200  3
   2420   2419   2422   2471     1  180.0000771  0.0000000  2
   2421   2419   2422   2423     1  0.0000000  3.3472000  1
   2421   2419   2422   2423     1  0.0000000  0.0000000  2
   2421   2419   2422   2423     1  180.0000771  0.3347200  3
   2421   2419   2422   2471     1  180.0000771  0.0000000  2
   2422   2471   2452   2454     1  0.0000000  1.2552000  3
   2423   2422   2471   2461     1  180.0000771  6.0668000  2
   2423   2422   2471   2461     1  180.0000771  1.4644000  4
   2424   2425   2427   2431     1  0.0000000  0.6508444  3
   2424   2425   2445   2446     1  0.0000000  1.0460000  1
   2424   2425   2445   2446     1  0.0000000  0.6694400  3
   2424   2435   2440   2441     1  0.0000000  1.0460000  1
   2424   2435   2440   2441     1  0.0000000  0.6694400  3
   2424   2442   2429   2432     1  0.0000000  1.6038667  3
   2425   2424   2435   2438     1  0.0000000  0.6508444  3
   2425   2424   2435   2439     1  0.0000000  0.6508444  3
   2425   2427   2428   2430     1  0.0000000  0.6508444  3
   2425   2427   2434   2436     1  0.0000000  1.0460000  1
   2425   2427   2434   2436     1  0.0000000  0.6694400  3
   2426   2424   2425   2427     1  0.0000000  0.6508444  3
   2426   2424   2425   2445     1  0.0000000  1.0460000  1
   2426   2424   2425   2445     1  0.0000000  0.0000000  3
   2426   2424   2425   2444     1  0.0000000  0.6508444  3
   2426   2424   2435   2440     1  0.0000000  1.0460000  1
   2426   2424   2435   2440     1  0.0000000  0.0000000  3
   2426   2424   2435   2438     1  0.0000000  0.6508444  3
   2426   2424   2435   2439     1  0.0000000  0.6508444  3
   2426   2424   2442   2429     1  0.0000000  1.6038667  3
   2427   2425   2445   2446     1  0.0000000  1.0460000  1
   2427   2425   2445   2446     1  0.0000000  0.6694400  3
   2427   2428   2429   2432     1  0.0000000  0.6508444  3
   2427   2428   2447   2437     1  0.0000000  1.2552000  3
   2428   2427   2425   2444     1  0.0000000  0.6508444  3
   2428   2427   2434   2436     1  0.0000000  1.0460000  1
   2428   2427   2434   2436     1  0.0000000  0.6694400  3
   2428   2429   2433   2443     1  0.0000000  1.0460000  1
   2428   2429   2433   2443     1  0.0000000  0.6694400  3
   2429   2428   2427   2431     1  0.0000000  0.6508444  3
   2429   2428   2447   2437     1  0.0000000  1.2552000  3
   2430   2428   2427   2434     1  0.0000000  1.0460000  1
   2430   2428   2427   2434     1  0.0000000  0.0000000  3
   2430   2428   2427   2431     1  0.0000000  0.6508444  3
   2430   2428   2429   2433     1  0.0000000  1.0460000  1
   2430   2428   2429   2433     1  0.0000000  0.0000000  3
   2430   2428   2429   2442     1  0.0000000  1.0460000  1
   2430   2428   2429   2442     1  0.0000000  0.0000000  3
   2430   2428   2429   2432     1  0.0000000  0.6508444  3
   2430   2428   2447   2437     1  0.0000000  1.2552000  3
   2431   2427   2425   2445     1  0.0000000  1.0460000  1
   2431   2427   2425   2445     1  0.0000000  0.0000000  3
   2431   2427   2425   2444     1  0.0000000  0.6508444  3
   2431   2427   2428   2447     1  0.0000000  0.6508444  3
   2431   2427   2434   2436     1  0.0000000  0.6973333  3
   2432   2429   2428   2447     1  0.0000000  0.6508444  3
   2432   2429   2433   2443     1  0.0000000  0.6973333  3
   2434   2427   2425   2444     1  0.0000000  1.0460000  1
   2434   2427   2425   2444     1  0.0000000  0.0000000  3
   2435   2424   2425   2444     1  0.0000000  0.6508444  3
   2438   2435   2424   2442     1  0.0000000  1.0460000  1
   2438   2435   2424   2442     1  0.0000000  0.0000000  3
   2438   2435   2440   2441     1  0.0000000  0.6973333  3
   2439   2435   2424   2442     1  0.0000000  1.0460000  1
   2439   2435   2424   2442     1  0.0000000  0.0000000  3
   2439   2435   2440   2441     1  0.0000000  0.6973333  3
   2442   2424   2425   2444     1  0.0000000  1.0460000  1
   2442   2424   2425   2444     1  0.0000000  0.0000000  3
   2442   2429   2433   2443     1  0.0000000  0.6973333  3
   2444   2425   2445   2446     1  0.0000000  0.6973333  3
   2448   2449   2451   2455     1  0.0000000  0.6508444  3
   2448   2449   2469   2470     1  0.0000000  1.0460000  1
   2448   2449   2469   2470     1  0.0000000  0.6694400  3
   2448   2459   2464   2465     1  0.0000000  1.0460000  1
   2448   2459   2464   2465     1  0.0000000  0.6694400  3
   2448   2466   2453   2456     1  0.0000000  1.6038667  3
   2449   2448   2459   2462     1  0.0000000  0.6508444  3
   2449   2448   2459   2463     1  0.0000000  0.6508444  3
   2449   2451   2452   2454     1  0.0000000  0.6508444  3
   2449   2451   2458   2460     1  0.0000000  1.0460000  1
   2449   2451   2458   2460     1  0.0000000  0.6694400  3
   2450   2448   2449   2451     1  0.0000000  0.6508444  3
   2450   2448   2449   2469     1  0.0000000  1.0460000  1
   2450   2448   2449   2469     1  0.0000000  0.0000000  3
   2450   2448   2449   2468     1  0.0000000  0.6508444  3
   2450   2448   2459   2464     1  0.0000000  1.0460000  1
   2450   2448   2459   2464     1  0.0000000  0.0000000  3
   2450   2448   2459   2462     1  0.0000000  0.6508444  3
   2450   2448   2459   2463     1  0.0000000  0.6508444  3
   2450   2448   2466   2453     1  0.0000000  1.6038667  3
   2451   2449   2469   2470     1  0.0000000  1.0460000  1
   2451   2449   2469   2470     1  0.0000000  0.6694400  3
   2451   2452   2453   2456     1  0.0000000  0.6508444  3
   2451   2452   2471   2461     1  0.0000000  1.2552000  3
   2452   2451   2449   2468     1  0.0000000  0.6508444  3
   2452   2451   2458   2460     1  0.0000000  1.0460000  1
   2452   2451   2458   2460     1  0.0000000  0.6694400  3
   2452   2453   2457   2467     1  0.0000000  1.0460000  1
   2452   2453   2457   2467     1  0.0000000  0.6694400  3
   2453   2452   2451   2455     1  0.0000000  0.6508444  3
   2453   2452   2471   2461     1  0.0000000  1.2552000  3
   2454   2452   2451   2458     1  0.0000000  1.0460000  1
   2454   2452   2451   2458     1  0.0000000  0.0000000  3
   2454   2452   2451   2455     1  0.0000000  0.6508444  3
   2454   2452   2453   2457     1  0.0000000  1.0460000  1
   2454   2452   2453   2457     1  0.0000000  0.0000000  3
   2454   2452   2453   2466     1  0.0000000  1.0460000  1
   2454   2452   2453   2466     1  0.0000000  0.0000000  3
   2454   2452   2453   2456     1  0.0000000  0.6508444  3
   2454   2452   2471   2461     1  0.0000000  1.2552000  3
   2455   2451   2449   2469     1  0.0000000  1.0460000  1
   2455   2451   2449   2469     1  0.0000000  0.0000000  3
   2455   2451   2449   2468     1  0.0000000  0.6508444  3
   2455   2451   2452   2471     1  0.0000000  0.6508444  3
   2455   2451   2458   2460     1  0.0000000  0.6973333  3
   2456   2453   2452   2471     1  0.0000000  0.6508444  3
   2456   2453   2457   2467     1  0.0000000  0.6973333  3
   2458   2451   2449   2468     1  0.0000000  1.0460000  1
   2458   2451   2449   2468     1  0.0000000  0.0000000  3
   2459   2448   2449   2468     1  0.0000000  0.6508444  3
   2462   2459   2448   2466     1  0.0000000  1.0460000  1
   2462   2459   2448   2466     1  0.0000000  0.0000000  3
   2462   2459   2464   2465     1  0.0000000  0.6973333  3
   2463   2459   2448   2466     1  0.0000000  1.0460000  1
   2463   2459   2448   2466     1  0.0000000  0.0000000  3
   2463   2459   2464   2465     1  0.0000000  0.6973333  3
   2466   2448   2449   2468     1  0.0000000  1.0460000  1
   2466   2448   2449   2468     1  0.0000000  0.0000000  3
   2466   2453   2457   2467     1  0.0000000  0.6973333  3
   2468   2449   2469   2470     1  0.0000000  0.6973333  3
   2473   2475   2477   2479     1  0.0000000  0.6508444  3
   2473   2475   2477   2480     1  0.0000000  0.6508444  3
   2474   2473   2475   2477     1  0.0000000  0.0000000  2
   2474   2473   2475   2476     1  0.0000000  0.0000000  2
   2474   2473   2475   2478     1  0.0000000  0.0000000  2
   2475   2477   2481   2546     1  0.0000000  0.6508444  3
   2476   2475   2477   2481     1  0.0000000  0.6508444  3
   2476   2475   2477   2479     1  0.0000000  0.6508444  3
   2476   2475   2477   2480     1  0.0000000  0.6508444  3
   2477   2481   2482   2491     1  0.0000000  0.6508444  3
   2477   2481   2482   2492     1  0.0000000  0.6508444  3
   2477   2481   2483   2484     1  0.0000000  0.6508444  3
   2477   2481   2483   2486     1  0.0000000  0.6508444  3
   2478   2475   2477   2481     1  0.0000000  0.6508444  3
   2478   2475   2477   2479     1  0.0000000  0.6508444  3
   2478   2475   2477   2480     1  0.0000000  0.6508444  3
   2479   2477   2481   2482     1  0.0000000  0.6508444  3
   2479   2477   2481   2483     1  0.0000000  0.6508444  3
   2479   2477   2481   2546     1  0.0000000  0.6508444  3
   2480   2477   2481   2482     1  0.0000000  0.6508444  3
   2480   2477   2481   2483     1  0.0000000  0.6508444  3
   2480   2477   2481   2546     1  0.0000000  0.6508444  3
   2481   2482   2493   2494     1  0.0000000  0.6508444  3
   2481   2482   2493   2495     1  0.0000000  0.6508444  3
   2481   2483   2485   2487     1  0.0000000  0.6508444  3
   2481   2483   2485   2488     1  0.0000000  0.6508444  3
   2482   2481   2483   2484     1  0.0000000  0.6508444  3
   2482   2481   2483   2486     1  0.0000000  0.6508444  3
   2483   2481   2482   2491     1  0.0000000  0.6508444  3
   2483   2481   2482   2492     1  0.0000000  0.6508444  3
   2484   2483   2485   2489     1  0.0000000  0.6508444  3
   2484   2483   2485   2487     1  0.0000000  0.6508444  3
   2484   2483   2485   2488     1  0.0000000  0.6508444  3
   2484   2483   2481   2546     1  0.0000000  0.6508444  3
   2485   2489   2521   2511     1  180.0000771  6.0668000  2
   2485   2489   2521   2511     1  180.0000771  1.4644000  4
   2485   2483   2481   2546     1  0.0000000  0.6508444  3
   2486   2483   2485   2489     1  0.0000000  0.6508444  3
   2486   2483   2485   2487     1  0.0000000  0.6508444  3
   2486   2483   2485   2488     1  0.0000000  0.6508444  3
   2486   2483   2481   2546     1  0.0000000  0.6508444  3
   2487   2485   2489   2490     1  0.0000000  3.3472000  1
   2487   2485   2489   2490     1  0.0000000  0.0000000  2
   2487   2485   2489   2490     1  180.0000771  0.3347200  3
   2487   2485   2489   2521     1  180.0000771  0.0000000  2
   2488   2485   2489   2490     1  0.0000000  3.3472000  1
   2488   2485   2489   2490     1  0.0000000  0.0000000  2
   2488   2485   2489   2490     1  180.0000771  0.3347200  3
   2488   2485   2489   2521     1  180.0000771  0.0000000  2
   2489   2521   2502   2504     1  0.0000000  1.2552000  3
   2490   2489   2521   2511     1  180.0000771  6.0668000  2
   2490   2489   2521   2511     1  180.0000771  1.4644000  4
   2491   2482   2493   2496     1  0.0000000  0.6508444  3
   2491   2482   2493   2494     1  0.0000000  0.6508444  3
   2491   2482   2493   2495     1  0.0000000  0.6508444  3
   2491   2482   2481   2546     1  0.0000000  0.6508444  3
   2492   2482   2493   2496     1  0.0000000  0.6508444  3
   2492   2482   2493   2494     1  0.0000000  0.6508444  3
   2492   2482   2493   2495     1  0.0000000  0.6508444  3
   2492   2482   2481   2546     1  0.0000000  0.6508444  3
   2493   2496   2545   2535     1  180.0000771  6.0668000  2
   2493   2496   2545   2535     1  180.0000771  1.4644000  4
   2493   2482   2481   2546     1  0.0000000  0.6508444  3
   2494   2493   2496   2497     1  0.0000000  3.3472000  1
   2494   2493   2496   2497     1  0.0000000  0.0000000  2
   2494   2493   2496   2497     1  180.0000771  0.3347200  3
   2494   2493   2496   2545     1  180.0000771  0.0000000  2
   2495   2493   2496   2497     1  0.0000000  3.3472000  1
   2495   2493   2496   2497     1  0.0000000  0.0000000  2
   2495   2493   2496   2497     1  180.0000771  0.3347200  3
   2495   2493   2496   2545     1  180.0000771  0.0000000  2
   2496   2545   2526   2528     1  0.0000000  1.2552000  3
   2497   2496   2545   2535     1  180.0000771  6.0668000  2
   2497   2496   2545   2535     1  180.0000771  1.4644000  4
   2498   2499   2501   2505     1  0.0000000  0.6508444  3
   2498   2499   2519   2520     1  0.0000000  1.0460000  1
   2498   2499   2519   2520     1  0.0000000  0.6694400  3
   2498   2509   2514   2515     1  0.0000000  1.0460000  1
   2498   2509   2514   2515     1  0.0000000  0.6694400  3
   2498   2516   2503   2506     1  0.0000000  1.6038667  3
   2499   2501   2502   2504     1  0.0000000  0.6508444  3
   2499   2501   2508   2510     1  0.0000000  1.0460000  1
   2499   2501   2508   2510     1  0.0000000  0.6694400  3
   2499   2498   2509   2512     1  0.0000000  0.6508444  3
   2499   2498   2509   2513     1  0.0000000  0.6508444  3
   2500   2498   2499   2501     1  0.0000000  0.6508444  3
   2500   2498   2499   2519     1  0.0000000  1.0460000  1
   2500   2498   2499   2519     1  0.0000000  0.0000000  3
   2500   2498   2499   2518     1  0.0000000  0.6508444  3
   2500   2498   2509   2514     1  0.0000000  1.0460000  1
   2500   2498   2509   2514     1  0.0000000  0.0000000  3
   2500   2498   2509   2512     1  0.0000000  0.6508444  3
   2500   2498   2509   2513     1  0.0000000  0.6508444  3
   2500   2498   2516   2503     1  0.0000000  1.6038667  3
   2501   2502   2503   2506     1  0.0000000  0.6508444  3
   2501   2502   2521   2511     1  0.0000000  1.2552000  3
   2501   2499   2519   2520     1  0.0000000  1.0460000  1
   2501   2499   2519   2520     1  0.0000000  0.6694400  3
   2502   2503   2507   2517     1  0.0000000  1.0460000  1
   2502   2503   2507   2517     1  0.0000000  0.6694400  3
   2502   2501   2508   2510     1  0.0000000  1.0460000  1
   2502   2501   2508   2510     1  0.0000000  0.6694400  3
   2502   2501   2499   2518     1  0.0000000  0.6508444  3
   2503   2502   2521   2511     1  0.0000000  1.2552000  3
   2503   2502   2501   2505     1  0.0000000  0.6508444  3
   2504   2502   2503   2507     1  0.0000000  1.0460000  1
   2504   2502   2503   2507     1  0.0000000  0.0000000  3
   2504   2502   2503   2516     1  0.0000000  1.0460000  1
   2504   2502   2503   2516     1  0.0000000  0.0000000  3
   2504   2502   2503   2506     1  0.0000000  0.6508444  3
   2504   2502   2521   2511     1  0.0000000  1.2552000  3
   2504   2502   2501   2508     1  0.0000000  1.0460000  1
   2504   2502   2501   2508     1  0.0000000  0.0000000  3
   2504   2502   2501   2505     1  0.0000000  0.6508444  3
   2505   2501   2502   2521     1  0.0000000  0.6508444  3
   2505   2501   2508   2510     1  0.0000000  0.6973333  3
   2505   2501   2499   2519     1  0.0000000  1.0460000  1
   2505   2501   2499   2519     1  0.0000000  0.0000000  3
   2505   2501   2499   2518     1  0.0000000  0.6508444  3
   2506   2503   2507   2517     1  0.0000000  0.6973333  3
   2506   2503   2502   2521     1  0.0000000  0.6508444  3
   2508   2501   2499   2518     1  0.0000000  1.0460000  1
   2508   2501   2499   2518     1  0.0000000  0.0000000  3
   2509   2498   2499   2518     1  0.0000000  0.6508444  3
   2512   2509   2514   2515     1  0.0000000  0.6973333  3
   2512   2509   2498   2516     1  0.0000000  1.0460000  1
   2512   2509   2498   2516     1  0.0000000  0.0000000  3
   2513   2509   2514   2515     1  0.0000000  0.6973333  3
   2513   2509   2498   2516     1  0.0000000  1.0460000  1
   2513   2509   2498   2516     1  0.0000000  0.0000000  3
   2516   2503   2507   2517     1  0.0000000  0.6973333  3
   2516   2498   2499   2518     1  0.0000000  1.0460000  1
   2516   2498   2499   2518     1  0.0000000  0.0000000  3
   2518   2499   2519   2520     1  0.0000000  0.6973333  3
   2522   2523   2525   2529     1  0.0000000  0.6508444  3
   2522   2523   2543   2544     1  0.0000000  1.0460000  1
   2522   2523   2543   2544     1  0.0000000  0.6694400  3
   2522   2533   2538   2539     1  0.0000000  1.0460000  1
   2522   2533   2538   2539     1  0.0000000  0.6694400  3
   2522   2540   2527   2530     1  0.0000000  1.6038667  3
   2523   2525   2526   2528     1  0.0000000  0.6508444  3
   2523   2525   2532   2534     1  0.0000000  1.0460000  1
   2523   2525   2532   2534     1  0.0000000  0.6694400  3
   2523   2522   2533   2536     1  0.0000000  0.6508444  3
   2523   2522   2533   2537     1  0.0000000  0.6508444  3
   2524   2522   2523   2525     1  0.0000000  0.6508444  3
   2524   2522   2523   2543     1  0.0000000  1.0460000  1
   2524   2522   2523   2543     1  0.0000000  0.0000000  3
   2524   2522   2523   2542     1  0.0000000  0.6508444  3
   2524   2522   2533   2538     1  0.0000000  1.0460000  1
   2524   2522   2533   2538     1  0.0000000  0.0000000  3
   2524   2522   2533   2536     1  0.0000000  0.6508444  3
   2524   2522   2533   2537     1  0.0000000  0.6508444  3
   2524   2522   2540   2527     1  0.0000000  1.6038667  3
   2525   2526   2527   2530     1  0.0000000  0.6508444  3
   2525   2526   2545   2535     1  0.0000000  1.2552000  3
   2525   2523   2543   2544     1  0.0000000  1.0460000  1
   2525   2523   2543   2544     1  0.0000000  0.6694400  3
   2526   2527   2531   2541     1  0.0000000  1.0460000  1
   2526   2527   2531   2541     1  0.0000000  0.6694400  3
   2526   2525   2532   2534     1  0.0000000  1.0460000  1
   2526   2525   2532   2534     1  0.0000000  0.6694400  3
   2526   2525   2523   2542     1  0.0000000  0.6508444  3
   2527   2526   2545   2535     1  0.0000000  1.2552000  3
   2527   2526   2525   2529     1  0.0000000  0.6508444  3
   2528   2526   2527   2531     1  0.0000000  1.0460000  1
   2528   2526   2527   2531     1  0.0000000  0.0000000  3
   2528   2526   2527   2540     1  0.0000000  1.0460000  1
   2528   2526   2527   2540     1  0.0000000  0.0000000  3
   2528   2526   2527   2530     1  0.0000000  0.6508444  3
   2528   2526   2545   2535     1  0.0000000  1.2552000  3
   2528   2526   2525   2532     1  0.0000000  1.0460000  1
   2528   2526   2525   2532     1  0.0000000  0.0000000  3
   2528   2526   2525   2529     1  0.0000000  0.6508444  3
   2529   2525   2526   2545     1  0.0000000  0.6508444  3
   2529   2525   2532   2534     1  0.0000000  0.6973333  3
   2529   2525   2523   2543     1  0.0000000  1.0460000  1
   2529   2525   2523   2543     1  0.0000000  0.0000000  3
   2529   2525   2523   2542     1  0.0000000  0.6508444  3
   2530   2527   2531   2541     1  0.0000000  0.6973333  3
   2530   2527   2526   2545     1  0.0000000  0.6508444  3
   2532   2525   2523   2542     1  0.0000000  1.0460000  1
   2532   2525   2523   2542     1  0.0000000  0.0000000  3
   2533   2522   2523   2542     1  0.0000000  0.6508444  3
   2536   2533   2538   2539     1  0.0000000  0.6973333  3
   2536   2533   2522   2540     1  0.0000000  1.0460000  1
   2536   2533   2522   2540     1  0.0000000  0.0000000  3
   2537   2533   2538   2539     1  0.0000000  0.6973333  3
   2537   2533   2522   2540     1  0.0000000  1.0460000  1
   2537   2533   2522   2540     1  0.0000000  0.0000000  3
   2540   2527   2531   2541     1  0.0000000  0.6973333  3
   2540   2522   2523   2542     1  0.0000000  1.0460000  1
   2540   2522   2523   2542     1  0.0000000  0.0000000  3
   2542   2523   2543   2544     1  0.0000000  0.6973333  3
   2547   2549   2551   2553     1  0.0000000  0.6508444  3
   2547   2549   2551   2554     1  0.0000000  0.6508444  3
   2548   2547   2549   2551     1  0.0000000  0.0000000  2
   2548   2547   2549   2550     1  0.0000000  0.0000000  2
   2548   2547   2549   2552     1  0.0000000  0.0000000  2
   2549   2551   2555   2620     1  0.0000000  0.6508444  3
   2550   2549   2551   2555     1  0.0000000  0.6508444  3
   2550   2549   2551   2553     1  0.0000000  0.6508444  3
   2550   2549   2551   2554     1  0.0000000  0.6508444  3
   2551   2555   2556   2565     1  0.0000000  0.6508444  3
   2551   2555   2556   2566     1  0.0000000  0.6508444  3
   2551   2555   2557   2558     1  0.0000000  0.6508444  3
   2551   2555   2557   2560     1  0.0000000  0.6508444  3
   2552   2549   2551   2555     1  0.0000000  0.6508444  3
   2552   2549   2551   2553     1  0.0000000  0.6508444  3
   2552   2549   2551   2554     1  0.0000000  0.6508444  3
   2553   2551   2555   2556     1  0.0000000  0.6508444  3
   2553   2551   2555   2557     1  0.0000000  0.6508444  3
   2553   2551   2555   2620     1  0.0000000  0.6508444  3
   2554   2551   2555   2556     1  0.0000000  0.6508444  3
   2554   2551   2555   2557     1  0.0000000  0.6508444  3
   2554   2551   2555   2620     1  0.0000000  0.6508444  3
   2555   2556   2567   2568     1  0.0000000  0.6508444  3
   2555   2556   2567   2569     1  0.0000000  0.6508444  3
   2555   2557   2559   2561     1  0.0000000  0.6508444  3
   2555   2557   2559   2562     1  0.0000000  0.6508444  3
   2556   2555   2557   2558     1  0.0000000  0.6508444  3
   2556   2555   2557   2560     1  0.0000000  0.6508444  3
   2557   2555   2556   2565     1  0.0000000  0.6508444  3
   2557   2555   2556   2566     1  0.0000000  0.6508444  3
   2558   2557   2555   2620     1  0.0000000  0.6508444  3
   2558   2557   2559   2563     1  0.0000000  0.6508444  3
   2558   2557   2559   2561     1  0.0000000  0.6508444  3
   2558   2557   2559   2562     1  0.0000000  0.6508444  3
   2559   2557   2555   2620     1  0.0000000  0.6508444  3
   2559   2563   2595   2585     1  180.0000771  6.0668000  2
   2559   2563   2595   2585     1  180.0000771  1.4644000  4
   2560   2557   2555   2620     1  0.0000000  0.6508444  3
   2560   2557   2559   2563     1  0.0000000  0.6508444  3
   2560   2557   2559   2561     1  0.0000000  0.6508444  3
   2560   2557   2559   2562     1  0.0000000  0.6508444  3
   2561   2559   2563   2564     1  0.0000000  3.3472000  1
   2561   2559   2563   2564     1  0.0000000  0.0000000  2
   2561   2559   2563   2564     1  180.0000771  0.3347200  3
   2561   2559   2563   2595     1  180.0000771  0.0000000  2
   2562   2559   2563   2564     1  0.0000000  3.3472000  1
   2562   2559   2563   2564     1  0.0000000  0.0000000  2
   2562   2559   2563   2564     1  180.0000771  0.3347200  3
   2562   2559   2563   2595     1  180.0000771  0.0000000  2
   2563   2595   2576   2578     1  0.0000000  1.2552000  3
   2564   2563   2595   2585     1  180.0000771  6.0668000  2
   2564   2563   2595   2585     1  180.0000771  1.4644000  4
   2565   2556   2555   2620     1  0.0000000  0.6508444  3
   2565   2556   2567   2570     1  0.0000000  0.6508444  3
   2565   2556   2567   2568     1  0.0000000  0.6508444  3
   2565   2556   2567   2569     1  0.0000000  0.6508444  3
   2566   2556   2555   2620     1  0.0000000  0.6508444  3
   2566   2556   2567   2570     1  0.0000000  0.6508444  3
   2566   2556   2567   2568     1  0.0000000  0.6508444  3
   2566   2556   2567   2569     1  0.0000000  0.6508444  3
   2567   2556   2555   2620     1  0.0000000  0.6508444  3
   2567   2570   2619   2609     1  180.0000771  6.0668000  2
   2567   2570   2619   2609     1  180.0000771  1.4644000  4
   2568   2567   2570   2571     1  0.0000000  3.3472000  1
   2568   2567   2570   2571     1  0.0000000  0.0000000  2
   2568   2567   2570   2571     1  180.0000771  0.3347200  3
   2568   2567   2570   2619     1  180.0000771  0.0000000  2
   2569   2567   2570   2571     1  0.0000000  3.3472000  1
   2569   2567   2570   2571     1  0.0000000  0.0000000  2
   2569   2567   2570   2571     1  180.0000771  0.3347200  3
   2569   2567   2570   2619     1  180.0000771  0.0000000  2
   2570   2619   2600   2602     1  0.0000000  1.2552000  3
   2571   2570   2619   2609     1  180.0000771  6.0668000  2
   2571   2570   2619   2609     1  180.0000771  1.4644000  4
   2572   2573   2575   2579     1  0.0000000  0.6508444  3
   2572   2573   2593   2594     1  0.0000000  1.0460000  1
   2572   2573   2593   2594     1  0.0000000  0.6694400  3
   2572   2583   2588   2589     1  0.0000000  1.0460000  1
   2572   2583   2588   2589     1  0.0000000  0.6694400  3
   2572   2590   2577   2580     1  0.0000000  1.6038667  3
   2573   2572   2583   2586     1  0.0000000  0.6508444  3
   2573   2572   2583   2587     1  0.0000000  0.6508444  3
   2573   2575   2576   2578     1  0.0000000  0.6508444  3
   2573   2575   2582   2584     1  0.0000000  1.0460000  1
   2573   2575   2582   2584     1  0.0000000  0.6694400  3
   2574   2572   2573   2575     1  0.0000000  0.6508444  3
   2574   2572   2573   2593     1  0.0000000  1.0460000  1
   2574   2572   2573   2593     1  0.0000000  0.0000000  3
   2574   2572   2573   2592     1  0.0000000  0.6508444  3
   2574   2572   2583   2588     1  0.0000000  1.0460000  1
   2574   2572   2583   2588     1  0.0000000  0.0000000  3
   2574   2572   2583   2586     1  0.0000000  0.6508444  3
   2574   2572   2583   2587     1  0.0000000  0.6508444  3
   2574   2572   2590   2577     1  0.0000000  1.6038667  3
   2575   2573   2593   2594     1  0.0000000  1.0460000  1
   2575   2573   2593   2594     1  0.0000000  0.6694400  3
   2575   2576   2577   2580     1  0.0000000  0.6508444  3
   2575   2576   2595   2585     1  0.0000000  1.2552000  3
   2576   2575   2573   2592     1  0.0000000  0.6508444  3
   2576   2575   2582   2584     1  0.0000000  1.0460000  1
   2576   2575   2582   2584     1  0.0000000  0.6694400  3
   2576   2577   2581   2591     1  0.0000000  1.0460000  1
   2576   2577   2581   2591     1  0.0000000  0.6694400  3
   2577   2576   2575   2579     1  0.0000000  0.6508444  3
   2577   2576   2595   2585     1  0.0000000  1.2552000  3
   2578   2576   2575   2582     1  0.0000000  1.0460000  1
   2578   2576   2575   2582     1  0.0000000  0.0000000  3
   2578   2576   2575   2579     1  0.0000000  0.6508444  3
   2578   2576   2577   2581     1  0.0000000  1.0460000  1
   2578   2576   2577   2581     1  0.0000000  0.0000000  3
   2578   2576   2577   2590     1  0.0000000  1.0460000  1
   2578   2576   2577   2590     1  0.0000000  0.0000000  3
   2578   2576   2577   2580     1  0.0000000  0.6508444  3
   2578   2576   2595   2585     1  0.0000000  1.2552000  3
   2579   2575   2573   2593     1  0.0000000  1.0460000  1
   2579   2575   2573   2593     1  0.0000000  0.0000000  3
   2579   2575   2573   2592     1  0.0000000  0.6508444  3
   2579   2575   2576   2595     1  0.0000000  0.6508444  3
   2579   2575   2582   2584     1  0.0000000  0.6973333  3
   2580   2577   2576   2595     1  0.0000000  0.6508444  3
   2580   2577   2581   2591     1  0.0000000  0.6973333  3
   2582   2575   2573   2592     1  0.0000000  1.0460000  1
   2582   2575   2573   2592     1  0.0000000  0.0000000  3
   2583   2572   2573   2592     1  0.0000000  0.6508444  3
   2586   2583   2572   2590     1  0.0000000  1.0460000  1
   2586   2583   2572   2590     1  0.0000000  0.0000000  3
   2586   2583   2588   2589     1  0.0000000  0.6973333  3
   2587   2583   2572   2590     1  0.0000000  1.0460000  1
   2587   2583   2572   2590     1  0.0000000  0.0000000  3
   2587   2583   2588   2589     1  0.0000000  0.6973333  3
   2590   2572   2573   2592     1  0.0000000  1.0460000  1
   2590   2572   2573   2592     1  0.0000000  0.0000000  3
   2590   2577   2581   2591     1  0.0000000  0.6973333  3
   2592   2573   2593   2594     1  0.0000000  0.6973333  3
   2596   2597   2599   2603     1  0.0000000  0.6508444  3
   2596   2597   2617   2618     1  0.0000000  1.0460000  1
   2596   2597   2617   2618     1  0.0000000  0.6694400  3
   2596   2607   2612   2613     1  0.0000000  1.0460000  1
   2596   2607   2612   2613     1  0.0000000  0.6694400  3
   2596   2614   2601   2604     1  0.0000000  1.6038667  3
   2597   2596   2607   2610     1  0.0000000  0.6508444  3
   2597   2596   2607   2611     1  0.0000000  0.6508444  3
   2597   2599   2600   2602     1  0.0000000  0.6508444  3
   2597   2599   2606   2608     1  0.0000000  1.0460000  1
   2597   2599   2606   2608     1  0.0000000  0.6694400  3
   2598   2596   2597   2599     1  0.0000000  0.6508444  3
   2598   2596   2597   2617     1  0.0000000  1.0460000  1
   2598   2596   2597   2617     1  0.0000000  0.0000000  3
   2598   2596   2597   2616     1  0.0000000  0.6508444  3
   2598   2596   2607   2612     1  0.0000000  1.0460000  1
   2598   2596   2607   2612     1  0.0000000  0.0000000  3
   2598   2596   2607   2610     1  0.0000000  0.6508444  3
   2598   2596   2607   2611     1  0.0000000  0.6508444  3
   2598   2596   2614   2601     1  0.0000000  1.6038667  3
   2599   2597   2617   2618     1  0.0000000  1.0460000  1
   2599   2597   2617   2618     1  0.0000000  0.6694400  3
   2599   2600   2601   2604     1  0.0000000  0.6508444  3
   2599   2600   2619   2609     1  0.0000000  1.2552000  3
   2600   2599   2597   2616     1  0.0000000  0.6508444  3
   2600   2599   2606   2608     1  0.0000000  1.0460000  1
   2600   2599   2606   2608     1  0.0000000  0.6694400  3
   2600   2601   2605   2615     1  0.0000000  1.0460000  1
   2600   2601   2605   2615     1  0.0000000  0.6694400  3
   2601   2600   2599   2603     1  0.0000000  0.6508444  3
   2601   2600   2619   2609     1  0.0000000  1.2552000  3
   2602   2600   2599   2606     1  0.0000000  1.0460000  1
   2602   2600   2599   2606     1  0.0000000  0.0000000  3
   2602   2600   2599   2603     1  0.0000000  0.6508444  3
   2602   2600   2601   2605     1  0.0000000  1.0460000  1
   2602   2600   2601   2605     1  0.0000000  0.0000000  3
   2602   2600   2601   2614     1  0.0000000  1.0460000  1
   2602   2600   2601   2614     1  0.0000000  0.0000000  3
   2602   2600   2601   2604     1  0.0000000  0.6508444  3
   2602   2600   2619   2609     1  0.0000000  1.2552000  3
   2603   2599   2597   2617     1  0.0000000  1.0460000  1
   2603   2599   2597   2617     1  0.0000000  0.0000000  3
   2603   2599   2597   2616     1  0.0000000  0.6508444  3
   2603   2599   2600   2619     1  0.0000000  0.6508444  3
   2603   2599   2606   2608     1  0.0000000  0.6973333  3
   2604   2601   2600   2619     1  0.0000000  0.6508444  3
   2604   2601   2605   2615     1  0.0000000  0.6973333  3
   2606   2599   2597   2616     1  0.0000000  1.0460000  1
   2606   2599   2597   2616     1  0.0000000  0.0000000  3
   2607   2596   2597   2616     1  0.0000000  0.6508444  3
   2610   2607   2596   2614     1  0.0000000  1.0460000  1
   2610   2607   2596   2614     1  0.0000000  0.0000000  3
   2610   2607   2612   2613     1  0.0000000  0.6973333  3
   2611   2607   2596   2614     1  0.0000000  1.0460000  1
   2611   2607   2596   2614     1  0.0000000  0.0000000  3
   2611   2607   2612   2613     1  0.0000000  0.6973333  3
   2614   2596   2597   2616     1  0.0000000  1.0460000  1
   2614   2596   2597   2616     1  0.0000000  0.0000000  3
   2614   2601   2605   2615     1  0.0000000  0.6973333  3
   2616   2597   2617   2618     1  0.0000000  0.6973333  3
   2621   2623   2625   2627     1  0.0000000  0.6508444  3
   2621   2623   2625   2628     1  0.0000000  0.6508444  3
   2622   2621   2623   2625     1  0.0000000  0.0000000  2
   2622   2621   2623   2624     1  0.0000000  0.0000000  2
   2622   2621   2623   2626     1  0.0000000  0.0000000  2
   2623   2625   2629   2694     1  0.0000000  0.6508444  3
   2624   2623   2625   2629     1  0.0000000  0.6508444  3
   2624   2623   2625   2627     1  0.0000000  0.6508444  3
   2624   2623   2625   2628     1  0.0000000  0.6508444  3
   2625   2629   2630   2639     1  0.0000000  0.6508444  3
   2625   2629   2630   2640     1  0.0000000  0.6508444  3
   2625   2629   2631   2632     1  0.0000000  0.6508444  3
   2625   2629   2631   2634     1  0.0000000  0.6508444  3
   2626   2623   2625   2629     1  0.0000000  0.6508444  3
   2626   2623   2625   2627     1  0.0000000  0.6508444  3
   2626   2623   2625   2628     1  0.0000000  0.6508444  3
   2627   2625   2629   2630     1  0.0000000  0.6508444  3
   2627   2625   2629   2631     1  0.0000000  0.6508444  3
   2627   2625   2629   2694     1  0.0000000  0.6508444  3
   2628   2625   2629   2630     1  0.0000000  0.6508444  3
   2628   2625   2629   2631     1  0.0000000  0.6508444  3
   2628   2625   2629   2694     1  0.0000000  0.6508444  3
   2629   2630   2641   2642     1  0.0000000  0.6508444  3
   2629   2630   2641   2643     1  0.0000000  0.6508444  3
   2629   2631   2633   2635     1  0.0000000  0.6508444  3
   2629   2631   2633   2636     1  0.0000000  0.6508444  3
   2630   2629   2631   2632     1  0.0000000  0.6508444  3
   2630   2629   2631   2634     1  0.0000000  0.6508444  3
   2631   2629   2630   2639     1  0.0000000  0.6508444  3
   2631   2629   2630   2640     1  0.0000000  0.6508444  3
   2632   2631   2633   2637     1  0.0000000  0.6508444  3
   2632   2631   2633   2635     1  0.0000000  0.6508444  3
   2632   2631   2633   2636     1  0.0000000  0.6508444  3
   2632   2631   2629   2694     1  0.0000000  0.6508444  3
   2633   2637   2669   2659     1  180.0000771  6.0668000  2
   2633   2637   2669   2659     1  180.0000771  1.4644000  4
   2633   2631   2629   2694     1  0.0000000  0.6508444  3
   2634   2631   2633   2637     1  0.0000000  0.6508444  3
   2634   2631   2633   2635     1  0.0000000  0.6508444  3
   2634   2631   2633   2636     1  0.0000000  0.6508444  3
   2634   2631   2629   2694     1  0.0000000  0.6508444  3
   2635   2633   2637   2638     1  0.0000000  3.3472000  1
   2635   2633   2637   2638     1  0.0000000  0.0000000  2
   2635   2633   2637   2638     1  180.0000771  0.3347200  3
   2635   2633   2637   2669     1  180.0000771  0.0000000  2
   2636   2633   2637   2638     1  0.0000000  3.3472000  1
   2636   2633   2637   2638     1  0.0000000  0.0000000  2
   2636   2633   2637   2638     1  180.0000771  0.3347200  3
   2636   2633   2637   2669     1  180.0000771  0.0000000  2
   2637   2669   2650   2652     1  0.0000000  1.2552000  3
   2638   2637   2669   2659     1  180.0000771  6.0668000  2
   2638   2637   2669   2659     1  180.0000771  1.4644000  4
   2639   2630   2641   2644     1  0.0000000  0.6508444  3
   2639   2630   2641   2642     1  0.0000000  0.6508444  3
   2639   2630   2641   2643     1  0.0000000  0.6508444  3
   2639   2630   2629   2694     1  0.0000000  0.6508444  3
   2640   2630   2641   2644     1  0.0000000  0.6508444  3
   2640   2630   2641   2642     1  0.0000000  0.6508444  3
   2640   2630   2641   2643     1  0.0000000  0.6508444  3
   2640   2630   2629   2694     1  0.0000000  0.6508444  3
   2641   2644   2693   2683     1  180.0000771  6.0668000  2
   2641   2644   2693   2683     1  180.0000771  1.4644000  4
   2641   2630   2629   2694     1  0.0000000  0.6508444  3
   2642   2641   2644   2645     1  0.0000000  3.3472000  1
   2642   2641   2644   2645     1  0.0000000  0.0000000  2
   2642   2641   2644   2645     1  180.0000771  0.3347200  3
   2642   2641   2644   2693     1  180.0000771  0.0000000  2
   2643   2641   2644   2645     1  0.0000000  3.3472000  1
   2643   2641   2644   2645     1  0.0000000  0.0000000  2
   2643   2641   2644   2645     1  180.0000771  0.3347200  3
   2643   2641   2644   2693     1  180.0000771  0.0000000  2
   2644   2693   2674   2676     1  0.0000000  1.2552000  3
   2645   2644   2693   2683     1  180.0000771  6.0668000  2
   2645   2644   2693   2683     1  180.0000771  1.4644000  4
   2646   2647   2649   2653     1  0.0000000  0.6508444  3
   2646   2647   2667   2668     1  0.0000000  1.0460000  1
   2646   2647   2667   2668     1  0.0000000  0.6694400  3
   2646   2657   2662   2663     1  0.0000000  1.0460000  1
   2646   2657   2662   2663     1  0.0000000  0.6694400  3
   2646   2664   2651   2654     1  0.0000000  1.6038667  3
   2647   2649   2650   2652     1  0.0000000  0.6508444  3
   2647   2649   2656   2658     1  0.0000000  1.0460000  1
   2647   2649   2656   2658     1  0.0000000  0.6694400  3
   2647   2646   2657   2660     1  0.0000000  0.6508444  3
   2647   2646   2657   2661     1  0.0000000  0.6508444  3
   2648   2646   2647   2649     1  0.0000000  0.6508444  3
   2648   2646   2647   2667     1  0.0000000  1.0460000  1
   2648   2646   2647   2667     1  0.0000000  0.0000000  3
   2648   2646   2647   2666     1  0.0000000  0.6508444  3
   2648   2646   2657   2662     1  0.0000000  1.0460000  1
   2648   2646   2657   2662     1  0.0000000  0.0000000  3
   2648   2646   2657   2660     1  0.0000000  0.6508444  3
   2648   2646   2657   2661     1  0.0000000  0.6508444  3
   2648   2646   2664   2651     1  0.0000000  1.6038667  3
   2649   2650   2651   2654     1  0.0000000  0.6508444  3
   2649   2650   2669   2659     1  0.0000000  1.2552000  3
   2649   2647   2667   2668     1  0.0000000  1.0460000  1
   2649   2647   2667   2668     1  0.0000000  0.6694400  3
   2650   2651   2655   2665     1  0.0000000  1.0460000  1
   2650   2651   2655   2665     1  0.0000000  0.6694400  3
   2650   2649   2656   2658     1  0.0000000  1.0460000  1
   2650   2649   2656   2658     1  0.0000000  0.6694400  3
   2650   2649   2647   2666     1  0.0000000  0.6508444  3
   2651   2650   2669   2659     1  0.0000000  1.2552000  3
   2651   2650   2649   2653     1  0.0000000  0.6508444  3
   2652   2650   2651   2655     1  0.0000000  1.0460000  1
   2652   2650   2651   2655     1  0.0000000  0.0000000  3
   2652   2650   2651   2664     1  0.0000000  1.0460000  1
   2652   2650   2651   2664     1  0.0000000  0.0000000  3
   2652   2650   2651   2654     1  0.0000000  0.6508444  3
   2652   2650   2669   2659     1  0.0000000  1.2552000  3
   2652   2650   2649   2656     1  0.0000000  1.0460000  1
   2652   2650   2649   2656     1  0.0000000  0.0000000  3
   2652   2650   2649   2653     1  0.0000000  0.6508444  3
   2653   2649   2650   2669     1  0.0000000  0.6508444  3
   2653   2649   2656   2658     1  0.0000000  0.6973333  3
   2653   2649   2647   2667     1  0.0000000  1.0460000  1
   2653   2649   2647   2667     1  0.0000000  0.0000000  3
   2653   2649   2647   2666     1  0.0000000  0.6508444  3
   2654   2651   2655   2665     1  0.0000000  0.6973333  3
   2654   2651   2650   2669     1  0.0000000  0.6508444  3
   2656   2649   2647   2666     1  0.0000000  1.0460000  1
   2656   2649   2647   2666     1  0.0000000  0.0000000  3
   2657   2646   2647   2666     1  0.0000000  0.6508444  3
   2660   2657   2662   2663     1  0.0000000  0.6973333  3
   2660   2657   2646   2664     1  0.0000000  1.0460000  1
   2660   2657   2646   2664     1  0.0000000  0.0000000  3
   2661   2657   2662   2663     1  0.0000000  0.6973333  3
   2661   2657   2646   2664     1  0.0000000  1.0460000  1
   2661   2657   2646   2664     1  0.0000000  0.0000000  3
   2664   2651   2655   2665     1  0.0000000  0.6973333  3
   2664   2646   2647   2666     1  0.0000000  1.0460000  1
   2664   2646   2647   2666     1  0.0000000  0.0000000  3
   2666   2647   2667   2668     1  0.0000000  0.6973333  3
   2670   2671   2673   2677     1  0.0000000  0.6508444  3
   2670   2671   2691   2692     1  0.0000000  1.0460000  1
   2670   2671   2691   2692     1  0.0000000  0.6694400  3
   2670   2681   2686   2687     1  0.0000000  1.0460000  1
   2670   2681   2686   2687     1  0.0000000  0.6694400  3
   2670   2688   2675   2678     1  0.0000000  1.6038667  3
   2671   2673   2674   2676     1  0.0000000  0.6508444  3
   2671   2673   2680   2682     1  0.0000000  1.0460000  1
   2671   2673   2680   2682     1  0.0000000  0.6694400  3
   2671   2670   2681   2684     1  0.0000000  0.6508444  3
   2671   2670   2681   2685     1  0.0000000  0.6508444  3
   2672   2670   2671   2673     1  0.0000000  0.6508444  3
   2672   2670   2671   2691     1  0.0000000  1.0460000  1
   2672   2670   2671   2691     1  0.0000000  0.0000000  3
   2672   2670   2671   2690     1  0.0000000  0.6508444  3
   2672   2670   2681   2686     1  0.0000000  1.0460000  1
   2672   2670   2681   2686     1  0.0000000  0.0000000  3
   2672   2670   2681   2684     1  0.0000000  0.6508444  3
   2672   2670   2681   2685     1  0.0000000  0.6508444  3
   2672   2670   2688   2675     1  0.0000000  1.6038667  3
   2673   2674   2675   2678     1  0.0000000  0.6508444  3
   2673   2674   2693   2683     1  0.0000000  1.2552000  3
   2673   2671   2691   2692     1  0.0000000  1.0460000  1
   2673   2671   2691   2692     1  0.0000000  0.6694400  3
   2674   2675   2679   2689     1  0.0000000  1.0460000  1
   2674   2675   2679   2689     1  0.0000000  0.6694400  3
   2674   2673   2680   2682     1  0.0000000  1.0460000  1
   2674   2673   2680   2682     1  0.0000000  0.6694400  3
   2674   2673   2671   2690     1  0.0000000  0.6508444  3
   2675   2674   2693   2683     1  0.0000000  1.2552000  3
   2675   2674   2673   2677     1  0.0000000  0.6508444  3
   2676   2674   2675   2679     1  0.0000000  1.0460000  1
   2676   2674   2675   2679     1  0.0000000  0.0000000  3
   2676   2674   2675   2688     1  0.0000000  1.0460000  1
   2676   2674   2675   2688     1  0.0000000  0.0000000  3
   2676   2674   2675   2678     1  0.0000000  0.6508444  3
   2676   2674   2693   2683     1  0.0000000  1.2552000  3
   2676   2674   2673   2680     1  0.0000000  1.0460000  1
   2676   2674   2673   2680     1  0.0000000  0.0000000  3
   2676   2674   2673   2677     1  0.0000000  0.6508444  3
   2677   2673   2674   2693     1  0.0000000  0.6508444  3
   2677   2673   2680   2682     1  0.0000000  0.6973333  3
   2677   2673   2671   2691     1  0.0000000  1.0460000  1
   2677   2673   2671   2691     1  0.0000000  0.0000000  3
   2677   2673   2671   2690     1  0.0000000  0.6508444  3
   2678   2675   2679   2689     1  0.0000000  0.6973333  3
   2678   2675   2674   2693     1  0.0000000  0.6508444  3
   2680   2673   2671   2690     1  0.0000000  1.0460000  1
   2680   2673   2671   2690     1  0.0000000  0.0000000  3
   2681   2670   2671   2690     1  0.0000000  0.6508444  3
   2684   2681   2686   2687     1  0.0000000  0.6973333  3
   2684   2681   2670   2688     1  0.0000000  1.0460000  1
   2684   2681   2670   2688     1  0.0000000  0.0000000  3
   2685   2681   2686   2687     1  0.0000000  0.6973333  3
   2685   2681   2670   2688     1  0.0000000  1.0460000  1
   2685   2681   2670   2688     1  0.0000000  0.0000000  3
   2688   2675   2679   2689     1  0.0000000  0.6973333  3
   2688   2670   2671   2690     1  0.0000000  1.0460000  1
   2688   2670   2671   2690     1  0.0000000  0.0000000  3
   2690   2671   2691   2692     1  0.0000000  0.6973333  3
   2695   2697   2699   2701     1  0.0000000  0.6508444  3
   2695   2697   2699   2702     1  0.0000000  0.6508444  3
   2696   2695   2697   2699     1  0.0000000  0.0000000  2
   2696   2695   2697   2698     1  0.0000000  0.0000000  2
   2696   2695   2697   2700     1  0.0000000  0.0000000  2
   2697   2699   2703   2768     1  0.0000000  0.6508444  3
   2698   2697   2699   2703     1  0.0000000  0.6508444  3
   2698   2697   2699   2701     1  0.0000000  0.6508444  3
   2698   2697   2699   2702     1  0.0000000  0.6508444  3
   2699   2703   2704   2713     1  0.0000000  0.6508444  3
   2699   2703   2704   2714     1  0.0000000  0.6508444  3
   2699   2703   2705   2706     1  0.0000000  0.6508444  3
   2699   2703   2705   2708     1  0.0000000  0.6508444  3
   2700   2697   2699   2703     1  0.0000000  0.6508444  3
   2700   2697   2699   2701     1  0.0000000  0.6508444  3
   2700   2697   2699   2702     1  0.0000000  0.6508444  3
   2701   2699   2703   2704     1  0.0000000  0.6508444  3
   2701   2699   2703   2705     1  0.0000000  0.6508444  3
   2701   2699   2703   2768     1  0.0000000  0.6508444  3
   2702   2699   2703   2704     1  0.0000000  0.6508444  3
   2702   2699   2703   2705     1  0.0000000  0.6508444  3
   2702   2699   2703   2768     1  0.0000000  0.6508444  3
   2703   2704   2715   2716     1  0.0000000  0.6508444  3
   2703   2704   2715   2717     1  0.0000000  0.6508444  3
   2703   2705   2707   2709     1  0.0000000  0.6508444  3
   2703   2705   2707   2710     1  0.0000000  0.6508444  3
   2704   2703   2705   2706     1  0.0000000  0.6508444  3
   2704   2703   2705   2708     1  0.0000000  0.6508444  3
   2705   2703   2704   2713     1  0.0000000  0.6508444  3
   2705   2703   2704   2714     1  0.0000000  0.6508444  3
   2706   2705   2703   2768     1  0.0000000  0.6508444  3
   2706   2705   2707   2711     1  0.0000000  0.6508444  3
   2706   2705   2707   2709     1  0.0000000  0.6508444  3
   2706   2705   2707   2710     1  0.0000000  0.6508444  3
   2707   2705   2703   2768     1  0.0000000  0.6508444  3
   2707   2711   2743   2733     1  180.0000771  6.0668000  2
   2707   2711   2743   2733     1  180.0000771  1.4644000  4
   2708   2705   2703   2768     1  0.0000000  0.6508444  3
   2708   2705   2707   2711     1  0.0000000  0.6508444  3
   2708   2705   2707   2709     1  0.0000000  0.6508444  3
   2708   2705   2707   2710     1  0.0000000  0.6508444  3
   2709   2707   2711   2712     1  0.0000000  3.3472000  1
   2709   2707   2711   2712     1  0.0000000  0.0000000  2
   2709   2707   2711   2712     1  180.0000771  0.3347200  3
   2709   2707   2711   2743     1  180.0000771  0.0000000  2
   2710   2707   2711   2712     1  0.0000000  3.3472000  1
   2710   2707   2711   2712     1  0.0000000  0.0000000  2
   2710   2707   2711   2712     1  180.0000771  0.3347200  3
   2710   2707   2711   2743     1  180.0000771  0.0000000  2
   2711   2743   2724   2726     1  0.0000000  1.2552000  3
   2712   2711   2743   2733     1  180.0000771  6.0668000  2
   2712   2711   2743   2733     1  180.0000771  1.4644000  4
   2713   2704   2703   2768     1  0.0000000  0.6508444  3
   2713   2704   2715   2718     1  0.0000000  0.6508444  3
   2713   2704   2715   2716     1  0.0000000  0.6508444  3
   2713   2704   2715   2717     1  0.0000000  0.6508444  3
   2714   2704   2703   2768     1  0.0000000  0.6508444  3
   2714   2704   2715   2718     1  0.0000000  0.6508444  3
   2714   2704   2715   2716     1  0.0000000  0.6508444  3
   2714   2704   2715   2717     1  0.0000000  0.6508444  3
   2715   2704   2703   2768     1  0.0000000  0.6508444  3
   2715   2718   2767   2757     1  180.0000771  6.0668000  2
   2715   2718   2767   2757     1  180.0000771  1.4644000  4
   2716   2715   2718   2719     1  0.0000000  3.3472000  1
   2716   2715   2718   2719     1  0.0000000  0.0000000  2
   2716   2715   2718   2719     1  180.0000771  0.3347200  3
   2716   2715   2718   2767     1  180.0000771  0.0000000  2
   2717   2715   2718   2719     1  0.0000000  3.3472000  1
   2717   2715   2718   2719     1  0.0000000  0.0000000  2
   2717   2715   2718   2719     1  180.0000771  0.3347200  3
   2717   2715   2718   2767     1  180.0000771  0.0000000  2
   2718   2767   2748   2750     1  0.0000000  1.2552000  3
   2719   2718   2767   2757     1  180.0000771  6.0668000  2
   2719   2718   2767   2757     1  180.0000771  1.4644000  4
   2720   2721   2723   2727     1  0.0000000  0.6508444  3
   2720   2721   2741   2742     1  0.0000000  1.0460000  1
   2720   2721   2741   2742     1  0.0000000  0.6694400  3
   2720   2731   2736   2737     1  0.0000000  1.0460000  1
   2720   2731   2736   2737     1  0.0000000  0.6694400  3
   2720   2738   2725   2728     1  0.0000000  1.6038667  3
   2721   2720   2731   2734     1  0.0000000  0.6508444  3
   2721   2720   2731   2735     1  0.0000000  0.6508444  3
   2721   2723   2724   2726     1  0.0000000  0.6508444  3
   2721   2723   2730   2732     1  0.0000000  1.0460000  1
   2721   2723   2730   2732     1  0.0000000  0.6694400  3
   2722   2720   2721   2723     1  0.0000000  0.6508444  3
   2722   2720   2721   2741     1  0.0000000  1.0460000  1
   2722   2720   2721   2741     1  0.0000000  0.0000000  3
   2722   2720   2721   2740     1  0.0000000  0.6508444  3
   2722   2720   2731   2736     1  0.0000000  1.0460000  1
   2722   2720   2731   2736     1  0.0000000  0.0000000  3
   2722   2720   2731   2734     1  0.0000000  0.6508444  3
   2722   2720   2731   2735     1  0.0000000  0.6508444  3
   2722   2720   2738   2725     1  0.0000000  1.6038667  3
   2723   2721   2741   2742     1  0.0000000  1.0460000  1
   2723   2721   2741   2742     1  0.0000000  0.6694400  3
   2723   2724   2725   2728     1  0.0000000  0.6508444  3
   2723   2724   2743   2733     1  0.0000000  1.2552000  3
   2724   2723   2721   2740     1  0.0000000  0.6508444  3
   2724   2723   2730   2732     1  0.0000000  1.0460000  1
   2724   2723   2730   2732     1  0.0000000  0.6694400  3
   2724   2725   2729   2739     1  0.0000000  1.0460000  1
   2724   2725   2729   2739     1  0.0000000  0.6694400  3
   2725   2724   2723   2727     1  0.0000000  0.6508444  3
   2725   2724   2743   2733     1  0.0000000  1.2552000  3
   2726   2724   2723   2730     1  0.0000000  1.0460000  1
   2726   2724   2723   2730     1  0.0000000  0.0000000  3
   2726   2724   2723   2727     1  0.0000000  0.6508444  3
   2726   2724   2725   2729     1  0.0000000  1.0460000  1
   2726   2724   2725   2729     1  0.0000000  0.0000000  3
   2726   2724   2725   2738     1  0.0000000  1.0460000  1
   2726   2724   2725   2738     1  0.0000000  0.0000000  3
   2726   2724   2725   2728     1  0.0000000  0.6508444  3
   2726   2724   2743   2733     1  0.0000000  1.2552000  3
   2727   2723   2721   2741     1  0.0000000  1.0460000  1
   2727   2723   2721   2741     1  0.0000000  0.0000000  3
   2727   2723   2721   2740     1  0.0000000  0.6508444  3
   2727   2723   2724   2743     1  0.0000000  0.6508444  3
   2727   2723   2730   2732     1  0.0000000  0.6973333  3
   2728   2725   2724   2743     1  0.0000000  0.6508444  3
   2728   2725   2729   2739     1  0.0000000  0.6973333  3
   2730   2723   2721   2740     1  0.0000000  1.0460000  1
   2730   2723   2721   2740     1  0.0000000  0.0000000  3
   2731   2720   2721   2740     1  0.0000000  0.6508444  3
   2734   2731   2720   2738     1  0.0000000  1.0460000  1
   2734   2731   2720   2738     1  0.0000000  0.0000000  3
   2734   2731   2736   2737     1  0.0000000  0.6973333  3
   2735   2731   2720   2738     1  0.0000000  1.0460000  1
   2735   2731   2720   2738     1  0.0000000  0.0000000  3
   2735   2731   2736   2737     1  0.0000000  0.6973333  3
   2738   2720   2721   2740     1  0.0000000  1.0460000  1
   2738   2720   2721   2740     1  0.0000000  0.0000000  3
   2738   2725   2729   2739     1  0.0000000  0.6973333  3
   2740   2721   2741   2742     1  0.0000000  0.6973333  3
   2744   2745   2747   2751     1  0.0000000  0.6508444  3
   2744   2745   2765   2766     1  0.0000000  1.0460000  1
   2744   2745   2765   2766     1  0.0000000  0.6694400  3
   2744   2755   2760   2761     1  0.0000000  1.0460000  1
   2744   2755   2760   2761     1  0.0000000  0.6694400  3
   2744   2762   2749   2752     1  0.0000000  1.6038667  3
   2745   2744   2755   2758     1  0.0000000  0.6508444  3
   2745   2744   2755   2759     1  0.0000000  0.6508444  3
   2745   2747   2748   2750     1  0.0000000  0.6508444  3
   2745   2747   2754   2756     1  0.0000000  1.0460000  1
   2745   2747   2754   2756     1  0.0000000  0.6694400  3
   2746   2744   2745   2747     1  0.0000000  0.6508444  3
   2746   2744   2745   2765     1  0.0000000  1.0460000  1
   2746   2744   2745   2765     1  0.0000000  0.0000000  3
   2746   2744   2745   2764     1  0.0000000  0.6508444  3
   2746   2744   2755   2760     1  0.0000000  1.0460000  1
   2746   2744   2755   2760     1  0.0000000  0.0000000  3
   2746   2744   2755   2758     1  0.0000000  0.6508444  3
   2746   2744   2755   2759     1  0.0000000  0.6508444  3
   2746   2744   2762   2749     1  0.0000000  1.6038667  3
   2747   2745   2765   2766     1  0.0000000  1.0460000  1
   2747   2745   2765   2766     1  0.0000000  0.6694400  3
   2747   2748   2749   2752     1  0.0000000  0.6508444  3
   2747   2748   2767   2757     1  0.0000000  1.2552000  3
   2748   2747   2745   2764     1  0.0000000  0.6508444  3
   2748   2747   2754   2756     1  0.0000000  1.0460000  1
   2748   2747   2754   2756     1  0.0000000  0.6694400  3
   2748   2749   2753   2763     1  0.0000000  1.0460000  1
   2748   2749   2753   2763     1  0.0000000  0.6694400  3
   2749   2748   2747   2751     1  0.0000000  0.6508444  3
   2749   2748   2767   2757     1  0.0000000  1.2552000  3
   2750   2748   2747   2754     1  0.0000000  1.0460000  1
   2750   2748   2747   2754     1  0.0000000  0.0000000  3
   2750   2748   2747   2751     1  0.0000000  0.6508444  3
   2750   2748   2749   2753     1  0.0000000  1.0460000  1
   2750   2748   2749   2753     1  0.0000000  0.0000000  3
   2750   2748   2749   2762     1  0.0000000  1.0460000  1
   2750   2748   2749   2762     1  0.0000000  0.0000000  3
   2750   2748   2749   2752     1  0.0000000  0.6508444  3
   2750   2748   2767   2757     1  0.0000000  1.2552000  3
   2751   2747   2745   2765     1  0.0000000  1.0460000  1
   2751   2747   2745   2765     1  0.0000000  0.0000000  3
   2751   2747   2745   2764     1  0.0000000  0.6508444  3
   2751   2747   2748   2767     1  0.0000000  0.6508444  3
   2751   2747   2754   2756     1  0.0000000  0.6973333  3
   2752   2749   2748   2767     1  0.0000000  0.6508444  3
   2752   2749   2753   2763     1  0.0000000  0.6973333  3
   2754   2747   2745   2764     1  0.0000000  1.0460000  1
   2754   2747   2745   2764     1  0.0000000  0.0000000  3
   2755   2744   2745   2764     1  0.0000000  0.6508444  3
   2758   2755   2744   2762     1  0.0000000  1.0460000  1
   2758   2755   2744   2762     1  0.0000000  0.0000000  3
   2758   2755   2760   2761     1  0.0000000  0.6973333  3
   2759   2755   2744   2762     1  0.0000000  1.0460000  1
   2759   2755   2744   2762     1  0.0000000  0.0000000  3
   2759   2755   2760   2761     1  0.0000000  0.6973333  3
   2762   2744   2745   2764     1  0.0000000  1.0460000  1
   2762   2744   2745   2764     1  0.0000000  0.0000000  3
   2762   2749   2753   2763     1  0.0000000  0.6973333  3
   2764   2745   2765   2766     1  0.0000000  0.6973333  3
   2769   2771   2773   2775     1  0.0000000  0.6508444  3
   2769   2771   2773   2776     1  0.0000000  0.6508444  3
   2770   2769   2771   2773     1  0.0000000  0.0000000  2
   2770   2769   2771   2772     1  0.0000000  0.0000000  2
   2770   2769   2771   2774     1  0.0000000  0.0000000  2
   2771   2773   2777   2842     1  0.0000000  0.6508444  3
   2772   2771   2773   2777     1  0.0000000  0.6508444  3
   2772   2771   2773   2775     1  0.0000000  0.6508444  3
   2772   2771   2773   2776     1  0.0000000  0.6508444  3
   2773   2777   2778   2787     1  0.0000000  0.6508444  3
   2773   2777   2778   2788     1  0.0000000  0.6508444  3
   2773   2777   2779   2780     1  0.0000000  0.6508444  3
   2773   2777   2779   2782     1  0.0000000  0.6508444  3
   2774   2771   2773   2777     1  0.0000000  0.6508444  3
   2774   2771   2773   2775     1  0.0000000  0.6508444  3
   2774   2771   2773   2776     1  0.0000000  0.6508444  3
   2775   2773   2777   2778     1  0.0000000  0.6508444  3
   2775   2773   2777   2779     1  0.0000000  0.6508444  3
   2775   2773   2777   2842     1  0.0000000  0.6508444  3
   2776   2773   2777   2778     1  0.0000000  0.6508444  3
   2776   2773   2777   2779     1  0.0000000  0.6508444  3
   2776   2773   2777   2842     1  0.0000000  0.6508444  3
   2777   2778   2789   2790     1  0.0000000  0.6508444  3
   2777   2778   2789   2791     1  0.0000000  0.6508444  3
   2777   2779   2781   2783     1  0.0000000  0.6508444  3
   2777   2779   2781   2784     1  0.0000000  0.6508444  3
   2778   2777   2779   2780     1  0.0000000  0.6508444  3
   2778   2777   2779   2782     1  0.0000000  0.6508444  3
   2779   2777   2778   2787     1  0.0000000  0.6508444  3
   2779   2777   2778   2788     1  0.0000000  0.6508444  3
   2780   2779   2781   2785     1  0.0000000  0.6508444  3
   2780   2779   2781   2783     1  0.0000000  0.6508444  3
   2780   2779   2781   2784     1  0.0000000  0.6508444  3
   2780   2779   2777   2842     1  0.0000000  0.6508444  3
   2781   2785   2817   2807     1  180.0000771  6.0668000  2
   2781   2785   2817   2807     1  180.0000771  1.4644000  4
   2781   2779   2777   2842     1  0.0000000  0.6508444  3
   2782   2779   2781   2785     1  0.0000000  0.6508444  3
   2782   2779   2781   2783     1  0.0000000  0.6508444  3
   2782   2779   2781   2784     1  0.0000000  0.6508444  3
   2782   2779   2777   2842     1  0.0000000  0.6508444  3
   2783   2781   2785   2786     1  0.0000000  3.3472000  1
   2783   2781   2785   2786     1  0.0000000  0.0000000  2
   2783   2781   2785   2786     1  180.0000771  0.3347200  3
   2783   2781   2785   2817     1  180.0000771  0.0000000  2
   2784   2781   2785   2786     1  0.0000000  3.3472000  1
   2784   2781   2785   2786     1  0.0000000  0.0000000  2
   2784   2781   2785   2786     1  180.0000771  0.3347200  3
   2784   2781   2785   2817     1  180.0000771  0.0000000  2
   2785   2817   2798   2800     1  0.0000000  1.2552000  3
   2786   2785   2817   2807     1  180.0000771  6.0668000  2
   2786   2785   2817   2807     1  180.0000771  1.4644000  4
   2787   2778   2789   2792     1  0.0000000  0.6508444  3
   2787   2778   2789   2790     1  0.0000000  0.6508444  3
   2787   2778   2789   2791     1  0.0000000  0.6508444  3
   2787   2778   2777   2842     1  0.0000000  0.6508444  3
   2788   2778   2789   2792     1  0.0000000  0.6508444  3
   2788   2778   2789   2790     1  0.0000000  0.6508444  3
   2788   2778   2789   2791     1  0.0000000  0.6508444  3
   2788   2778   2777   2842     1  0.0000000  0.6508444  3
   2789   2792   2841   2831     1  180.0000771  6.0668000  2
   2789   2792   2841   2831     1  180.0000771  1.4644000  4
   2789   2778   2777   2842     1  0.0000000  0.6508444  3
   2790   2789   2792   2793     1  0.0000000  3.3472000  1
   2790   2789   2792   2793     1  0.0000000  0.0000000  2
   2790   2789   2792   2793     1  180.0000771  0.3347200  3
   2790   2789   2792   2841     1  180.0000771  0.0000000  2
   2791   2789   2792   2793     1  0.0000000  3.3472000  1
   2791   2789   2792   2793     1  0.0000000  0.0000000  2
   2791   2789   2792   2793     1  180.0000771  0.3347200  3
   2791   2789   2792   2841     1  180.0000771  0.0000000  2
   2792   2841   2822   2824     1  0.0000000  1.2552000  3
   2793   2792   2841   2831     1  180.0000771  6.0668000  2
   2793   2792   2841   2831     1  180.0000771  1.4644000  4
   2794   2795   2797   2801     1  0.0000000  0.6508444  3
   2794   2795   2815   2816     1  0.0000000  1.0460000  1
   2794   2795   2815   2816     1  0.0000000  0.6694400  3
   2794   2805   2810   2811     1  0.0000000  1.0460000  1
   2794   2805   2810   2811     1  0.0000000  0.6694400  3
   2794   2812   2799   2802     1  0.0000000  1.6038667  3
   2795   2797   2798   2800     1  0.0000000  0.6508444  3
   2795   2797   2804   2806     1  0.0000000  1.0460000  1
   2795   2797   2804   2806     1  0.0000000  0.6694400  3
   2795   2794   2805   2808     1  0.0000000  0.6508444  3
   2795   2794   2805   2809     1  0.0000000  0.6508444  3
   2796   2794   2795   2797     1  0.0000000  0.6508444  3
   2796   2794   2795   2815     1  0.0000000  1.0460000  1
   2796   2794   2795   2815     1  0.0000000  0.0000000  3
   2796   2794   2795   2814     1  0.0000000  0.6508444  3
   2796   2794   2805   2810     1  0.0000000  1.0460000  1
   2796   2794   2805   2810     1  0.0000000  0.0000000  3
   2796   2794   2805   2808     1  0.0000000  0.6508444  3
   2796   2794   2805   2809     1  0.0000000  0.6508444  3
   2796   2794   2812   2799     1  0.0000000  1.6038667  3
   2797   2798   2799   2802     1  0.0000000  0.6508444  3
   2797   2798   2817   2807     1  0.0000000  1.2552000  3
   2797   2795   2815   2816     1  0.0000000  1.0460000  1
   2797   2795   2815   2816     1  0.0000000  0.6694400  3
   2798   2799   2803   2813     1  0.0000000  1.0460000  1
   2798   2799   2803   2813     1  0.0000000  0.6694400  3
   2798   2797   2804   2806     1  0.0000000  1.0460000  1
   2798   2797   2804   2806     1  0.0000000  0.6694400  3
   2798   2797   2795   2814     1  0.0000000  0.6508444  3
   2799   2798   2817   2807     1  0.0000000  1.2552000  3
   2799   2798   2797   2801     1  0.0000000  0.6508444  3
   2800   2798   2799   2803     1  0.0000000  1.0460000  1
   2800   2798   2799   2803     1  0.0000000  0.0000000  3
   2800   2798   2799   2812     1  0.0000000  1.0460000  1
   2800   2798   2799   2812     1  0.0000000  0.0000000  3
   2800   2798   2799   2802     1  0.0000000  0.6508444  3
   2800   2798   2817   2807     1  0.0000000  1.2552000  3
   2800   2798   2797   2804     1  0.0000000  1.0460000  1
   2800   2798   2797   2804     1  0.0000000  0.0000000  3
   2800   2798   2797   2801     1  0.0000000  0.6508444  3
   2801   2797   2798   2817     1  0.0000000  0.6508444  3
   2801   2797   2804   2806     1  0.0000000  0.6973333  3
   2801   2797   2795   2815     1  0.0000000  1.0460000  1
   2801   2797   2795   2815     1  0.0000000  0.0000000  3
   2801   2797   2795   2814     1  0.0000000  0.6508444  3
   2802   2799   2803   2813     1  0.0000000  0.6973333  3
   2802   2799   2798   2817     1  0.0000000  0.6508444  3
   2804   2797   2795   2814     1  0.0000000  1.0460000  1
   2804   2797   2795   2814     1  0.0000000  0.0000000  3
   2805   2794   2795   2814     1  0.0000000  0.6508444  3
   2808   2805   2810   2811     1  0.0000000  0.6973333  3
   2808   2805   2794   2812     1  0.0000000  1.0460000  1
   2808   2805   2794   2812     1  0.0000000  0.0000000  3
   2809   2805   2810   2811     1  0.0000000  0.6973333  3
   2809   2805   2794   2812     1  0.0000000  1.0460000  1
   2809   2805   2794   2812     1  0.0000000  0.0000000  3
   2812   2799   2803   2813     1  0.0000000  0.6973333  3
   2812   2794   2795   2814     1  0.0000000  1.0460000  1
   2812   2794   2795   2814     1  0.0000000  0.0000000  3
   2814   2795   2815   2816     1  0.0000000  0.6973333  3
   2818   2819   2821   2825     1  0.0000000  0.6508444  3
   2818   2819   2839   2840     1  0.0000000  1.0460000  1
   2818   2819   2839   2840     1  0.0000000  0.6694400  3
   2818   2829   2834   2835     1  0.0000000  1.0460000  1
   2818   2829   2834   2835     1  0.0000000  0.6694400  3
   2818   2836   2823   2826     1  0.0000000  1.6038667  3
   2819   2821   2822   2824     1  0.0000000  0.6508444  3
   2819   2821   2828   2830     1  0.0000000  1.0460000  1
   2819   2821   2828   2830     1  0.0000000  0.6694400  3
   2819   2818   2829   2832     1  0.0000000  0.6508444  3
   2819   2818   2829   2833     1  0.0000000  0.6508444  3
   2820   2818   2819   2821     1  0.0000000  0.6508444  3
   2820   2818   2819   2839     1  0.0000000  1.0460000  1
   2820   2818   2819   2839     1  0.0000000  0.0000000  3
   2820   2818   2819   2838     1  0.0000000  0.6508444  3
   2820   2818   2829   2834     1  0.0000000  1.0460000  1
   2820   2818   2829   2834     1  0.0000000  0.0000000  3
   2820   2818   2829   2832     1  0.0000000  0.6508444  3
   2820   2818   2829   2833     1  0.0000000  0.6508444  3
   2820   2818   2836   2823     1  0.0000000  1.6038667  3
   2821   2822   2823   2826     1  0.0000000  0.6508444  3
   2821   2822   2841   2831     1  0.0000000  1.2552000  3
   2821   2819   2839   2840     1  0.0000000  1.0460000  1
   2821   2819   2839   2840     1  0.0000000  0.6694400  3
   2822   2823   2827   2837     1  0.0000000  1.0460000  1
   2822   2823   2827   2837     1  0.0000000  0.6694400  3
   2822   2821   2828   2830     1  0.0000000  1.0460000  1
   2822   2821   2828   2830     1  0.0000000  0.6694400  3
   2822   2821   2819   2838     1  0.0000000  0.6508444  3
   2823   2822   2841   2831     1  0.0000000  1.2552000  3
   2823   2822   2821   2825     1  0.0000000  0.6508444  3
   2824   2822   2823   2827     1  0.0000000  1.0460000  1
   2824   2822   2823   2827     1  0.0000000  0.0000000  3
   2824   2822   2823   2836     1  0.0000000  1.0460000  1
   2824   2822   2823   2836     1  0.0000000  0.0000000  3
   2824   2822   2823   2826     1  0.0000000  0.6508444  3
   2824   2822   2841   2831     1  0.0000000  1.2552000  3
   2824   2822   2821   2828     1  0.0000000  1.0460000  1
   2824   2822   2821   2828     1  0.0000000  0.0000000  3
   2824   2822   2821   2825     1  0.0000000  0.6508444  3
   2825   2821   2822   2841     1  0.0000000  0.6508444  3
   2825   2821   2828   2830     1  0.0000000  0.6973333  3
   2825   2821   2819   2839     1  0.0000000  1.0460000  1
   2825   2821   2819   2839     1  0.0000000  0.0000000  3
   2825   2821   2819   2838     1  0.0000000  0.6508444  3
   2826   2823   2827   2837     1  0.0000000  0.6973333  3
   2826   2823   2822   2841     1  0.0000000  0.6508444  3
   2828   2821   2819   2838     1  0.0000000  1.0460000  1
   2828   2821   2819   2838     1  0.0000000  0.0000000  3
   2829   2818   2819   2838     1  0.0000000  0.6508444  3
   2832   2829   2834   2835     1  0.0000000  0.6973333  3
   2832   2829   2818   2836     1  0.0000000  1.0460000  1
   2832   2829   2818   2836     1  0.0000000  0.0000000  3
   2833   2829   2834   2835     1  0.0000000  0.6973333  3
   2833   2829   2818   2836     1  0.0000000  1.0460000  1
   2833   2829   2818   2836     1  0.0000000  0.0000000  3
   2836   2823   2827   2837     1  0.0000000  0.6973333  3
   2836   2818   2819   2838     1  0.0000000  1.0460000  1
   2836   2818   2819   2838     1  0.0000000  0.0000000  3
   2838   2819   2839   2840     1  0.0000000  0.6973333  3
   2843   2845   2847   2849     1  0.0000000  0.6508444  3
   2843   2845   2847   2850     1  0.0000000  0.6508444  3
   2844   2843   2845   2847     1  0.0000000  0.0000000  2
   2844   2843   2845   2846     1  0.0000000  0.0000000  2
   2844   2843   2845   2848     1  0.0000000  0.0000000  2
   2845   2847   2851   2916     1  0.0000000  0.6508444  3
   2846   2845   2847   2851     1  0.0000000  0.6508444  3
   2846   2845   2847   2849     1  0.0000000  0.6508444  3
   2846   2845   2847   2850     1  0.0000000  0.6508444  3
   2847   2851   2852   2861     1  0.0000000  0.6508444  3
   2847   2851   2852   2862     1  0.0000000  0.6508444  3
   2847   2851   2853   2854     1  0.0000000  0.6508444  3
   2847   2851   2853   2856     1  0.0000000  0.6508444  3
   2848   2845   2847   2851     1  0.0000000  0.6508444  3
   2848   2845   2847   2849     1  0.0000000  0.6508444  3
   2848   2845   2847   2850     1  0.0000000  0.6508444  3
   2849   2847   2851   2852     1  0.0000000  0.6508444  3
   2849   2847   2851   2853     1  0.0000000  0.6508444  3
   2849   2847   2851   2916     1  0.0000000  0.6508444  3
   2850   2847   2851   2852     1  0.0000000  0.6508444  3
   2850   2847   2851   2853     1  0.0000000  0.6508444  3
   2850   2847   2851   2916     1  0.0000000  0.6508444  3
   2851   2852   2863   2864     1  0.0000000  0.6508444  3
   2851   2852   2863   2865     1  0.0000000  0.6508444  3
   2851   2853   2855   2857     1  0.0000000  0.6508444  3
   2851   2853   2855   2858     1  0.0000000  0.6508444  3
   2852   2851   2853   2854     1  0.0000000  0.6508444  3
   2852   2851   2853   2856     1  0.0000000  0.6508444  3
   2853   2851   2852   2861     1  0.0000000  0.6508444  3
   2853   2851   2852   2862     1  0.0000000  0.6508444  3
   2854   2853   2851   2916     1  0.0000000  0.6508444  3
   2854   2853   2855   2859     1  0.0000000  0.6508444  3
   2854   2853   2855   2857     1  0.0000000  0.6508444  3
   2854   2853   2855   2858     1  0.0000000  0.6508444  3
   2855   2853   2851   2916     1  0.0000000  0.6508444  3
   2855   2859   2891   2881     1  180.0000771  6.0668000  2
   2855   2859   2891   2881     1  180.0000771  1.4644000  4
   2856   2853   2851   2916     1  0.0000000  0.6508444  3
   2856   2853   2855   2859     1  0.0000000  0.6508444  3
   2856   2853   2855   2857     1  0.0000000  0.6508444  3
   2856   2853   2855   2858     1  0.0000000  0.6508444  3
   2857   2855   2859   2860     1  0.0000000  3.3472000  1
   2857   2855   2859   2860     1  0.0000000  0.0000000  2
   2857   2855   2859   2860     1  180.0000771  0.3347200  3
   2857   2855   2859   2891     1  180.0000771  0.0000000  2
   2858   2855   2859   2860     1  0.0000000  3.3472000  1
   2858   2855   2859   2860     1  0.0000000  0.0000000  2
   2858   2855   2859   2860     1  180.0000771  0.3347200  3
   2858   2855   2859   2891     1  180.0000771  0.0000000  2
   2859   2891   2872   2874     1  0.0000000  1.2552000  3
   2860   2859   2891   2881     1  180.0000771  6.0668000  2
   2860   2859   2891   2881     1  180.0000771  1.4644000  4
   2861   2852   2851   2916     1  0.0000000  0.6508444  3
   2861   2852   2863   2866     1  0.0000000  0.6508444  3
   2861   2852   2863   2864     1  0.0000000  0.6508444  3
   2861   2852   2863   2865     1  0.0000000  0.6508444  3
   2862   2852   2851   2916     1  0.0000000  0.6508444  3
   2862   2852   2863   2866     1  0.0000000  0.6508444  3
   2862   2852   2863   2864     1  0.0000000  0.6508444  3
   2862   2852   2863   2865     1  0.0000000  0.6508444  3
   2863   2852   2851   2916     1  0.0000000  0.6508444  3
   2863   2866   2915   2905     1  180.0000771  6.0668000  2
   2863   2866   2915   2905     1  180.0000771  1.4644000  4
   2864   2863   2866   2867     1  0.0000000  3.3472000  1
   2864   2863   2866   2867     1  0.0000000  0.0000000  2
   2864   2863   2866   2867     1  180.0000771  0.3347200  3
   2864   2863   2866   2915     1  180.0000771  0.0000000  2
   2865   2863   2866   2867     1  0.0000000  3.3472000  1
   2865   2863   2866   2867     1  0.0000000  0.0000000  2
   2865   2863   2866   2867     1  180.0000771  0.3347200  3
   2865   2863   2866   2915     1  180.0000771  0.0000000  2
   2866   2915   2896   2898     1  0.0000000  1.2552000  3
   2867   2866   2915   2905     1  180.0000771  6.0668000  2
   2867   2866   2915   2905     1  180.0000771  1.4644000  4
   2868   2869   2871   2875     1  0.0000000  0.6508444  3
   2868   2869   2889   2890     1  0.0000000  1.0460000  1
   2868   2869   2889   2890     1  0.0000000  0.6694400  3
   2868   2879   2884   2885     1  0.0000000  1.0460000  1
   2868   2879   2884   2885     1  0.0000000  0.6694400  3
   2868   2886   2873   2876     1  0.0000000  1.6038667  3
   2869   2868   2879   2882     1  0.0000000  0.6508444  3
   2869   2868   2879   2883     1  0.0000000  0.6508444  3
   2869   2871   2872   2874     1  0.0000000  0.6508444  3
   2869   2871   2878   2880     1  0.0000000  1.0460000  1
   2869   2871   2878   2880     1  0.0000000  0.6694400  3
   2870   2868   2869   2871     1  0.0000000  0.6508444  3
   2870   2868   2869   2889     1  0.0000000  1.0460000  1
   2870   2868   2869   2889     1  0.0000000  0.0000000  3
   2870   2868   2869   2888     1  0.0000000  0.6508444  3
   2870   2868   2879   2884     1  0.0000000  1.0460000  1
   2870   2868   2879   2884     1  0.0000000  0.0000000  3
   2870   2868   2879   2882     1  0.0000000  0.6508444  3
   2870   2868   2879   2883     1  0.0000000  0.6508444  3
   2870   2868   2886   2873     1  0.0000000  1.6038667  3
   2871   2869   2889   2890     1  0.0000000  1.0460000  1
   2871   2869   2889   2890     1  0.0000000  0.6694400  3
   2871   2872   2873   2876     1  0.0000000  0.6508444  3
   2871   2872   2891   2881     1  0.0000000  1.2552000  3
   2872   2871   2869   2888     1  0.0000000  0.6508444  3
   2872   2871   2878   2880     1  0.0000000  1.0460000  1
   2872   2871   2878   2880     1  0.0000000  0.6694400  3
   2872   2873   2877   2887     1  0.0000000  1.0460000  1
   2872   2873   2877   2887     1  0.0000000  0.6694400  3
   2873   2872   2871   2875     1  0.0000000  0.6508444  3
   2873   2872   2891   2881     1  0.0000000  1.2552000  3
   2874   2872   2871   2878     1  0.0000000  1.0460000  1
   2874   2872   2871   2878     1  0.0000000  0.0000000  3
   2874   2872   2871   2875     1  0.0000000  0.6508444  3
   2874   2872   2873   2877     1  0.0000000  1.0460000  1
   2874   2872   2873   2877     1  0.0000000  0.0000000  3
   2874   2872   2873   2886     1  0.0000000  1.0460000  1
   2874   2872   2873   2886     1  0.0000000  0.0000000  3
   2874   2872   2873   2876     1  0.0000000  0.6508444  3
   2874   2872   2891   2881     1  0.0000000  1.2552000  3
   2875   2871   2869   2889     1  0.0000000  1.0460000  1
   2875   2871   2869   2889     1  0.0000000  0.0000000  3
   2875   2871   2869   2888     1  0.0000000  0.6508444  3
   2875   2871   2872   2891     1  0.0000000  0.6508444  3
   2875   2871   2878   2880     1  0.0000000  0.6973333  3
   2876   2873   2872   2891     1  0.0000000  0.6508444  3
   2876   2873   2877   2887     1  0.0000000  0.6973333  3
   2878   2871   2869   2888     1  0.0000000  1.0460000  1
   2878   2871   2869   2888     1  0.0000000  0.0000000  3
   2879   2868   2869   2888     1  0.0000000  0.6508444  3
   2882   2879   2868   2886     1  0.0000000  1.0460000  1
   2882   2879   2868   2886     1  0.0000000  0.0000000  3
   2882   2879   2884   2885     1  0.0000000  0.6973333  3
   2883   2879   2868   2886     1  0.0000000  1.0460000  1
   2883   2879   2868   2886     1  0.0000000  0.0000000  3
   2883   2879   2884   2885     1  0.0000000  0.6973333  3
   2886   2868   2869   2888     1  0.0000000  1.0460000  1
   2886   2868   2869   2888     1  0.0000000  0.0000000  3
   2886   2873   2877   2887     1  0.0000000  0.6973333  3
   2888   2869   2889   2890     1  0.0000000  0.6973333  3
   2892   2893   2895   2899     1  0.0000000  0.6508444  3
   2892   2893   2913   2914     1  0.0000000  1.0460000  1
   2892   2893   2913   2914     1  0.0000000  0.6694400  3
   2892   2903   2908   2909     1  0.0000000  1.0460000  1
   2892   2903   2908   2909     1  0.0000000  0.6694400  3
   2892   2910   2897   2900     1  0.0000000  1.6038667  3
   2893   2892   2903   2906     1  0.0000000  0.6508444  3
   2893   2892   2903   2907     1  0.0000000  0.6508444  3
   2893   2895   2896   2898     1  0.0000000  0.6508444  3
   2893   2895   2902   2904     1  0.0000000  1.0460000  1
   2893   2895   2902   2904     1  0.0000000  0.6694400  3
   2894   2892   2893   2895     1  0.0000000  0.6508444  3
   2894   2892   2893   2913     1  0.0000000  1.0460000  1
   2894   2892   2893   2913     1  0.0000000  0.0000000  3
   2894   2892   2893   2912     1  0.0000000  0.6508444  3
   2894   2892   2903   2908     1  0.0000000  1.0460000  1
   2894   2892   2903   2908     1  0.0000000  0.0000000  3
   2894   2892   2903   2906     1  0.0000000  0.6508444  3
   2894   2892   2903   2907     1  0.0000000  0.6508444  3
   2894   2892   2910   2897     1  0.0000000  1.6038667  3
   2895   2893   2913   2914     1  0.0000000  1.0460000  1
   2895   2893   2913   2914     1  0.0000000  0.6694400  3
   2895   2896   2897   2900     1  0.0000000  0.6508444  3
   2895   2896   2915   2905     1  0.0000000  1.2552000  3
   2896   2895   2893   2912     1  0.0000000  0.6508444  3
   2896   2895   2902   2904     1  0.0000000  1.0460000  1
   2896   2895   2902   2904     1  0.0000000  0.6694400  3
   2896   2897   2901   2911     1  0.0000000  1.0460000  1
   2896   2897   2901   2911     1  0.0000000  0.6694400  3
   2897   2896   2895   2899     1  0.0000000  0.6508444  3
   2897   2896   2915   2905     1  0.0000000  1.2552000  3
   2898   2896   2895   2902     1  0.0000000  1.0460000  1
   2898   2896   2895   2902     1  0.0000000  0.0000000  3
   2898   2896   2895   2899     1  0.0000000  0.6508444  3
   2898   2896   2897   2901     1  0.0000000  1.0460000  1
   2898   2896   2897   2901     1  0.0000000  0.0000000  3
   2898   2896   2897   2910     1  0.0000000  1.0460000  1
   2898   2896   2897   2910     1  0.0000000  0.0000000  3
   2898   2896   2897   2900     1  0.0000000  0.6508444  3
   2898   2896   2915   2905     1  0.0000000  1.2552000  3
   2899   2895   2893   2913     1  0.0000000  1.0460000  1
   2899   2895   2893   2913     1  0.0000000  0.0000000  3
   2899   2895   2893   2912     1  0.0000000  0.6508444  3
   2899   2895   2896   2915     1  0.0000000  0.6508444  3
   2899   2895   2902   2904     1  0.0000000  0.6973333  3
   2900   2897   2896   2915     1  0.0000000  0.6508444  3
   2900   2897   2901   2911     1  0.0000000  0.6973333  3
   2902   2895   2893   2912     1  0.0000000  1.0460000  1
   2902   2895   2893   2912     1  0.0000000  0.0000000  3
   2903   2892   2893   2912     1  0.0000000  0.6508444  3
   2906   2903   2892   2910     1  0.0000000  1.0460000  1
   2906   2903   2892   2910     1  0.0000000  0.0000000  3
   2906   2903   2908   2909     1  0.0000000  0.6973333  3
   2907   2903   2892   2910     1  0.0000000  1.0460000  1
   2907   2903   2892   2910     1  0.0000000  0.0000000  3
   2907   2903   2908   2909     1  0.0000000  0.6973333  3
   2910   2892   2893   2912     1  0.0000000  1.0460000  1
   2910   2892   2893   2912     1  0.0000000  0.0000000  3
   2910   2897   2901   2911     1  0.0000000  0.6973333  3
   2912   2893   2913   2914     1  0.0000000  0.6973333  3
   2917   2919   2921   2923     1  0.0000000  0.6508444  3
   2917   2919   2921   2924     1  0.0000000  0.6508444  3
   2918   2917   2919   2921     1  0.0000000  0.0000000  2
   2918   2917   2919   2920     1  0.0000000  0.0000000  2
   2918   2917   2919   2922     1  0.0000000  0.0000000  2
   2919   2921   2925   2990     1  0.0000000  0.6508444  3
   2920   2919   2921   2925     1  0.0000000  0.6508444  3
   2920   2919   2921   2923     1  0.0000000  0.6508444  3
   2920   2919   2921   2924     1  0.0000000  0.6508444  3
   2921   2925   2926   2935     1  0.0000000  0.6508444  3
   2921   2925   2926   2936     1  0.0000000  0.6508444  3
   2921   2925   2927   2928     1  0.0000000  0.6508444  3
   2921   2925   2927   2930     1  0.0000000  0.6508444  3
   2922   2919   2921   2925     1  0.0000000  0.6508444  3
   2922   2919   2921   2923     1  0.0000000  0.6508444  3
   2922   2919   2921   2924     1  0.0000000  0.6508444  3
   2923   2921   2925   2926     1  0.0000000  0.6508444  3
   2923   2921   2925   2927     1  0.0000000  0.6508444  3
   2923   2921   2925   2990     1  0.0000000  0.6508444  3
   2924   2921   2925   2926     1  0.0000000  0.6508444  3
   2924   2921   2925   2927     1  0.0000000  0.6508444  3
   2924   2921   2925   2990     1  0.0000000  0.6508444  3
   2925   2926   2937   2938     1  0.0000000  0.6508444  3
   2925   2926   2937   2939     1  0.0000000  0.6508444  3
   2925   2927   2929   2931     1  0.0000000  0.6508444  3
   2925   2927   2929   2932     1  0.0000000  0.6508444  3
   2926   2925   2927   2928     1  0.0000000  0.6508444  3
   2926   2925   2927   2930     1  0.0000000  0.6508444  3
   2927   2925   2926   2935     1  0.0000000  0.6508444  3
   2927   2925   2926   2936     1  0.0000000  0.6508444  3
   2928   2927   2929   2933     1  0.0000000  0.6508444  3
   2928   2927   2929   2931     1  0.0000000  0.6508444  3
   2928   2927   2929   2932     1  0.0000000  0.6508444  3
   2928   2927   2925   2990     1  0.0000000  0.6508444  3
   2929   2933   2965   2955     1  180.0000771  6.0668000  2
   2929   2933   2965   2955     1  180.0000771  1.4644000  4
   2929   2927   2925   2990     1  0.0000000  0.6508444  3
   2930   2927   2929   2933     1  0.0000000  0.6508444  3
   2930   2927   2929   2931     1  0.0000000  0.6508444  3
   2930   2927   2929   2932     1  0.0000000  0.6508444  3
   2930   2927   2925   2990     1  0.0000000  0.6508444  3
   2931   2929   2933   2934     1  0.0000000  3.3472000  1
   2931   2929   2933   2934     1  0.0000000  0.0000000  2
   2931   2929   2933   2934     1  180.0000771  0.3347200  3
   2931   2929   2933   2965     1  180.0000771  0.0000000  2
   2932   2929   2933   2934     1  0.0000000  3.3472000  1
   2932   2929   2933   2934     1  0.0000000  0.0000000  2
   2932   2929   2933   2934     1  180.0000771  0.3347200  3
   2932   2929   2933   2965     1  180.0000771  0.0000000  2
   2933   2965   2946   2948     1  0.0000000  1.2552000  3
   2934   2933   2965   2955     1  180.0000771  6.0668000  2
   2934   2933   2965   2955     1  180.0000771  1.4644000  4
   2935   2926   2937   2940     1  0.0000000  0.6508444  3
   2935   2926   2937   2938     1  0.0000000  0.6508444  3
   2935   2926   2937   2939     1  0.0000000  0.6508444  3
   2935   2926   2925   2990     1  0.0000000  0.6508444  3
   2936   2926   2937   2940     1  0.0000000  0.6508444  3
   2936   2926   2937   2938     1  0.0000000  0.6508444  3
   2936   2926   2937   2939     1  0.0000000  0.6508444  3
   2936   2926   2925   2990     1  0.0000000  0.6508444  3
   2937   2940   2989   2979     1  180.0000771  6.0668000  2
   2937   2940   2989   2979     1  180.0000771  1.4644000  4
   2937   2926   2925   2990     1  0.0000000  0.6508444  3
   2938   2937   2940   2941     1  0.0000000  3.3472000  1
   2938   2937   2940   2941     1  0.0000000  0.0000000  2
   2938   2937   2940   2941     1  180.0000771  0.3347200  3
   2938   2937   2940   2989     1  180.0000771  0.0000000  2
   2939   2937   2940   2941     1  0.0000000  3.3472000  1
   2939   2937   2940   2941     1  0.0000000  0.0000000  2
   2939   2937   2940   2941     1  180.0000771  0.3347200  3
   2939   2937   2940   2989     1  180.0000771  0.0000000  2
   2940   2989   2970   2972     1  0.0000000  1.2552000  3
   2941   2940   2989   2979     1  180.0000771  6.0668000  2
   2941   2940   2989   2979     1  180.0000771  1.4644000  4
   2942   2943   2945   2949     1  0.0000000  0.6508444  3
   2942   2943   2963   2964     1  0.0000000  1.0460000  1
   2942   2943   2963   2964     1  0.0000000  0.6694400  3
   2942   2953   2958   2959     1  0.0000000  1.0460000  1
   2942   2953   2958   2959     1  0.0000000  0.6694400  3
   2942   2960   2947   2950     1  0.0000000  1.6038667  3
   2943   2945   2946   2948     1  0.0000000  0.6508444  3
   2943   2945   2952   2954     1  0.0000000  1.0460000  1
   2943   2945   2952   2954     1  0.0000000  0.6694400  3
   2943   2942   2953   2956     1  0.0000000  0.6508444  3
   2943   2942   2953   2957     1  0.0000000  0.6508444  3
   2944   2942   2943   2945     1  0.0000000  0.6508444  3
   2944   2942   2943   2963     1  0.0000000  1.0460000  1
   2944   2942   2943   2963     1  0.0000000  0.0000000  3
   2944   2942   2943   2962     1  0.0000000  0.6508444  3
   2944   2942   2953   2958     1  0.0000000  1.0460000  1
   2944   2942   2953   2958     1  0.0000000  0.0000000  3
   2944   2942   2953   2956     1  0.0000000  0.6508444  3
   2944   2942   2953   2957     1  0.0000000  0.6508444  3
   2944   2942   2960   2947     1  0.0000000  1.6038667  3
   2945   2946   2947   2950     1  0.0000000  0.6508444  3
   2945   2946   2965   2955     1  0.0000000  1.2552000  3
   2945   2943   2963   2964     1  0.0000000  1.0460000  1
   2945   2943   2963   2964     1  0.0000000  0.6694400  3
   2946   2947   2951   2961     1  0.0000000  1.0460000  1
   2946   2947   2951   2961     1  0.0000000  0.6694400  3
   2946   2945   2952   2954     1  0.0000000  1.0460000  1
   2946   2945   2952   2954     1  0.0000000  0.6694400  3
   2946   2945   2943   2962     1  0.0000000  0.6508444  3
   2947   2946   2965   2955     1  0.0000000  1.2552000  3
   2947   2946   2945   2949     1  0.0000000  0.6508444  3
   2948   2946   2947   2951     1  0.0000000  1.0460000  1
   2948   2946   2947   2951     1  0.0000000  0.0000000  3
   2948   2946   2947   2960     1  0.0000000  1.0460000  1
   2948   2946   2947   2960     1  0.0000000  0.0000000  3
   2948   2946   2947   2950     1  0.0000000  0.6508444  3
   2948   2946   2965   2955     1  0.0000000  1.2552000  3
   2948   2946   2945   2952     1  0.0000000  1.0460000  1
   2948   2946   2945   2952     1  0.0000000  0.0000000  3
   2948   2946   2945   2949     1  0.0000000  0.6508444  3
   2949   2945   2946   2965     1  0.0000000  0.6508444  3
   2949   2945   2952   2954     1  0.0000000  0.6973333  3
   2949   2945   2943   2963     1  0.0000000  1.0460000  1
   2949   2945   2943   2963     1  0.0000000  0.0000000  3
   2949   2945   2943   2962     1  0.0000000  0.6508444  3
   2950   2947   2951   2961     1  0.0000000  0.6973333  3
   2950   2947   2946   2965     1  0.0000000  0.6508444  3
   2952   2945   2943   2962     1  0.0000000  1.0460000  1
   2952   2945   2943   2962     1  0.0000000  0.0000000  3
   2953   2942   2943   2962     1  0.0000000  0.6508444  3
   2956   2953   2958   2959     1  0.0000000  0.6973333  3
   2956   2953   2942   2960     1  0.0000000  1.0460000  1
   2956   2953   2942   2960     1  0.0000000  0.0000000  3
   2957   2953   2958   2959     1  0.0000000  0.6973333  3
   2957   2953   2942   2960     1  0.0000000  1.0460000  1
   2957   2953   2942   2960     1  0.0000000  0.0000000  3
   2960   2947   2951   2961     1  0.0000000  0.6973333  3
   2960   2942   2943   2962     1  0.0000000  1.0460000  1
   2960   2942   2943   2962     1  0.0000000  0.0000000  3
   2962   2943   2963   2964     1  0.0000000  0.6973333  3
   2966   2967   2969   2973     1  0.0000000  0.6508444  3
   2966   2967   2987   2988     1  0.0000000  1.0460000  1
   2966   2967   2987   2988     1  0.0000000  0.6694400  3
   2966   2977   2982   2983     1  0.0000000  1.0460000  1
   2966   2977   2982   2983     1  0.0000000  0.6694400  3
   2966   2984   2971   2974     1  0.0000000  1.6038667  3
   2967   2969   2970   2972     1  0.0000000  0.6508444  3
   2967   2969   2976   2978     1  0.0000000  1.0460000  1
   2967   2969   2976   2978     1  0.0000000  0.6694400  3
   2967   2966   2977   2980     1  0.0000000  0.6508444  3
   2967   2966   2977   2981     1  0.0000000  0.6508444  3
   2968   2966   2967   2969     1  0.0000000  0.6508444  3
   2968   2966   2967   2987     1  0.0000000  1.0460000  1
   2968   2966   2967   2987     1  0.0000000  0.0000000  3
   2968   2966   2967   2986     1  0.0000000  0.6508444  3
   2968   2966   2977   2982     1  0.0000000  1.0460000  1
   2968   2966   2977   2982     1  0.0000000  0.0000000  3
   2968   2966   2977   2980     1  0.0000000  0.6508444  3
   2968   2966   2977   2981     1  0.0000000  0.6508444  3
   2968   2966   2984   2971     1  0.0000000  1.6038667  3
   2969   2970   2971   2974     1  0.0000000  0.6508444  3
   2969   2970   2989   2979     1  0.0000000  1.2552000  3
   2969   2967   2987   2988     1  0.0000000  1.0460000  1
   2969   2967   2987   2988     1  0.0000000  0.6694400  3
   2970   2971   2975   2985     1  0.0000000  1.0460000  1
   2970   2971   2975   2985     1  0.0000000  0.6694400  3
   2970   2969   2976   2978     1  0.0000000  1.0460000  1
   2970   2969   2976   2978     1  0.0000000  0.6694400  3
   2970   2969   2967   2986     1  0.0000000  0.6508444  3
   2971   2970   2989   2979     1  0.0000000  1.2552000  3
   2971   2970   2969   2973     1  0.0000000  0.6508444  3
   2972   2970   2971   2975     1  0.0000000  1.0460000  1
   2972   2970   2971   2975     1  0.0000000  0.0000000  3
   2972   2970   2971   2984     1  0.0000000  1.0460000  1
   2972   2970   2971   2984     1  0.0000000  0.0000000  3
   2972   2970   2971   2974     1  0.0000000  0.6508444  3
   2972   2970   2989   2979     1  0.0000000  1.2552000  3
   2972   2970   2969   2976     1  0.0000000  1.0460000  1
   2972   2970   2969   2976     1  0.0000000  0.0000000  3
   2972   2970   2969   2973     1  0.0000000  0.6508444  3
   2973   2969   2970   2989     1  0.0000000  0.6508444  3
   2973   2969   2976   2978     1  0.0000000  0.6973333  3
   2973   2969   2967   2987     1  0.0000000  1.0460000  1
   2973   2969   2967   2987     1  0.0000000  0.0000000  3
   2973   2969   2967   2986     1  0.0000000  0.6508444  3
   2974   2971   2975   2985     1  0.0000000  0.6973333  3
   2974   2971   2970   2989     1  0.0000000  0.6508444  3
   2976   2969   2967   2986     1  0.0000000  1.0460000  1
   2976   2969   2967   2986     1  0.0000000  0.0000000  3
   2977   2966   2967   2986     1  0.0000000  0.6508444  3
   2980   2977   2982   2983     1  0.0000000  0.6973333  3
   2980   2977   2966   2984     1  0.0000000  1.0460000  1
   2980   2977   2966   2984     1  0.0000000  0.0000000  3
   2981   2977   2982   2983     1  0.0000000  0.6973333  3
   2981   2977   2966   2984     1  0.0000000  1.0460000  1
   2981   2977   2966   2984     1  0.0000000  0.0000000  3
   2984   2971   2975   2985     1  0.0000000  0.6973333  3
   2984   2966   2967   2986     1  0.0000000  1.0460000  1
   2984   2966   2967   2986     1  0.0000000  0.0000000  3
   2986   2967   2987   2988     1  0.0000000  0.6973333  3
   2991   2993   2995   2997     1  0.0000000  0.6508444  3
   2991   2993   2995   2998     1  0.0000000  0.6508444  3
   2992   2991   2993   2995     1  0.0000000  0.0000000  2
   2992   2991   2993   2994     1  0.0000000  0.0000000  2
   2992   2991   2993   2996     1  0.0000000  0.0000000  2
   2993   2995   2999   3064     1  0.0000000  0.6508444  3
   2994   2993   2995   2999     1  0.0000000  0.6508444  3
   2994   2993   2995   2997     1  0.0000000  0.6508444  3
   2994   2993   2995   2998     1  0.0000000  0.6508444  3
   2995   2999   3000   3009     1  0.0000000  0.6508444  3
   2995   2999   3000   3010     1  0.0000000  0.6508444  3
   2995   2999   3001   3002     1  0.0000000  0.6508444  3
   2995   2999   3001   3004     1  0.0000000  0.6508444  3
   2996   2993   2995   2999     1  0.0000000  0.6508444  3
   2996   2993   2995   2997     1  0.0000000  0.6508444  3
   2996   2993   2995   2998     1  0.0000000  0.6508444  3
   2997   2995   2999   3000     1  0.0000000  0.6508444  3
   2997   2995   2999   3001     1  0.0000000  0.6508444  3
   2997   2995   2999   3064     1  0.0000000  0.6508444  3
   2998   2995   2999   3000     1  0.0000000  0.6508444  3
   2998   2995   2999   3001     1  0.0000000  0.6508444  3
   2998   2995   2999   3064     1  0.0000000  0.6508444  3
   2999   3000   3011   3012     1  0.0000000  0.6508444  3
   2999   3000   3011   3013     1  0.0000000  0.6508444  3
   2999   3001   3003   3005     1  0.0000000  0.6508444  3
   2999   3001   3003   3006     1  0.0000000  0.6508444  3
   3000   2999   3001   3002     1  0.0000000  0.6508444  3
   3000   2999   3001   3004     1  0.0000000  0.6508444  3
   3001   2999   3000   3009     1  0.0000000  0.6508444  3
   3001   2999   3000   3010     1  0.0000000  0.6508444  3
   3002   3001   2999   3064     1  0.0000000  0.6508444  3
   3002   3001   3003   3007     1  0.0000000  0.6508444  3
   3002   3001   3003   3005     1  0.0000000  0.6508444  3
   3002   3001   3003   3006     1  0.0000000  0.6508444  3
   3003   3001   2999   3064     1  0.0000000  0.6508444  3
   3003   3007   3039   3029     1  180.0000771  6.0668000  2
   3003   3007   3039   3029     1  180.0000771  1.4644000  4
   3004   3001   2999   3064     1  0.0000000  0.6508444  3
   3004   3001   3003   3007     1  0.0000000  0.6508444  3
   3004   3001   3003   3005     1  0.0000000  0.6508444  3
   3004   3001   3003   3006     1  0.0000000  0.6508444  3
   3005   3003   3007   3008     1  0.0000000  3.3472000  1
   3005   3003   3007   3008     1  0.0000000  0.0000000  2
   3005   3003   3007   3008     1  180.0000771  0.3347200  3
   3005   3003   3007   3039     1  180.0000771  0.0000000  2
   3006   3003   3007   3008     1  0.0000000  3.3472000  1
   3006   3003   3007   3008     1  0.0000000  0.0000000  2
   3006   3003   3007   3008     1  180.0000771  0.3347200  3
   3006   3003   3007   3039     1  180.0000771  0.0000000  2
   3007   3039   3020   3022     1  0.0000000  1.2552000  3
   3008   3007   3039   3029     1  180.0000771  6.0668000  2
   3008   3007   3039   3029     1  180.0000771  1.4644000  4
   3009   3000   2999   3064     1  0.0000000  0.6508444  3
   3009   3000   3011   3014     1  0.0000000  0.6508444  3
   3009   3000   3011   3012     1  0.0000000  0.6508444  3
   3009   3000   3011   3013     1  0.0000000  0.6508444  3
   3010   3000   2999   3064     1  0.0000000  0.6508444  3
   3010   3000   3011   3014     1  0.0000000  0.6508444  3
   3010   3000   3011   3012     1  0.0000000  0.6508444  3
   3010   3000   3011   3013     1  0.0000000  0.6508444  3
   3011   3000   2999   3064     1  0.0000000  0.6508444  3
   3011   3014   3063   3053     1  180.0000771  6.0668000  2
   3011   3014   3063   3053     1  180.0000771  1.4644000  4
   3012   3011   3014   3015     1  0.0000000  3.3472000  1
   3012   3011   3014   3015     1  0.0000000  0.0000000  2
   3012   3011   3014   3015     1  180.0000771  0.3347200  3
   3012   3011   3014   3063     1  180.0000771  0.0000000  2
   3013   3011   3014   3015     1  0.0000000  3.3472000  1
   3013   3011   3014   3015     1  0.0000000  0.0000000  2
   3013   3011   3014   3015     1  180.0000771  0.3347200  3
   3013   3011   3014   3063     1  180.0000771  0.0000000  2
   3014   3063   3044   3046     1  0.0000000  1.2552000  3
   3015   3014   3063   3053     1  180.0000771  6.0668000  2
   3015   3014   3063   3053     1  180.0000771  1.4644000  4
   3016   3017   3019   3023     1  0.0000000  0.6508444  3
   3016   3017   3037   3038     1  0.0000000  1.0460000  1
   3016   3017   3037   3038     1  0.0000000  0.6694400  3
   3016   3027   3032   3033     1  0.0000000  1.0460000  1
   3016   3027   3032   3033     1  0.0000000  0.6694400  3
   3016   3034   3021   3024     1  0.0000000  1.6038667  3
   3017   3016   3027   3030     1  0.0000000  0.6508444  3
   3017   3016   3027   3031     1  0.0000000  0.6508444  3
   3017   3019   3020   3022     1  0.0000000  0.6508444  3
   3017   3019   3026   3028     1  0.0000000  1.0460000  1
   3017   3019   3026   3028     1  0.0000000  0.6694400  3
   3018   3016   3017   3019     1  0.0000000  0.6508444  3
   3018   3016   3017   3037     1  0.0000000  1.0460000  1
   3018   3016   3017   3037     1  0.0000000  0.0000000  3
   3018   3016   3017   3036     1  0.0000000  0.6508444  3
   3018   3016   3027   3032     1  0.0000000  1.0460000  1
   3018   3016   3027   3032     1  0.0000000  0.0000000  3
   3018   3016   3027   3030     1  0.0000000  0.6508444  3
   3018   3016   3027   3031     1  0.0000000  0.6508444  3
   3018   3016   3034   3021     1  0.0000000  1.6038667  3
   3019   3017   3037   3038     1  0.0000000  1.0460000  1
   3019   3017   3037   3038     1  0.0000000  0.6694400  3
   3019   3020   3021   3024     1  0.0000000  0.6508444  3
   3019   3020   3039   3029     1  0.0000000  1.2552000  3
   3020   3019   3017   3036     1  0.0000000  0.6508444  3
   3020   3019   3026   3028     1  0.0000000  1.0460000  1
   3020   3019   3026   3028     1  0.0000000  0.6694400  3
   3020   3021   3025   3035     1  0.0000000  1.0460000  1
   3020   3021   3025   3035     1  0.0000000  0.6694400  3
   3021   3020   3019   3023     1  0.0000000  0.6508444  3
   3021   3020   3039   3029     1  0.0000000  1.2552000  3
   3022   3020   3019   3026     1  0.0000000  1.0460000  1
   3022   3020   3019   3026     1  0.0000000  0.0000000  3
   3022   3020   3019   3023     1  0.0000000  0.6508444  3
   3022   3020   3021   3025     1  0.0000000  1.0460000  1
   3022   3020   3021   3025     1  0.0000000  0.0000000  3
   3022   3020   3021   3034     1  0.0000000  1.0460000  1
   3022   3020   3021   3034     1  0.0000000  0.0000000  3
   3022   3020   3021   3024     1  0.0000000  0.6508444  3
   3022   3020   3039   3029     1  0.0000000  1.2552000  3
   3023   3019   3017   3037     1  0.0000000  1.0460000  1
   3023   3019   3017   3037     1  0.0000000  0.0000000  3
   3023   3019   3017   3036     1  0.0000000  0.6508444  3
   3023   3019   3020   3039     1  0.0000000  0.6508444  3
   3023   3019   3026   3028     1  0.0000000  0.6973333  3
   3024   3021   3020   3039     1  0.0000000  0.6508444  3
   3024   3021   3025   3035     1  0.0000000  0.6973333  3
   3026   3019   3017   3036     1  0.0000000  1.0460000  1
   3026   3019   3017   3036     1  0.0000000  0.0000000  3
   3027   3016   3017   3036     1  0.0000000  0.6508444  3
   3030   3027   3016   3034     1  0.0000000  1.0460000  1
   3030   3027   3016   3034     1  0.0000000  0.0000000  3
   3030   3027   3032   3033     1  0.0000000  0.6973333  3
   3031   3027   3016   3034     1  0.0000000  1.0460000  1
   3031   3027   3016   3034     1  0.0000000  0.0000000  3
   3031   3027   3032   3033     1  0.0000000  0.6973333  3
   3034   3016   3017   3036     1  0.0000000  1.0460000  1
   3034   3016   3017   3036     1  0.0000000  0.0000000  3
   3034   3021   3025   3035     1  0.0000000  0.6973333  3
   3036   3017   3037   3038     1  0.0000000  0.6973333  3
   3040   3041   3043   3047     1  0.0000000  0.6508444  3
   3040   3041   3061   3062     1  0.0000000  1.0460000  1
   3040   3041   3061   3062     1  0.0000000  0.6694400  3
   3040   3051   3056   3057     1  0.0000000  1.0460000  1
   3040   3051   3056   3057     1  0.0000000  0.6694400  3
   3040   3058   3045   3048     1  0.0000000  1.6038667  3
   3041   3040   3051   3054     1  0.0000000  0.6508444  3
   3041   3040   3051   3055     1  0.0000000  0.6508444  3
   3041   3043   3044   3046     1  0.0000000  0.6508444  3
   3041   3043   3050   3052     1  0.0000000  1.0460000  1
   3041   3043   3050   3052     1  0.0000000  0.6694400  3
   3042   3040   3041   3043     1  0.0000000  0.6508444  3
   3042   3040   3041   3061     1  0.0000000  1.0460000  1
   3042   3040   3041   3061     1  0.0000000  0.0000000  3
   3042   3040   3041   3060     1  0.0000000  0.6508444  3
   3042   3040   3051   3056     1  0.0000000  1.0460000  1
   3042   3040   3051   3056     1  0.0000000  0.0000000  3
   3042   3040   3051   3054     1  0.0000000  0.6508444  3
   3042   3040   3051   3055     1  0.0000000  0.6508444  3
   3042   3040   3058   3045     1  0.0000000  1.6038667  3
   3043   3041   3061   3062     1  0.0000000  1.0460000  1
   3043   3041   3061   3062     1  0.0000000  0.6694400  3
   3043   3044   3045   3048     1  0.0000000  0.6508444  3
   3043   3044   3063   3053     1  0.0000000  1.2552000  3
   3044   3043   3041   3060     1  0.0000000  0.6508444  3
   3044   3043   3050   3052     1  0.0000000  1.0460000  1
   3044   3043   3050   3052     1  0.0000000  0.6694400  3
   3044   3045   3049   3059     1  0.0000000  1.0460000  1
   3044   3045   3049   3059     1  0.0000000  0.6694400  3
   3045   3044   3043   3047     1  0.0000000  0.6508444  3
   3045   3044   3063   3053     1  0.0000000  1.2552000  3
   3046   3044   3043   3050     1  0.0000000  1.0460000  1
   3046   3044   3043   3050     1  0.0000000  0.0000000  3
   3046   3044   3043   3047     1  0.0000000  0.6508444  3
   3046   3044   3045   3049     1  0.0000000  1.0460000  1
   3046   3044   3045   3049     1  0.0000000  0.0000000  3
   3046   3044   3045   3058     1  0.0000000  1.0460000  1
   3046   3044   3045   3058     1  0.0000000  0.0000000  3
   3046   3044   3045   3048     1  0.0000000  0.6508444  3
   3046   3044   3063   3053     1  0.0000000  1.2552000  3
   3047   3043   3041   3061     1  0.0000000  1.0460000  1
   3047   3043   3041   3061     1  0.0000000  0.0000000  3
   3047   3043   3041   3060     1  0.0000000  0.6508444  3
   3047   3043   3044   3063     1  0.0000000  0.6508444  3
   3047   3043   3050   3052     1  0.0000000  0.6973333  3
   3048   3045   3044   3063     1  0.0000000  0.6508444  3
   3048   3045   3049   3059     1  0.0000000  0.6973333  3
   3050   3043   3041   3060     1  0.0000000  1.0460000  1
   3050   3043   3041   3060     1  0.0000000  0.0000000  3
   3051   3040   3041   3060     1  0.0000000  0.6508444  3
   3054   3051   3040   3058     1  0.0000000  1.0460000  1
   3054   3051   3040   3058     1  0.0000000  0.0000000  3
   3054   3051   3056   3057     1  0.0000000  0.6973333  3
   3055   3051   3040   3058     1  0.0000000  1.0460000  1
   3055   3051   3040   3058     1  0.0000000  0.0000000  3
   3055   3051   3056   3057     1  0.0000000  0.6973333  3
   3058   3040   3041   3060     1  0.0000000  1.0460000  1
   3058   3040   3041   3060     1  0.0000000  0.0000000  3
   3058   3045   3049   3059     1  0.0000000  0.6973333  3
   3060   3041   3061   3062     1  0.0000000  0.6973333  3
   3065   3067   3069   3071     1  0.0000000  0.6508444  3
   3065   3067   3069   3072     1  0.0000000  0.6508444  3
   3066   3065   3067   3069     1  0.0000000  0.0000000  2
   3066   3065   3067   3068     1  0.0000000  0.0000000  2
   3066   3065   3067   3070     1  0.0000000  0.0000000  2
   3067   3069   3073   3138     1  0.0000000  0.6508444  3
   3068   3067   3069   3073     1  0.0000000  0.6508444  3
   3068   3067   3069   3071     1  0.0000000  0.6508444  3
   3068   3067   3069   3072     1  0.0000000  0.6508444  3
   3069   3073   3074   3083     1  0.0000000  0.6508444  3
   3069   3073   3074   3084     1  0.0000000  0.6508444  3
   3069   3073   3075   3076     1  0.0000000  0.6508444  3
   3069   3073   3075   3078     1  0.0000000  0.6508444  3
   3070   3067   3069   3073     1  0.0000000  0.6508444  3
   3070   3067   3069   3071     1  0.0000000  0.6508444  3
   3070   3067   3069   3072     1  0.0000000  0.6508444  3
   3071   3069   3073   3074     1  0.0000000  0.6508444  3
   3071   3069   3073   3075     1  0.0000000  0.6508444  3
   3071   3069   3073   3138     1  0.0000000  0.6508444  3
   3072   3069   3073   3074     1  0.0000000  0.6508444  3
   3072   3069   3073   3075     1  0.0000000  0.6508444  3
   3072   3069   3073   3138     1  0.0000000  0.6508444  3
   3073   3074   3085   3086     1  0.0000000  0.6508444  3
   3073   3074   3085   3087     1  0.0000000  0.6508444  3
   3073   3075   3077   3079     1  0.0000000  0.6508444  3
   3073   3075   3077   3080     1  0.0000000  0.6508444  3
   3074   3073   3075   3076     1  0.0000000  0.6508444  3
   3074   3073   3075   3078     1  0.0000000  0.6508444  3
   3075   3073   3074   3083     1  0.0000000  0.6508444  3
   3075   3073   3074   3084     1  0.0000000  0.6508444  3
   3076   3075   3077   3081     1  0.0000000  0.6508444  3
   3076   3075   3077   3079     1  0.0000000  0.6508444  3
   3076   3075   3077   3080     1  0.0000000  0.6508444  3
   3076   3075   3073   3138     1  0.0000000  0.6508444  3
   3077   3081   3113   3103     1  180.0000771  6.0668000  2
   3077   3081   3113   3103     1  180.0000771  1.4644000  4
   3077   3075   3073   3138     1  0.0000000  0.6508444  3
   3078   3075   3077   3081     1  0.0000000  0.6508444  3
   3078   3075   3077   3079     1  0.0000000  0.6508444  3
   3078   3075   3077   3080     1  0.0000000  0.6508444  3
   3078   3075   3073   3138     1  0.0000000  0.6508444  3
   3079   3077   3081   3082     1  0.0000000  3.3472000  1
   3079   3077   3081   3082     1  0.0000000  0.0000000  2
   3079   3077   3081   3082     1  180.0000771  0.3347200  3
   3079   3077   3081   3113     1  180.0000771  0.0000000  2
   3080   3077   3081   3082     1  0.0000000  3.3472000  1
   3080   3077   3081   3082     1  0.0000000  0.0000000  2
   3080   3077   3081   3082     1  180.0000771  0.3347200  3
   3080   3077   3081   3113     1  180.0000771  0.0000000  2
   3081   3113   3094   3096     1  0.0000000  1.2552000  3
   3082   3081   3113   3103     1  180.0000771  6.0668000  2
   3082   3081   3113   3103     1  180.0000771  1.4644000  4
   3083   3074   3085   3088     1  0.0000000  0.6508444  3
   3083   3074   3085   3086     1  0.0000000  0.6508444  3
   3083   3074   3085   3087     1  0.0000000  0.6508444  3
   3083   3074   3073   3138     1  0.0000000  0.6508444  3
   3084   3074   3085   3088     1  0.0000000  0.6508444  3
   3084   3074   3085   3086     1  0.0000000  0.6508444  3
   3084   3074   3085   3087     1  0.0000000  0.6508444  3
   3084   3074   3073   3138     1  0.0000000  0.6508444  3
   3085   3088   3137   3127     1  180.0000771  6.0668000  2
   3085   3088   3137   3127     1  180.0000771  1.4644000  4
   3085   3074   3073   3138     1  0.0000000  0.6508444  3
   3086   3085   3088   3089     1  0.0000000  3.3472000  1
   3086   3085   3088   3089     1  0.0000000  0.0000000  2
   3086   3085   3088   3089     1  180.0000771  0.3347200  3
   3086   3085   3088   3137     1  180.0000771  0.0000000  2
   3087   3085   3088   3089     1  0.0000000  3.3472000  1
   3087   3085   3088   3089     1  0.0000000  0.0000000  2
   3087   3085   3088   3089     1  180.0000771  0.3347200  3
   3087   3085   3088   3137     1  180.0000771  0.0000000  2
   3088   3137   3118   3120     1  0.0000000  1.2552000  3
   3089   3088   3137   3127     1  180.0000771  6.0668000  2
   3089   3088   3137   3127     1  180.0000771  1.4644000  4
   3090   3091   3093   3097     1  0.0000000  0.6508444  3
   3090   3091   3111   3112     1  0.0000000  1.0460000  1
   3090   3091   3111   3112     1  0.0000000  0.6694400  3
   3090   3101   3106   3107     1  0.0000000  1.0460000  1
   3090   3101   3106   3107     1  0.0000000  0.6694400  3
   3090   3108   3095   3098     1  0.0000000  1.6038667  3
   3091   3093   3094   3096     1  0.0000000  0.6508444  3
   3091   3093   3100   3102     1  0.0000000  1.0460000  1
   3091   3093   3100   3102     1  0.0000000  0.6694400  3
   3091   3090   3101   3104     1  0.0000000  0.6508444  3
   3091   3090   3101   3105     1  0.0000000  0.6508444  3
   3092   3090   3091   3093     1  0.0000000  0.6508444  3
   3092   3090   3091   3111     1  0.0000000  1.0460000  1
   3092   3090   3091   3111     1  0.0000000  0.0000000  3
   3092   3090   3091   3110     1  0.0000000  0.6508444  3
   3092   3090   3101   3106     1  0.0000000  1.0460000  1
   3092   3090   3101   3106     1  0.0000000  0.0000000  3
   3092   3090   3101   3104     1  0.0000000  0.6508444  3
   3092   3090   3101   3105     1  0.0000000  0.6508444  3
   3092   3090   3108   3095     1  0.0000000  1.6038667  3
   3093   3094   3095   3098     1  0.0000000  0.6508444  3
   3093   3094   3113   3103     1  0.0000000  1.2552000  3
   3093   3091   3111   3112     1  0.0000000  1.0460000  1
   3093   3091   3111   3112     1  0.0000000  0.6694400  3
   3094   3095   3099   3109     1  0.0000000  1.0460000  1
   3094   3095   3099   3109     1  0.0000000  0.6694400  3
   3094   3093   3100   3102     1  0.0000000  1.0460000  1
   3094   3093   3100   3102     1  0.0000000  0.6694400  3
   3094   3093   3091   3110     1  0.0000000  0.6508444  3
   3095   3094   3113   3103     1  0.0000000  1.2552000  3
   3095   3094   3093   3097     1  0.0000000  0.6508444  3
   3096   3094   3095   3099     1  0.0000000  1.0460000  1
   3096   3094   3095   3099     1  0.0000000  0.0000000  3
   3096   3094   3095   3108     1  0.0000000  1.0460000  1
   3096   3094   3095   3108     1  0.0000000  0.0000000  3
   3096   3094   3095   3098     1  0.0000000  0.6508444  3
   3096   3094   3113   3103     1  0.0000000  1.2552000  3
   3096   3094   3093   3100     1  0.0000000  1.0460000  1
   3096   3094   3093   3100     1  0.0000000  0.0000000  3
   3096   3094   3093   3097     1  0.0000000  0.6508444  3
   3097   3093   3094   3113     1  0.0000000  0.6508444  3
   3097   3093   3100   3102     1  0.0000000  0.6973333  3
   3097   3093   3091   3111     1  0.0000000  1.0460000  1
   3097   3093   3091   3111     1  0.0000000  0.0000000  3
   3097   3093   3091   3110     1  0.0000000  0.6508444  3
   3098   3095   3099   3109     1  0.0000000  0.6973333  3
   3098   3095   3094   3113     1  0.0000000  0.6508444  3
   3100   3093   3091   3110     1  0.0000000  1.0460000  1
   3100   3093   3091   3110     1  0.0000000  0.0000000  3
   3101   3090   3091   3110     1  0.0000000  0.6508444  3
   3104   3101   3106   3107     1  0.0000000  0.6973333  3
   3104   3101   3090   3108     1  0.0000000  1.0460000  1
   3104   3101   3090   3108     1  0.0000000  0.0000000  3
   3105   3101   3106   3107     1  0.0000000  0.6973333  3
   3105   3101   3090   3108     1  0.0000000  1.0460000  1
   3105   3101   3090   3108     1  0.0000000  0.0000000  3
   3108   3095   3099   3109     1  0.0000000  0.6973333  3
   3108   3090   3091   3110     1  0.0000000  1.0460000  1
   3108   3090   3091   3110     1  0.0000000  0.0000000  3
   3110   3091   3111   3112     1  0.0000000  0.6973333  3
   3114   3115   3117   3121     1  0.0000000  0.6508444  3
   3114   3115   3135   3136     1  0.0000000  1.0460000  1
   3114   3115   3135   3136     1  0.0000000  0.6694400  3
   3114   3125   3130   3131     1  0.0000000  1.0460000  1
   3114   3125   3130   3131     1  0.0000000  0.6694400  3
   3114   3132   3119   3122     1  0.0000000  1.6038667  3
   3115   3117   3118   3120     1  0.0000000  0.6508444  3
   3115   3117   3124   3126     1  0.0000000  1.0460000  1
   3115   3117   3124   3126     1  0.0000000  0.6694400  3
   3115   3114   3125   3128     1  0.0000000  0.6508444  3
   3115   3114   3125   3129     1  0.0000000  0.6508444  3
   3116   3114   3115   3117     1  0.0000000  0.6508444  3
   3116   3114   3115   3135     1  0.0000000  1.0460000  1
   3116   3114   3115   3135     1  0.0000000  0.0000000  3
   3116   3114   3115   3134     1  0.0000000  0.6508444  3
   3116   3114   3125   3130     1  0.0000000  1.0460000  1
   3116   3114   3125   3130     1  0.0000000  0.0000000  3
   3116   3114   3125   3128     1  0.0000000  0.6508444  3
   3116   3114   3125   3129     1  0.0000000  0.6508444  3
   3116   3114   3132   3119     1  0.0000000  1.6038667  3
   3117   3118   3119   3122     1  0.0000000  0.6508444  3
   3117   3118   3137   3127     1  0.0000000  1.2552000  3
   3117   3115   3135   3136     1  0.0000000  1.0460000  1
   3117   3115   3135   3136     1  0.0000000  0.6694400  3
   3118   3119   3123   3133     1  0.0000000  1.0460000  1
   3118   3119   3123   3133     1  0.0000000  0.6694400  3
   3118   3117   3124   3126     1  0.0000000  1.0460000  1
   3118   3117   3124   3126     1  0.0000000  0.6694400  3
   3118   3117   3115   3134     1  0.0000000  0.6508444  3
   3119   3118   3137   3127     1  0.0000000  1.2552000  3
   3119   3118   3117   3121     1  0.0000000  0.6508444  3
   3120   3118   3119   3123     1  0.0000000  1.0460000  1
   3120   3118   3119   3123     1  0.0000000  0.0000000  3
   3120   3118   3119   3132     1  0.0000000  1.0460000  1
   3120   3118   3119   3132     1  0.0000000  0.0000000  3
   3120   3118   3119   3122     1  0.0000000  0.6508444  3
   3120   3118   3137   3127     1  0.0000000  1.2552000  3
   3120   3118   3117   3124     1  0.0000000  1.0460000  1
   3120   3118   3117   3124     1  0.0000000  0.0000000  3
   3120   3118   3117   3121     1  0.0000000  0.6508444  3
   3121   3117   3118   3137     1  0.0000000  0.6508444  3
   3121   3117   3124   3126     1  0.0000000  0.6973333  3
   3121   3117   3115   3135     1  0.0000000  1.0460000  1
   3121   3117   3115   3135     1  0.0000000  0.0000000  3
   3121   3117   3115   3134     1  0.0000000  0.6508444  3
   3122   3119   3123   3133     1  0.0000000  0.6973333  3
   3122   3119   3118   3137     1  0.0000000  0.6508444  3
   3124   3117   3115   3134     1  0.0000000  1.0460000  1
   3124   3117   3115   3134     1  0.0000000  0.0000000  3
   3125   3114   3115   3134     1  0.0000000  0.6508444  3
   3128   3125   3130   3131     1  0.0000000  0.6973333  3
   3128   3125   3114   3132     1  0.0000000  1.0460000  1
   3128   3125   3114   3132     1  0.0000000  0.0000000  3
   3129   3125   3130   3131     1  0.0000000  0.6973333  3
   3129   3125   3114   3132     1  0.0000000  1.0460000  1
   3129   3125   3114   3132     1  0.0000000  0.0000000  3
   3132   3119   3123   3133     1  0.0000000  0.6973333  3
   3132   3114   3115   3134     1  0.0000000  1.0460000  1
   3132   3114   3115   3134     1  0.0000000  0.0000000  3
   3134   3115   3135   3136     1  0.0000000  0.6973333  3
     10     51     52     67     4  180.0000771  4.6024000  2
     12     77     78     93     4  180.0000771  4.6024000  2
     14    103    104    119     4  180.0000771  4.6024000  2
     16    129    130    145     4  180.0000771  4.6024000  2
     47    155    156    171     4  180.0000771  4.6024000  2
     49    181    182    197     4  180.0000771  4.6024000  2
     73    207    208    223     4  180.0000771  4.6024000  2
     75    233    234    249     4  180.0000771  4.6024000  2
     99    259    260    275     4  180.0000771  4.6024000  2
    101    285    286    301     4  180.0000771  4.6024000  2
    125    311    312    327     4  180.0000771  4.6024000  2
    127    337    338    353     4  180.0000771  4.6024000  2
    151    363    364    379     4  180.0000771  4.6024000  2
    153    389    390    405     4  180.0000771  4.6024000  2
    177    415    416    431     4  180.0000771  4.6024000  2
    179    441    442    457     4  180.0000771  4.6024000  2
    203    467    468    483     4  180.0000771  4.6024000  2
    205    493    494    509     4  180.0000771  4.6024000  2
    229    519    520    535     4  180.0000771  4.6024000  2
    231    545    546    561     4  180.0000771  4.6024000  2
    255    571    572    587     4  180.0000771  4.6024000  2
    257    597    598    613     4  180.0000771  4.6024000  2
    281    623    624    639     4  180.0000771  4.6024000  2
    283    649    650    665     4  180.0000771  4.6024000  2
    307    675    676    691     4  180.0000771  4.6024000  2
    309    701    702    717     4  180.0000771  4.6024000  2
    333    727    728    743     4  180.0000771  4.6024000  2
    335    753    754    769     4  180.0000771  4.6024000  2
    359    773    771    772     4  180.0000771  4.6024000  2
    361    847    845    846     4  180.0000771  4.6024000  2
    385    921    919    920     4  180.0000771  4.6024000  2
    387    995    993    994     4  180.0000771  4.6024000  2
    411   1069   1067   1068     4  180.0000771  4.6024000  2
    413   1143   1141   1142     4  180.0000771  4.6024000  2
    437   1217   1215   1216     4  180.0000771  4.6024000  2
    439   1291   1289   1290     4  180.0000771  4.6024000  2
    463   1365   1363   1364     4  180.0000771  4.6024000  2
    465   1439   1437   1438     4  180.0000771  4.6024000  2
    489   1513   1511   1512     4  180.0000771  4.6024000  2
    491   1587   1585   1586     4  180.0000771  4.6024000  2
    515   1661   1659   1660     4  180.0000771  4.6024000  2
    517   1735   1733   1734     4  180.0000771  4.6024000  2
    541   1809   1807   1808     4  180.0000771  4.6024000  2
    543   1883   1881   1882     4  180.0000771  4.6024000  2
    567   1957   1955   1956     4  180.0000771  4.6024000  2
    569   2031   2029   2030     4  180.0000771  4.6024000  2
    593   2105   2103   2104     4  180.0000771  4.6024000  2
    595   2179   2177   2178     4  180.0000771  4.6024000  2
    619   2253   2251   2252     4  180.0000771  4.6024000  2
    621   2327   2325   2326     4  180.0000771  4.6024000  2
    645   2401   2399   2400     4  180.0000771  4.6024000  2
    647   2475   2473   2474     4  180.0000771  4.6024000  2
    671   2549   2547   2548     4  180.0000771  4.6024000  2
    673   2623   2621   2622     4  180.0000771  4.6024000  2
    697   2697   2695   2696     4  180.0000771  4.6024000  2
    699   2771   2769   2770     4  180.0000771  4.6024000  2
    723   2845   2843   2844     4  180.0000771  4.6024000  2
    725   2919   2917   2918     4  180.0000771  4.6024000  2
    749   2993   2991   2992     4  180.0000771  4.6024000  2
    751   3067   3065   3066     4  180.0000771  4.6024000  2

;[ system ]
;; Name
;Generic title
;
;[ molecules ]
;; Compound       #mols
;system1              1
