;
;   File g4dp_pamam.itp  was generated
;   By user: sairam (1000)
;   On host: sairam
;   At date: Sat. August  6 19:26:25 2023
;
;   This is a standalone topology file
;
;   Created by:
;   ParmEd:       amb2gro_top_gro.py, VERSION 3.4.1
;   Executable:   amb2gro_top_gro.py
;   Library dir:  /usr/local/gromacs/share/gromacs/top
;   Command line:
;     ./amb2gro_top_gro.py -p g4dp_pamam.prmtop -c g4dp_pamam.inpcrd -t g4dp_pamam.itp -g g4dp_pamam.gro -b g4dp_pamam.pdb
;

;[ defaults ]
;; nbfunc        comb-rule       gen-pairs       fudgeLJ fudgeQQ
;1               2               yes             0.5          0.83333333  
;
;[ atomtypes ]
;; name    at.num    mass    charge ptype  sigma      epsilon
;n4             7  14.010000  0.00000000  A     0.32499985        0.71128
;c3             6  12.010000  0.00000000  A     0.33996695      0.4577296
;c              6  12.010000  0.00000000  A     0.33996695       0.359824
;o              8  16.000000  0.00000000  A     0.29599219        0.87864
;hx             1   1.008000  0.00000000  A     0.19599772      0.0656888
;hc             1   1.008000  0.00000000  A     0.26495328      0.0656888
;hn             1   1.008000  0.00000000  A     0.10690785      0.0656888
;n              7  14.010000  0.00000000  A     0.32499985        0.71128
;h1             1   1.008000  0.00000000  A      0.2471353      0.0656888


[ moleculetype ]
; Name            nrexcl
g4dp_pamam       3

[ atoms ]
;   nr       type  resnr residue  atom   cgnr    charge       mass  typeB    chargeB      massB
; residue    1 aaa rtp aaa q 2.0
    1         n4      1    aaa     N1      1 -0.01815100  14.010000   ; qtot -0.018151
    2         c3      1    aaa     C1      2 0.01243000  12.010000   ; qtot -0.005721
    3         c3      1    aaa     C2      3 0.01243000  12.010000   ; qtot 0.006709
    4         n4      1    aaa     N2      4 -0.01815100  14.010000   ; qtot -0.011442
    5         c3      1    aaa     C3      5 -0.01431700  12.010000   ; qtot -0.025759
    6         c3      1    aaa     C4      6 -0.01431700  12.010000   ; qtot -0.040076
    7         c3      1    aaa     C5      7 -0.01431700  12.010000   ; qtot -0.054393
    8         c3      1    aaa     C6      8 -0.01431700  12.010000   ; qtot -0.068710
    9         c3      1    aaa     C7      9 -0.26758200  12.010000   ; qtot -0.336292
   10          c      1    aaa     C8     10 0.71337400  12.010000   ; qtot 0.377082
   11         c3      1    aaa     C9     11 -0.26758200  12.010000   ; qtot 0.109500
   12          c      1    aaa    C10     12 0.71337400  12.010000   ; qtot 0.822874
   13         c3      1    aaa    C11     13 -0.26758200  12.010000   ; qtot 0.555292
   14          c      1    aaa    C12     14 0.71337400  12.010000   ; qtot 1.268666
   15         c3      1    aaa    C13     15 -0.26758200  12.010000   ; qtot 1.001084
   16          c      1    aaa    C14     16 0.71337400  12.010000   ; qtot 1.714458
   17          o      1    aaa     O1     17 -0.55531800  16.000000   ; qtot 1.159140
   18          o      1    aaa     O2     18 -0.55531800  16.000000   ; qtot 0.603822
   19          o      1    aaa     O3     19 -0.55531800  16.000000   ; qtot 0.048504
   20          o      1    aaa     O4     20 -0.55531800  16.000000   ; qtot -0.506814
   21         hx      1    aaa     H1     21 0.08276100   1.008000   ; qtot -0.424053
   22         hx      1    aaa     H2     22 0.08276100   1.008000   ; qtot -0.341292
   23         hx      1    aaa     H3     23 0.08276100   1.008000   ; qtot -0.258531
   24         hx      1    aaa     H4     24 0.08276100   1.008000   ; qtot -0.175770
   25         hx      1    aaa     H5     25 0.10467000   1.008000   ; qtot -0.071100
   26         hx      1    aaa     H6     26 0.10467000   1.008000   ; qtot 0.033570
   27         hx      1    aaa     H7     27 0.10467000   1.008000   ; qtot 0.138240
   28         hx      1    aaa     H8     28 0.10467000   1.008000   ; qtot 0.242910
   29         hx      1    aaa     H9     29 0.10467000   1.008000   ; qtot 0.347580
   30         hx      1    aaa    H10     30 0.10467000   1.008000   ; qtot 0.452250
   31         hx      1    aaa    H11     31 0.10467000   1.008000   ; qtot 0.556920
   32         hx      1    aaa    H12     32 0.10467000   1.008000   ; qtot 0.661590
   33         hc      1    aaa    H13     33 0.11830200   1.008000   ; qtot 0.779892
   34         hc      1    aaa    H14     34 0.11830200   1.008000   ; qtot 0.898194
   35         hc      1    aaa    H15     35 0.11830200   1.008000   ; qtot 1.016496
   36         hc      1    aaa    H16     36 0.11830200   1.008000   ; qtot 1.134798
   37         hc      1    aaa    H17     37 0.11830200   1.008000   ; qtot 1.253100
   38         hc      1    aaa    H18     38 0.11830200   1.008000   ; qtot 1.371402
   39         hc      1    aaa    H19     39 0.11830200   1.008000   ; qtot 1.489704
   40         hc      1    aaa    H20     40 0.11830200   1.008000   ; qtot 1.608006
   41         hn      1    aaa    H37     41 0.19599700   1.008000   ; qtot 1.804003
   42         hn      1    aaa    H38     42 0.19599700   1.008000   ; qtot 2.000000
; residue    2 bbb rtp bbb q 1.0
   43         n4      2    bbb     N1     43 -0.02747900  14.010000   ; qtot 1.972521
   44         c3      2    bbb     C1     44 -0.05097600  12.010000   ; qtot 1.921545
   45         c3      2    bbb     C2     45 -0.05097600  12.010000   ; qtot 1.870569
   46         c3      2    bbb     C3     46 -0.18457900  12.010000   ; qtot 1.685990
   47          c      2    bbb     C4     47 0.67254400  12.010000   ; qtot 2.358534
   48         c3      2    bbb     C5     48 -0.18457900  12.010000   ; qtot 2.173955
   49          c      2    bbb     C6     49 0.67254400  12.010000   ; qtot 2.846499
   50         c3      2    bbb     C7     50 -0.02083000  12.010000   ; qtot 2.825669
   51         c3      2    bbb     C8     51 -0.03328100  12.010000   ; qtot 2.792388
   52          n      2    bbb     N2     52 -0.33303000  14.010000   ; qtot 2.459358
   53          o      2    bbb     O1     53 -0.52917200  16.000000   ; qtot 1.930186
   54          o      2    bbb     O2     54 -0.52917200  16.000000   ; qtot 1.401014
   55         hx      2    bbb     H1     55 0.11563300   1.008000   ; qtot 1.516647
   56         hx      2    bbb     H2     56 0.11563300   1.008000   ; qtot 1.632280
   57         hx      2    bbb     H3     57 0.11563300   1.008000   ; qtot 1.747913
   58         hx      2    bbb     H4     58 0.11563300   1.008000   ; qtot 1.863546
   59         hc      2    bbb     H5     59 0.08347900   1.008000   ; qtot 1.947025
   60         hc      2    bbb     H6     60 0.08347900   1.008000   ; qtot 2.030504
   61         hc      2    bbb     H7     61 0.08347900   1.008000   ; qtot 2.113983
   62         hc      2    bbb     H8     62 0.08347900   1.008000   ; qtot 2.197462
   63         hx      2    bbb     H9     63 0.07988000   1.008000   ; qtot 2.277342
   64         hx      2    bbb    H10     64 0.07988000   1.008000   ; qtot 2.357222
   65         h1      2    bbb    H11     65 0.10618100   1.008000   ; qtot 2.463403
   66         h1      2    bbb    H12     66 0.10618100   1.008000   ; qtot 2.569584
   67         hn      2    bbb    H13     67 0.25916100   1.008000   ; qtot 2.828745
   68         hn      2    bbb    H25     68 0.17125500   1.008000   ; qtot 3.000000
; residue    3 bbb rtp bbb q 1.0
   69         n4      3    bbb     N1     69 -0.02747900  14.010000   ; qtot 2.972521
   70         c3      3    bbb     C1     70 -0.05097600  12.010000   ; qtot 2.921545
   71         c3      3    bbb     C2     71 -0.05097600  12.010000   ; qtot 2.870569
   72         c3      3    bbb     C3     72 -0.18457900  12.010000   ; qtot 2.685990
   73          c      3    bbb     C4     73 0.67254400  12.010000   ; qtot 3.358534
   74         c3      3    bbb     C5     74 -0.18457900  12.010000   ; qtot 3.173955
   75          c      3    bbb     C6     75 0.67254400  12.010000   ; qtot 3.846499
   76         c3      3    bbb     C7     76 -0.02083000  12.010000   ; qtot 3.825669
   77         c3      3    bbb     C8     77 -0.03328100  12.010000   ; qtot 3.792388
   78          n      3    bbb     N2     78 -0.33303000  14.010000   ; qtot 3.459358
   79          o      3    bbb     O1     79 -0.52917200  16.000000   ; qtot 2.930186
   80          o      3    bbb     O2     80 -0.52917200  16.000000   ; qtot 2.401014
   81         hx      3    bbb     H1     81 0.11563300   1.008000   ; qtot 2.516647
   82         hx      3    bbb     H2     82 0.11563300   1.008000   ; qtot 2.632280
   83         hx      3    bbb     H3     83 0.11563300   1.008000   ; qtot 2.747913
   84         hx      3    bbb     H4     84 0.11563300   1.008000   ; qtot 2.863546
   85         hc      3    bbb     H5     85 0.08347900   1.008000   ; qtot 2.947025
   86         hc      3    bbb     H6     86 0.08347900   1.008000   ; qtot 3.030504
   87         hc      3    bbb     H7     87 0.08347900   1.008000   ; qtot 3.113983
   88         hc      3    bbb     H8     88 0.08347900   1.008000   ; qtot 3.197462
   89         hx      3    bbb     H9     89 0.07988000   1.008000   ; qtot 3.277342
   90         hx      3    bbb    H10     90 0.07988000   1.008000   ; qtot 3.357222
   91         h1      3    bbb    H11     91 0.10618100   1.008000   ; qtot 3.463403
   92         h1      3    bbb    H12     92 0.10618100   1.008000   ; qtot 3.569584
   93         hn      3    bbb    H13     93 0.25916100   1.008000   ; qtot 3.828745
   94         hn      3    bbb    H25     94 0.17125500   1.008000   ; qtot 4.000000
; residue    4 bbb rtp bbb q 1.0
   95         n4      4    bbb     N1     95 -0.02747900  14.010000   ; qtot 3.972521
   96         c3      4    bbb     C1     96 -0.05097600  12.010000   ; qtot 3.921545
   97         c3      4    bbb     C2     97 -0.05097600  12.010000   ; qtot 3.870569
   98         c3      4    bbb     C3     98 -0.18457900  12.010000   ; qtot 3.685990
   99          c      4    bbb     C4     99 0.67254400  12.010000   ; qtot 4.358534
  100         c3      4    bbb     C5    100 -0.18457900  12.010000   ; qtot 4.173955
  101          c      4    bbb     C6    101 0.67254400  12.010000   ; qtot 4.846499
  102         c3      4    bbb     C7    102 -0.02083000  12.010000   ; qtot 4.825669
  103         c3      4    bbb     C8    103 -0.03328100  12.010000   ; qtot 4.792388
  104          n      4    bbb     N2    104 -0.33303000  14.010000   ; qtot 4.459358
  105          o      4    bbb     O1    105 -0.52917200  16.000000   ; qtot 3.930186
  106          o      4    bbb     O2    106 -0.52917200  16.000000   ; qtot 3.401014
  107         hx      4    bbb     H1    107 0.11563300   1.008000   ; qtot 3.516647
  108         hx      4    bbb     H2    108 0.11563300   1.008000   ; qtot 3.632280
  109         hx      4    bbb     H3    109 0.11563300   1.008000   ; qtot 3.747913
  110         hx      4    bbb     H4    110 0.11563300   1.008000   ; qtot 3.863546
  111         hc      4    bbb     H5    111 0.08347900   1.008000   ; qtot 3.947025
  112         hc      4    bbb     H6    112 0.08347900   1.008000   ; qtot 4.030504
  113         hc      4    bbb     H7    113 0.08347900   1.008000   ; qtot 4.113983
  114         hc      4    bbb     H8    114 0.08347900   1.008000   ; qtot 4.197462
  115         hx      4    bbb     H9    115 0.07988000   1.008000   ; qtot 4.277342
  116         hx      4    bbb    H10    116 0.07988000   1.008000   ; qtot 4.357222
  117         h1      4    bbb    H11    117 0.10618100   1.008000   ; qtot 4.463403
  118         h1      4    bbb    H12    118 0.10618100   1.008000   ; qtot 4.569584
  119         hn      4    bbb    H13    119 0.25916100   1.008000   ; qtot 4.828745
  120         hn      4    bbb    H25    120 0.17125500   1.008000   ; qtot 5.000000
; residue    5 bbb rtp bbb q 1.0
  121         n4      5    bbb     N1    121 -0.02747900  14.010000   ; qtot 4.972521
  122         c3      5    bbb     C1    122 -0.05097600  12.010000   ; qtot 4.921545
  123         c3      5    bbb     C2    123 -0.05097600  12.010000   ; qtot 4.870569
  124         c3      5    bbb     C3    124 -0.18457900  12.010000   ; qtot 4.685990
  125          c      5    bbb     C4    125 0.67254400  12.010000   ; qtot 5.358534
  126         c3      5    bbb     C5    126 -0.18457900  12.010000   ; qtot 5.173955
  127          c      5    bbb     C6    127 0.67254400  12.010000   ; qtot 5.846499
  128         c3      5    bbb     C7    128 -0.02083000  12.010000   ; qtot 5.825669
  129         c3      5    bbb     C8    129 -0.03328100  12.010000   ; qtot 5.792388
  130          n      5    bbb     N2    130 -0.33303000  14.010000   ; qtot 5.459358
  131          o      5    bbb     O1    131 -0.52917200  16.000000   ; qtot 4.930186
  132          o      5    bbb     O2    132 -0.52917200  16.000000   ; qtot 4.401014
  133         hx      5    bbb     H1    133 0.11563300   1.008000   ; qtot 4.516647
  134         hx      5    bbb     H2    134 0.11563300   1.008000   ; qtot 4.632280
  135         hx      5    bbb     H3    135 0.11563300   1.008000   ; qtot 4.747913
  136         hx      5    bbb     H4    136 0.11563300   1.008000   ; qtot 4.863546
  137         hc      5    bbb     H5    137 0.08347900   1.008000   ; qtot 4.947025
  138         hc      5    bbb     H6    138 0.08347900   1.008000   ; qtot 5.030504
  139         hc      5    bbb     H7    139 0.08347900   1.008000   ; qtot 5.113983
  140         hc      5    bbb     H8    140 0.08347900   1.008000   ; qtot 5.197462
  141         hx      5    bbb     H9    141 0.07988000   1.008000   ; qtot 5.277342
  142         hx      5    bbb    H10    142 0.07988000   1.008000   ; qtot 5.357222
  143         h1      5    bbb    H11    143 0.10618100   1.008000   ; qtot 5.463403
  144         h1      5    bbb    H12    144 0.10618100   1.008000   ; qtot 5.569584
  145         hn      5    bbb    H13    145 0.25916100   1.008000   ; qtot 5.828745
  146         hn      5    bbb    H25    146 0.17125500   1.008000   ; qtot 6.000000
; residue    6 bbb rtp bbb q 1.0
  147         n4      6    bbb     N1    147 -0.02747900  14.010000   ; qtot 5.972521
  148         c3      6    bbb     C1    148 -0.05097600  12.010000   ; qtot 5.921545
  149         c3      6    bbb     C2    149 -0.05097600  12.010000   ; qtot 5.870569
  150         c3      6    bbb     C3    150 -0.18457900  12.010000   ; qtot 5.685990
  151          c      6    bbb     C4    151 0.67254400  12.010000   ; qtot 6.358534
  152         c3      6    bbb     C5    152 -0.18457900  12.010000   ; qtot 6.173955
  153          c      6    bbb     C6    153 0.67254400  12.010000   ; qtot 6.846499
  154         c3      6    bbb     C7    154 -0.02083000  12.010000   ; qtot 6.825669
  155         c3      6    bbb     C8    155 -0.03328100  12.010000   ; qtot 6.792388
  156          n      6    bbb     N2    156 -0.33303000  14.010000   ; qtot 6.459358
  157          o      6    bbb     O1    157 -0.52917200  16.000000   ; qtot 5.930186
  158          o      6    bbb     O2    158 -0.52917200  16.000000   ; qtot 5.401014
  159         hx      6    bbb     H1    159 0.11563300   1.008000   ; qtot 5.516647
  160         hx      6    bbb     H2    160 0.11563300   1.008000   ; qtot 5.632280
  161         hx      6    bbb     H3    161 0.11563300   1.008000   ; qtot 5.747913
  162         hx      6    bbb     H4    162 0.11563300   1.008000   ; qtot 5.863546
  163         hc      6    bbb     H5    163 0.08347900   1.008000   ; qtot 5.947025
  164         hc      6    bbb     H6    164 0.08347900   1.008000   ; qtot 6.030504
  165         hc      6    bbb     H7    165 0.08347900   1.008000   ; qtot 6.113983
  166         hc      6    bbb     H8    166 0.08347900   1.008000   ; qtot 6.197462
  167         hx      6    bbb     H9    167 0.07988000   1.008000   ; qtot 6.277342
  168         hx      6    bbb    H10    168 0.07988000   1.008000   ; qtot 6.357222
  169         h1      6    bbb    H11    169 0.10618100   1.008000   ; qtot 6.463403
  170         h1      6    bbb    H12    170 0.10618100   1.008000   ; qtot 6.569584
  171         hn      6    bbb    H13    171 0.25916100   1.008000   ; qtot 6.828745
  172         hn      6    bbb    H25    172 0.17125500   1.008000   ; qtot 7.000000
; residue    7 bbb rtp bbb q 1.0
  173         n4      7    bbb     N1    173 -0.02747900  14.010000   ; qtot 6.972521
  174         c3      7    bbb     C1    174 -0.05097600  12.010000   ; qtot 6.921545
  175         c3      7    bbb     C2    175 -0.05097600  12.010000   ; qtot 6.870569
  176         c3      7    bbb     C3    176 -0.18457900  12.010000   ; qtot 6.685990
  177          c      7    bbb     C4    177 0.67254400  12.010000   ; qtot 7.358534
  178         c3      7    bbb     C5    178 -0.18457900  12.010000   ; qtot 7.173955
  179          c      7    bbb     C6    179 0.67254400  12.010000   ; qtot 7.846499
  180         c3      7    bbb     C7    180 -0.02083000  12.010000   ; qtot 7.825669
  181         c3      7    bbb     C8    181 -0.03328100  12.010000   ; qtot 7.792388
  182          n      7    bbb     N2    182 -0.33303000  14.010000   ; qtot 7.459358
  183          o      7    bbb     O1    183 -0.52917200  16.000000   ; qtot 6.930186
  184          o      7    bbb     O2    184 -0.52917200  16.000000   ; qtot 6.401014
  185         hx      7    bbb     H1    185 0.11563300   1.008000   ; qtot 6.516647
  186         hx      7    bbb     H2    186 0.11563300   1.008000   ; qtot 6.632280
  187         hx      7    bbb     H3    187 0.11563300   1.008000   ; qtot 6.747913
  188         hx      7    bbb     H4    188 0.11563300   1.008000   ; qtot 6.863546
  189         hc      7    bbb     H5    189 0.08347900   1.008000   ; qtot 6.947025
  190         hc      7    bbb     H6    190 0.08347900   1.008000   ; qtot 7.030504
  191         hc      7    bbb     H7    191 0.08347900   1.008000   ; qtot 7.113983
  192         hc      7    bbb     H8    192 0.08347900   1.008000   ; qtot 7.197462
  193         hx      7    bbb     H9    193 0.07988000   1.008000   ; qtot 7.277342
  194         hx      7    bbb    H10    194 0.07988000   1.008000   ; qtot 7.357222
  195         h1      7    bbb    H11    195 0.10618100   1.008000   ; qtot 7.463403
  196         h1      7    bbb    H12    196 0.10618100   1.008000   ; qtot 7.569584
  197         hn      7    bbb    H13    197 0.25916100   1.008000   ; qtot 7.828745
  198         hn      7    bbb    H25    198 0.17125500   1.008000   ; qtot 8.000000
; residue    8 bbb rtp bbb q 1.0
  199         n4      8    bbb     N1    199 -0.02747900  14.010000   ; qtot 7.972521
  200         c3      8    bbb     C1    200 -0.05097600  12.010000   ; qtot 7.921545
  201         c3      8    bbb     C2    201 -0.05097600  12.010000   ; qtot 7.870569
  202         c3      8    bbb     C3    202 -0.18457900  12.010000   ; qtot 7.685990
  203          c      8    bbb     C4    203 0.67254400  12.010000   ; qtot 8.358534
  204         c3      8    bbb     C5    204 -0.18457900  12.010000   ; qtot 8.173955
  205          c      8    bbb     C6    205 0.67254400  12.010000   ; qtot 8.846499
  206         c3      8    bbb     C7    206 -0.02083000  12.010000   ; qtot 8.825669
  207         c3      8    bbb     C8    207 -0.03328100  12.010000   ; qtot 8.792388
  208          n      8    bbb     N2    208 -0.33303000  14.010000   ; qtot 8.459358
  209          o      8    bbb     O1    209 -0.52917200  16.000000   ; qtot 7.930186
  210          o      8    bbb     O2    210 -0.52917200  16.000000   ; qtot 7.401014
  211         hx      8    bbb     H1    211 0.11563300   1.008000   ; qtot 7.516647
  212         hx      8    bbb     H2    212 0.11563300   1.008000   ; qtot 7.632280
  213         hx      8    bbb     H3    213 0.11563300   1.008000   ; qtot 7.747913
  214         hx      8    bbb     H4    214 0.11563300   1.008000   ; qtot 7.863546
  215         hc      8    bbb     H5    215 0.08347900   1.008000   ; qtot 7.947025
  216         hc      8    bbb     H6    216 0.08347900   1.008000   ; qtot 8.030504
  217         hc      8    bbb     H7    217 0.08347900   1.008000   ; qtot 8.113983
  218         hc      8    bbb     H8    218 0.08347900   1.008000   ; qtot 8.197462
  219         hx      8    bbb     H9    219 0.07988000   1.008000   ; qtot 8.277342
  220         hx      8    bbb    H10    220 0.07988000   1.008000   ; qtot 8.357222
  221         h1      8    bbb    H11    221 0.10618100   1.008000   ; qtot 8.463403
  222         h1      8    bbb    H12    222 0.10618100   1.008000   ; qtot 8.569584
  223         hn      8    bbb    H13    223 0.25916100   1.008000   ; qtot 8.828745
  224         hn      8    bbb    H25    224 0.17125500   1.008000   ; qtot 9.000000
; residue    9 bbb rtp bbb q 1.0
  225         n4      9    bbb     N1    225 -0.02747900  14.010000   ; qtot 8.972521
  226         c3      9    bbb     C1    226 -0.05097600  12.010000   ; qtot 8.921545
  227         c3      9    bbb     C2    227 -0.05097600  12.010000   ; qtot 8.870569
  228         c3      9    bbb     C3    228 -0.18457900  12.010000   ; qtot 8.685990
  229          c      9    bbb     C4    229 0.67254400  12.010000   ; qtot 9.358534
  230         c3      9    bbb     C5    230 -0.18457900  12.010000   ; qtot 9.173955
  231          c      9    bbb     C6    231 0.67254400  12.010000   ; qtot 9.846499
  232         c3      9    bbb     C7    232 -0.02083000  12.010000   ; qtot 9.825669
  233         c3      9    bbb     C8    233 -0.03328100  12.010000   ; qtot 9.792388
  234          n      9    bbb     N2    234 -0.33303000  14.010000   ; qtot 9.459358
  235          o      9    bbb     O1    235 -0.52917200  16.000000   ; qtot 8.930186
  236          o      9    bbb     O2    236 -0.52917200  16.000000   ; qtot 8.401014
  237         hx      9    bbb     H1    237 0.11563300   1.008000   ; qtot 8.516647
  238         hx      9    bbb     H2    238 0.11563300   1.008000   ; qtot 8.632280
  239         hx      9    bbb     H3    239 0.11563300   1.008000   ; qtot 8.747913
  240         hx      9    bbb     H4    240 0.11563300   1.008000   ; qtot 8.863546
  241         hc      9    bbb     H5    241 0.08347900   1.008000   ; qtot 8.947025
  242         hc      9    bbb     H6    242 0.08347900   1.008000   ; qtot 9.030504
  243         hc      9    bbb     H7    243 0.08347900   1.008000   ; qtot 9.113983
  244         hc      9    bbb     H8    244 0.08347900   1.008000   ; qtot 9.197462
  245         hx      9    bbb     H9    245 0.07988000   1.008000   ; qtot 9.277342
  246         hx      9    bbb    H10    246 0.07988000   1.008000   ; qtot 9.357222
  247         h1      9    bbb    H11    247 0.10618100   1.008000   ; qtot 9.463403
  248         h1      9    bbb    H12    248 0.10618100   1.008000   ; qtot 9.569584
  249         hn      9    bbb    H13    249 0.25916100   1.008000   ; qtot 9.828745
  250         hn      9    bbb    H25    250 0.17125500   1.008000   ; qtot 10.000000
; residue   10 bbb rtp bbb q 1.0
  251         n4     10    bbb     N1    251 -0.02747900  14.010000   ; qtot 9.972521
  252         c3     10    bbb     C1    252 -0.05097600  12.010000   ; qtot 9.921545
  253         c3     10    bbb     C2    253 -0.05097600  12.010000   ; qtot 9.870569
  254         c3     10    bbb     C3    254 -0.18457900  12.010000   ; qtot 9.685990
  255          c     10    bbb     C4    255 0.67254400  12.010000   ; qtot 10.358534
  256         c3     10    bbb     C5    256 -0.18457900  12.010000   ; qtot 10.173955
  257          c     10    bbb     C6    257 0.67254400  12.010000   ; qtot 10.846499
  258         c3     10    bbb     C7    258 -0.02083000  12.010000   ; qtot 10.825669
  259         c3     10    bbb     C8    259 -0.03328100  12.010000   ; qtot 10.792388
  260          n     10    bbb     N2    260 -0.33303000  14.010000   ; qtot 10.459358
  261          o     10    bbb     O1    261 -0.52917200  16.000000   ; qtot 9.930186
  262          o     10    bbb     O2    262 -0.52917200  16.000000   ; qtot 9.401014
  263         hx     10    bbb     H1    263 0.11563300   1.008000   ; qtot 9.516647
  264         hx     10    bbb     H2    264 0.11563300   1.008000   ; qtot 9.632280
  265         hx     10    bbb     H3    265 0.11563300   1.008000   ; qtot 9.747913
  266         hx     10    bbb     H4    266 0.11563300   1.008000   ; qtot 9.863546
  267         hc     10    bbb     H5    267 0.08347900   1.008000   ; qtot 9.947025
  268         hc     10    bbb     H6    268 0.08347900   1.008000   ; qtot 10.030504
  269         hc     10    bbb     H7    269 0.08347900   1.008000   ; qtot 10.113983
  270         hc     10    bbb     H8    270 0.08347900   1.008000   ; qtot 10.197462
  271         hx     10    bbb     H9    271 0.07988000   1.008000   ; qtot 10.277342
  272         hx     10    bbb    H10    272 0.07988000   1.008000   ; qtot 10.357222
  273         h1     10    bbb    H11    273 0.10618100   1.008000   ; qtot 10.463403
  274         h1     10    bbb    H12    274 0.10618100   1.008000   ; qtot 10.569584
  275         hn     10    bbb    H13    275 0.25916100   1.008000   ; qtot 10.828745
  276         hn     10    bbb    H25    276 0.17125500   1.008000   ; qtot 11.000000
; residue   11 bbb rtp bbb q 1.0
  277         n4     11    bbb     N1    277 -0.02747900  14.010000   ; qtot 10.972521
  278         c3     11    bbb     C1    278 -0.05097600  12.010000   ; qtot 10.921545
  279         c3     11    bbb     C2    279 -0.05097600  12.010000   ; qtot 10.870569
  280         c3     11    bbb     C3    280 -0.18457900  12.010000   ; qtot 10.685990
  281          c     11    bbb     C4    281 0.67254400  12.010000   ; qtot 11.358534
  282         c3     11    bbb     C5    282 -0.18457900  12.010000   ; qtot 11.173955
  283          c     11    bbb     C6    283 0.67254400  12.010000   ; qtot 11.846499
  284         c3     11    bbb     C7    284 -0.02083000  12.010000   ; qtot 11.825669
  285         c3     11    bbb     C8    285 -0.03328100  12.010000   ; qtot 11.792388
  286          n     11    bbb     N2    286 -0.33303000  14.010000   ; qtot 11.459358
  287          o     11    bbb     O1    287 -0.52917200  16.000000   ; qtot 10.930186
  288          o     11    bbb     O2    288 -0.52917200  16.000000   ; qtot 10.401014
  289         hx     11    bbb     H1    289 0.11563300   1.008000   ; qtot 10.516647
  290         hx     11    bbb     H2    290 0.11563300   1.008000   ; qtot 10.632280
  291         hx     11    bbb     H3    291 0.11563300   1.008000   ; qtot 10.747913
  292         hx     11    bbb     H4    292 0.11563300   1.008000   ; qtot 10.863546
  293         hc     11    bbb     H5    293 0.08347900   1.008000   ; qtot 10.947025
  294         hc     11    bbb     H6    294 0.08347900   1.008000   ; qtot 11.030504
  295         hc     11    bbb     H7    295 0.08347900   1.008000   ; qtot 11.113983
  296         hc     11    bbb     H8    296 0.08347900   1.008000   ; qtot 11.197462
  297         hx     11    bbb     H9    297 0.07988000   1.008000   ; qtot 11.277342
  298         hx     11    bbb    H10    298 0.07988000   1.008000   ; qtot 11.357222
  299         h1     11    bbb    H11    299 0.10618100   1.008000   ; qtot 11.463403
  300         h1     11    bbb    H12    300 0.10618100   1.008000   ; qtot 11.569584
  301         hn     11    bbb    H13    301 0.25916100   1.008000   ; qtot 11.828745
  302         hn     11    bbb    H25    302 0.17125500   1.008000   ; qtot 12.000000
; residue   12 bbb rtp bbb q 1.0
  303         n4     12    bbb     N1    303 -0.02747900  14.010000   ; qtot 11.972521
  304         c3     12    bbb     C1    304 -0.05097600  12.010000   ; qtot 11.921545
  305         c3     12    bbb     C2    305 -0.05097600  12.010000   ; qtot 11.870569
  306         c3     12    bbb     C3    306 -0.18457900  12.010000   ; qtot 11.685990
  307          c     12    bbb     C4    307 0.67254400  12.010000   ; qtot 12.358534
  308         c3     12    bbb     C5    308 -0.18457900  12.010000   ; qtot 12.173955
  309          c     12    bbb     C6    309 0.67254400  12.010000   ; qtot 12.846499
  310         c3     12    bbb     C7    310 -0.02083000  12.010000   ; qtot 12.825669
  311         c3     12    bbb     C8    311 -0.03328100  12.010000   ; qtot 12.792388
  312          n     12    bbb     N2    312 -0.33303000  14.010000   ; qtot 12.459358
  313          o     12    bbb     O1    313 -0.52917200  16.000000   ; qtot 11.930186
  314          o     12    bbb     O2    314 -0.52917200  16.000000   ; qtot 11.401014
  315         hx     12    bbb     H1    315 0.11563300   1.008000   ; qtot 11.516647
  316         hx     12    bbb     H2    316 0.11563300   1.008000   ; qtot 11.632280
  317         hx     12    bbb     H3    317 0.11563300   1.008000   ; qtot 11.747913
  318         hx     12    bbb     H4    318 0.11563300   1.008000   ; qtot 11.863546
  319         hc     12    bbb     H5    319 0.08347900   1.008000   ; qtot 11.947025
  320         hc     12    bbb     H6    320 0.08347900   1.008000   ; qtot 12.030504
  321         hc     12    bbb     H7    321 0.08347900   1.008000   ; qtot 12.113983
  322         hc     12    bbb     H8    322 0.08347900   1.008000   ; qtot 12.197462
  323         hx     12    bbb     H9    323 0.07988000   1.008000   ; qtot 12.277342
  324         hx     12    bbb    H10    324 0.07988000   1.008000   ; qtot 12.357222
  325         h1     12    bbb    H11    325 0.10618100   1.008000   ; qtot 12.463403
  326         h1     12    bbb    H12    326 0.10618100   1.008000   ; qtot 12.569584
  327         hn     12    bbb    H13    327 0.25916100   1.008000   ; qtot 12.828745
  328         hn     12    bbb    H25    328 0.17125500   1.008000   ; qtot 13.000000
; residue   13 bbb rtp bbb q 1.0
  329         n4     13    bbb     N1    329 -0.02747900  14.010000   ; qtot 12.972521
  330         c3     13    bbb     C1    330 -0.05097600  12.010000   ; qtot 12.921545
  331         c3     13    bbb     C2    331 -0.05097600  12.010000   ; qtot 12.870569
  332         c3     13    bbb     C3    332 -0.18457900  12.010000   ; qtot 12.685990
  333          c     13    bbb     C4    333 0.67254400  12.010000   ; qtot 13.358534
  334         c3     13    bbb     C5    334 -0.18457900  12.010000   ; qtot 13.173955
  335          c     13    bbb     C6    335 0.67254400  12.010000   ; qtot 13.846499
  336         c3     13    bbb     C7    336 -0.02083000  12.010000   ; qtot 13.825669
  337         c3     13    bbb     C8    337 -0.03328100  12.010000   ; qtot 13.792388
  338          n     13    bbb     N2    338 -0.33303000  14.010000   ; qtot 13.459358
  339          o     13    bbb     O1    339 -0.52917200  16.000000   ; qtot 12.930186
  340          o     13    bbb     O2    340 -0.52917200  16.000000   ; qtot 12.401014
  341         hx     13    bbb     H1    341 0.11563300   1.008000   ; qtot 12.516647
  342         hx     13    bbb     H2    342 0.11563300   1.008000   ; qtot 12.632280
  343         hx     13    bbb     H3    343 0.11563300   1.008000   ; qtot 12.747913
  344         hx     13    bbb     H4    344 0.11563300   1.008000   ; qtot 12.863546
  345         hc     13    bbb     H5    345 0.08347900   1.008000   ; qtot 12.947025
  346         hc     13    bbb     H6    346 0.08347900   1.008000   ; qtot 13.030504
  347         hc     13    bbb     H7    347 0.08347900   1.008000   ; qtot 13.113983
  348         hc     13    bbb     H8    348 0.08347900   1.008000   ; qtot 13.197462
  349         hx     13    bbb     H9    349 0.07988000   1.008000   ; qtot 13.277342
  350         hx     13    bbb    H10    350 0.07988000   1.008000   ; qtot 13.357222
  351         h1     13    bbb    H11    351 0.10618100   1.008000   ; qtot 13.463403
  352         h1     13    bbb    H12    352 0.10618100   1.008000   ; qtot 13.569584
  353         hn     13    bbb    H13    353 0.25916100   1.008000   ; qtot 13.828745
  354         hn     13    bbb    H25    354 0.17125500   1.008000   ; qtot 14.000000
; residue   14 bbb rtp bbb q 1.0
  355         n4     14    bbb     N1    355 -0.02747900  14.010000   ; qtot 13.972521
  356         c3     14    bbb     C1    356 -0.05097600  12.010000   ; qtot 13.921545
  357         c3     14    bbb     C2    357 -0.05097600  12.010000   ; qtot 13.870569
  358         c3     14    bbb     C3    358 -0.18457900  12.010000   ; qtot 13.685990
  359          c     14    bbb     C4    359 0.67254400  12.010000   ; qtot 14.358534
  360         c3     14    bbb     C5    360 -0.18457900  12.010000   ; qtot 14.173955
  361          c     14    bbb     C6    361 0.67254400  12.010000   ; qtot 14.846499
  362         c3     14    bbb     C7    362 -0.02083000  12.010000   ; qtot 14.825669
  363         c3     14    bbb     C8    363 -0.03328100  12.010000   ; qtot 14.792388
  364          n     14    bbb     N2    364 -0.33303000  14.010000   ; qtot 14.459358
  365          o     14    bbb     O1    365 -0.52917200  16.000000   ; qtot 13.930186
  366          o     14    bbb     O2    366 -0.52917200  16.000000   ; qtot 13.401014
  367         hx     14    bbb     H1    367 0.11563300   1.008000   ; qtot 13.516647
  368         hx     14    bbb     H2    368 0.11563300   1.008000   ; qtot 13.632280
  369         hx     14    bbb     H3    369 0.11563300   1.008000   ; qtot 13.747913
  370         hx     14    bbb     H4    370 0.11563300   1.008000   ; qtot 13.863546
  371         hc     14    bbb     H5    371 0.08347900   1.008000   ; qtot 13.947025
  372         hc     14    bbb     H6    372 0.08347900   1.008000   ; qtot 14.030504
  373         hc     14    bbb     H7    373 0.08347900   1.008000   ; qtot 14.113983
  374         hc     14    bbb     H8    374 0.08347900   1.008000   ; qtot 14.197462
  375         hx     14    bbb     H9    375 0.07988000   1.008000   ; qtot 14.277342
  376         hx     14    bbb    H10    376 0.07988000   1.008000   ; qtot 14.357222
  377         h1     14    bbb    H11    377 0.10618100   1.008000   ; qtot 14.463403
  378         h1     14    bbb    H12    378 0.10618100   1.008000   ; qtot 14.569584
  379         hn     14    bbb    H13    379 0.25916100   1.008000   ; qtot 14.828745
  380         hn     14    bbb    H25    380 0.17125500   1.008000   ; qtot 15.000000
; residue   15 bbb rtp bbb q 1.0
  381         n4     15    bbb     N1    381 -0.02747900  14.010000   ; qtot 14.972521
  382         c3     15    bbb     C1    382 -0.05097600  12.010000   ; qtot 14.921545
  383         c3     15    bbb     C2    383 -0.05097600  12.010000   ; qtot 14.870569
  384         c3     15    bbb     C3    384 -0.18457900  12.010000   ; qtot 14.685990
  385          c     15    bbb     C4    385 0.67254400  12.010000   ; qtot 15.358534
  386         c3     15    bbb     C5    386 -0.18457900  12.010000   ; qtot 15.173955
  387          c     15    bbb     C6    387 0.67254400  12.010000   ; qtot 15.846499
  388         c3     15    bbb     C7    388 -0.02083000  12.010000   ; qtot 15.825669
  389         c3     15    bbb     C8    389 -0.03328100  12.010000   ; qtot 15.792388
  390          n     15    bbb     N2    390 -0.33303000  14.010000   ; qtot 15.459358
  391          o     15    bbb     O1    391 -0.52917200  16.000000   ; qtot 14.930186
  392          o     15    bbb     O2    392 -0.52917200  16.000000   ; qtot 14.401014
  393         hx     15    bbb     H1    393 0.11563300   1.008000   ; qtot 14.516647
  394         hx     15    bbb     H2    394 0.11563300   1.008000   ; qtot 14.632280
  395         hx     15    bbb     H3    395 0.11563300   1.008000   ; qtot 14.747913
  396         hx     15    bbb     H4    396 0.11563300   1.008000   ; qtot 14.863546
  397         hc     15    bbb     H5    397 0.08347900   1.008000   ; qtot 14.947025
  398         hc     15    bbb     H6    398 0.08347900   1.008000   ; qtot 15.030504
  399         hc     15    bbb     H7    399 0.08347900   1.008000   ; qtot 15.113983
  400         hc     15    bbb     H8    400 0.08347900   1.008000   ; qtot 15.197462
  401         hx     15    bbb     H9    401 0.07988000   1.008000   ; qtot 15.277342
  402         hx     15    bbb    H10    402 0.07988000   1.008000   ; qtot 15.357222
  403         h1     15    bbb    H11    403 0.10618100   1.008000   ; qtot 15.463403
  404         h1     15    bbb    H12    404 0.10618100   1.008000   ; qtot 15.569584
  405         hn     15    bbb    H13    405 0.25916100   1.008000   ; qtot 15.828745
  406         hn     15    bbb    H25    406 0.17125500   1.008000   ; qtot 16.000000
; residue   16 bbb rtp bbb q 1.0
  407         n4     16    bbb     N1    407 -0.02747900  14.010000   ; qtot 15.972521
  408         c3     16    bbb     C1    408 -0.05097600  12.010000   ; qtot 15.921545
  409         c3     16    bbb     C2    409 -0.05097600  12.010000   ; qtot 15.870569
  410         c3     16    bbb     C3    410 -0.18457900  12.010000   ; qtot 15.685990
  411          c     16    bbb     C4    411 0.67254400  12.010000   ; qtot 16.358534
  412         c3     16    bbb     C5    412 -0.18457900  12.010000   ; qtot 16.173955
  413          c     16    bbb     C6    413 0.67254400  12.010000   ; qtot 16.846499
  414         c3     16    bbb     C7    414 -0.02083000  12.010000   ; qtot 16.825669
  415         c3     16    bbb     C8    415 -0.03328100  12.010000   ; qtot 16.792388
  416          n     16    bbb     N2    416 -0.33303000  14.010000   ; qtot 16.459358
  417          o     16    bbb     O1    417 -0.52917200  16.000000   ; qtot 15.930186
  418          o     16    bbb     O2    418 -0.52917200  16.000000   ; qtot 15.401014
  419         hx     16    bbb     H1    419 0.11563300   1.008000   ; qtot 15.516647
  420         hx     16    bbb     H2    420 0.11563300   1.008000   ; qtot 15.632280
  421         hx     16    bbb     H3    421 0.11563300   1.008000   ; qtot 15.747913
  422         hx     16    bbb     H4    422 0.11563300   1.008000   ; qtot 15.863546
  423         hc     16    bbb     H5    423 0.08347900   1.008000   ; qtot 15.947025
  424         hc     16    bbb     H6    424 0.08347900   1.008000   ; qtot 16.030504
  425         hc     16    bbb     H7    425 0.08347900   1.008000   ; qtot 16.113983
  426         hc     16    bbb     H8    426 0.08347900   1.008000   ; qtot 16.197462
  427         hx     16    bbb     H9    427 0.07988000   1.008000   ; qtot 16.277342
  428         hx     16    bbb    H10    428 0.07988000   1.008000   ; qtot 16.357222
  429         h1     16    bbb    H11    429 0.10618100   1.008000   ; qtot 16.463403
  430         h1     16    bbb    H12    430 0.10618100   1.008000   ; qtot 16.569584
  431         hn     16    bbb    H13    431 0.25916100   1.008000   ; qtot 16.828745
  432         hn     16    bbb    H25    432 0.17125500   1.008000   ; qtot 17.000000
; residue   17 bbb rtp bbb q 1.0
  433         n4     17    bbb     N1    433 -0.02747900  14.010000   ; qtot 16.972521
  434         c3     17    bbb     C1    434 -0.05097600  12.010000   ; qtot 16.921545
  435         c3     17    bbb     C2    435 -0.05097600  12.010000   ; qtot 16.870569
  436         c3     17    bbb     C3    436 -0.18457900  12.010000   ; qtot 16.685990
  437          c     17    bbb     C4    437 0.67254400  12.010000   ; qtot 17.358534
  438         c3     17    bbb     C5    438 -0.18457900  12.010000   ; qtot 17.173955
  439          c     17    bbb     C6    439 0.67254400  12.010000   ; qtot 17.846499
  440         c3     17    bbb     C7    440 -0.02083000  12.010000   ; qtot 17.825669
  441         c3     17    bbb     C8    441 -0.03328100  12.010000   ; qtot 17.792388
  442          n     17    bbb     N2    442 -0.33303000  14.010000   ; qtot 17.459358
  443          o     17    bbb     O1    443 -0.52917200  16.000000   ; qtot 16.930186
  444          o     17    bbb     O2    444 -0.52917200  16.000000   ; qtot 16.401014
  445         hx     17    bbb     H1    445 0.11563300   1.008000   ; qtot 16.516647
  446         hx     17    bbb     H2    446 0.11563300   1.008000   ; qtot 16.632280
  447         hx     17    bbb     H3    447 0.11563300   1.008000   ; qtot 16.747913
  448         hx     17    bbb     H4    448 0.11563300   1.008000   ; qtot 16.863546
  449         hc     17    bbb     H5    449 0.08347900   1.008000   ; qtot 16.947025
  450         hc     17    bbb     H6    450 0.08347900   1.008000   ; qtot 17.030504
  451         hc     17    bbb     H7    451 0.08347900   1.008000   ; qtot 17.113983
  452         hc     17    bbb     H8    452 0.08347900   1.008000   ; qtot 17.197462
  453         hx     17    bbb     H9    453 0.07988000   1.008000   ; qtot 17.277342
  454         hx     17    bbb    H10    454 0.07988000   1.008000   ; qtot 17.357222
  455         h1     17    bbb    H11    455 0.10618100   1.008000   ; qtot 17.463403
  456         h1     17    bbb    H12    456 0.10618100   1.008000   ; qtot 17.569584
  457         hn     17    bbb    H13    457 0.25916100   1.008000   ; qtot 17.828745
  458         hn     17    bbb    H25    458 0.17125500   1.008000   ; qtot 18.000000
; residue   18 bbb rtp bbb q 1.0
  459         n4     18    bbb     N1    459 -0.02747900  14.010000   ; qtot 17.972521
  460         c3     18    bbb     C1    460 -0.05097600  12.010000   ; qtot 17.921545
  461         c3     18    bbb     C2    461 -0.05097600  12.010000   ; qtot 17.870569
  462         c3     18    bbb     C3    462 -0.18457900  12.010000   ; qtot 17.685990
  463          c     18    bbb     C4    463 0.67254400  12.010000   ; qtot 18.358534
  464         c3     18    bbb     C5    464 -0.18457900  12.010000   ; qtot 18.173955
  465          c     18    bbb     C6    465 0.67254400  12.010000   ; qtot 18.846499
  466         c3     18    bbb     C7    466 -0.02083000  12.010000   ; qtot 18.825669
  467         c3     18    bbb     C8    467 -0.03328100  12.010000   ; qtot 18.792388
  468          n     18    bbb     N2    468 -0.33303000  14.010000   ; qtot 18.459358
  469          o     18    bbb     O1    469 -0.52917200  16.000000   ; qtot 17.930186
  470          o     18    bbb     O2    470 -0.52917200  16.000000   ; qtot 17.401014
  471         hx     18    bbb     H1    471 0.11563300   1.008000   ; qtot 17.516647
  472         hx     18    bbb     H2    472 0.11563300   1.008000   ; qtot 17.632280
  473         hx     18    bbb     H3    473 0.11563300   1.008000   ; qtot 17.747913
  474         hx     18    bbb     H4    474 0.11563300   1.008000   ; qtot 17.863546
  475         hc     18    bbb     H5    475 0.08347900   1.008000   ; qtot 17.947025
  476         hc     18    bbb     H6    476 0.08347900   1.008000   ; qtot 18.030504
  477         hc     18    bbb     H7    477 0.08347900   1.008000   ; qtot 18.113983
  478         hc     18    bbb     H8    478 0.08347900   1.008000   ; qtot 18.197462
  479         hx     18    bbb     H9    479 0.07988000   1.008000   ; qtot 18.277342
  480         hx     18    bbb    H10    480 0.07988000   1.008000   ; qtot 18.357222
  481         h1     18    bbb    H11    481 0.10618100   1.008000   ; qtot 18.463403
  482         h1     18    bbb    H12    482 0.10618100   1.008000   ; qtot 18.569584
  483         hn     18    bbb    H13    483 0.25916100   1.008000   ; qtot 18.828745
  484         hn     18    bbb    H25    484 0.17125500   1.008000   ; qtot 19.000000
; residue   19 bbb rtp bbb q 1.0
  485         n4     19    bbb     N1    485 -0.02747900  14.010000   ; qtot 18.972521
  486         c3     19    bbb     C1    486 -0.05097600  12.010000   ; qtot 18.921545
  487         c3     19    bbb     C2    487 -0.05097600  12.010000   ; qtot 18.870569
  488         c3     19    bbb     C3    488 -0.18457900  12.010000   ; qtot 18.685990
  489          c     19    bbb     C4    489 0.67254400  12.010000   ; qtot 19.358534
  490         c3     19    bbb     C5    490 -0.18457900  12.010000   ; qtot 19.173955
  491          c     19    bbb     C6    491 0.67254400  12.010000   ; qtot 19.846499
  492         c3     19    bbb     C7    492 -0.02083000  12.010000   ; qtot 19.825669
  493         c3     19    bbb     C8    493 -0.03328100  12.010000   ; qtot 19.792388
  494          n     19    bbb     N2    494 -0.33303000  14.010000   ; qtot 19.459358
  495          o     19    bbb     O1    495 -0.52917200  16.000000   ; qtot 18.930186
  496          o     19    bbb     O2    496 -0.52917200  16.000000   ; qtot 18.401014
  497         hx     19    bbb     H1    497 0.11563300   1.008000   ; qtot 18.516647
  498         hx     19    bbb     H2    498 0.11563300   1.008000   ; qtot 18.632280
  499         hx     19    bbb     H3    499 0.11563300   1.008000   ; qtot 18.747913
  500         hx     19    bbb     H4    500 0.11563300   1.008000   ; qtot 18.863546
  501         hc     19    bbb     H5    501 0.08347900   1.008000   ; qtot 18.947025
  502         hc     19    bbb     H6    502 0.08347900   1.008000   ; qtot 19.030504
  503         hc     19    bbb     H7    503 0.08347900   1.008000   ; qtot 19.113983
  504         hc     19    bbb     H8    504 0.08347900   1.008000   ; qtot 19.197462
  505         hx     19    bbb     H9    505 0.07988000   1.008000   ; qtot 19.277342
  506         hx     19    bbb    H10    506 0.07988000   1.008000   ; qtot 19.357222
  507         h1     19    bbb    H11    507 0.10618100   1.008000   ; qtot 19.463403
  508         h1     19    bbb    H12    508 0.10618100   1.008000   ; qtot 19.569584
  509         hn     19    bbb    H13    509 0.25916100   1.008000   ; qtot 19.828745
  510         hn     19    bbb    H25    510 0.17125500   1.008000   ; qtot 20.000000
; residue   20 bbb rtp bbb q 1.0
  511         n4     20    bbb     N1    511 -0.02747900  14.010000   ; qtot 19.972521
  512         c3     20    bbb     C1    512 -0.05097600  12.010000   ; qtot 19.921545
  513         c3     20    bbb     C2    513 -0.05097600  12.010000   ; qtot 19.870569
  514         c3     20    bbb     C3    514 -0.18457900  12.010000   ; qtot 19.685990
  515          c     20    bbb     C4    515 0.67254400  12.010000   ; qtot 20.358534
  516         c3     20    bbb     C5    516 -0.18457900  12.010000   ; qtot 20.173955
  517          c     20    bbb     C6    517 0.67254400  12.010000   ; qtot 20.846499
  518         c3     20    bbb     C7    518 -0.02083000  12.010000   ; qtot 20.825669
  519         c3     20    bbb     C8    519 -0.03328100  12.010000   ; qtot 20.792388
  520          n     20    bbb     N2    520 -0.33303000  14.010000   ; qtot 20.459358
  521          o     20    bbb     O1    521 -0.52917200  16.000000   ; qtot 19.930186
  522          o     20    bbb     O2    522 -0.52917200  16.000000   ; qtot 19.401014
  523         hx     20    bbb     H1    523 0.11563300   1.008000   ; qtot 19.516647
  524         hx     20    bbb     H2    524 0.11563300   1.008000   ; qtot 19.632280
  525         hx     20    bbb     H3    525 0.11563300   1.008000   ; qtot 19.747913
  526         hx     20    bbb     H4    526 0.11563300   1.008000   ; qtot 19.863546
  527         hc     20    bbb     H5    527 0.08347900   1.008000   ; qtot 19.947025
  528         hc     20    bbb     H6    528 0.08347900   1.008000   ; qtot 20.030504
  529         hc     20    bbb     H7    529 0.08347900   1.008000   ; qtot 20.113983
  530         hc     20    bbb     H8    530 0.08347900   1.008000   ; qtot 20.197462
  531         hx     20    bbb     H9    531 0.07988000   1.008000   ; qtot 20.277342
  532         hx     20    bbb    H10    532 0.07988000   1.008000   ; qtot 20.357222
  533         h1     20    bbb    H11    533 0.10618100   1.008000   ; qtot 20.463403
  534         h1     20    bbb    H12    534 0.10618100   1.008000   ; qtot 20.569584
  535         hn     20    bbb    H13    535 0.25916100   1.008000   ; qtot 20.828745
  536         hn     20    bbb    H25    536 0.17125500   1.008000   ; qtot 21.000000
; residue   21 bbb rtp bbb q 1.0
  537         n4     21    bbb     N1    537 -0.02747900  14.010000   ; qtot 20.972521
  538         c3     21    bbb     C1    538 -0.05097600  12.010000   ; qtot 20.921545
  539         c3     21    bbb     C2    539 -0.05097600  12.010000   ; qtot 20.870569
  540         c3     21    bbb     C3    540 -0.18457900  12.010000   ; qtot 20.685990
  541          c     21    bbb     C4    541 0.67254400  12.010000   ; qtot 21.358534
  542         c3     21    bbb     C5    542 -0.18457900  12.010000   ; qtot 21.173955
  543          c     21    bbb     C6    543 0.67254400  12.010000   ; qtot 21.846499
  544         c3     21    bbb     C7    544 -0.02083000  12.010000   ; qtot 21.825669
  545         c3     21    bbb     C8    545 -0.03328100  12.010000   ; qtot 21.792388
  546          n     21    bbb     N2    546 -0.33303000  14.010000   ; qtot 21.459358
  547          o     21    bbb     O1    547 -0.52917200  16.000000   ; qtot 20.930186
  548          o     21    bbb     O2    548 -0.52917200  16.000000   ; qtot 20.401014
  549         hx     21    bbb     H1    549 0.11563300   1.008000   ; qtot 20.516647
  550         hx     21    bbb     H2    550 0.11563300   1.008000   ; qtot 20.632280
  551         hx     21    bbb     H3    551 0.11563300   1.008000   ; qtot 20.747913
  552         hx     21    bbb     H4    552 0.11563300   1.008000   ; qtot 20.863546
  553         hc     21    bbb     H5    553 0.08347900   1.008000   ; qtot 20.947025
  554         hc     21    bbb     H6    554 0.08347900   1.008000   ; qtot 21.030504
  555         hc     21    bbb     H7    555 0.08347900   1.008000   ; qtot 21.113983
  556         hc     21    bbb     H8    556 0.08347900   1.008000   ; qtot 21.197462
  557         hx     21    bbb     H9    557 0.07988000   1.008000   ; qtot 21.277342
  558         hx     21    bbb    H10    558 0.07988000   1.008000   ; qtot 21.357222
  559         h1     21    bbb    H11    559 0.10618100   1.008000   ; qtot 21.463403
  560         h1     21    bbb    H12    560 0.10618100   1.008000   ; qtot 21.569584
  561         hn     21    bbb    H13    561 0.25916100   1.008000   ; qtot 21.828745
  562         hn     21    bbb    H25    562 0.17125500   1.008000   ; qtot 22.000000
; residue   22 bbb rtp bbb q 1.0
  563         n4     22    bbb     N1    563 -0.02747900  14.010000   ; qtot 21.972521
  564         c3     22    bbb     C1    564 -0.05097600  12.010000   ; qtot 21.921545
  565         c3     22    bbb     C2    565 -0.05097600  12.010000   ; qtot 21.870569
  566         c3     22    bbb     C3    566 -0.18457900  12.010000   ; qtot 21.685990
  567          c     22    bbb     C4    567 0.67254400  12.010000   ; qtot 22.358534
  568         c3     22    bbb     C5    568 -0.18457900  12.010000   ; qtot 22.173955
  569          c     22    bbb     C6    569 0.67254400  12.010000   ; qtot 22.846499
  570         c3     22    bbb     C7    570 -0.02083000  12.010000   ; qtot 22.825669
  571         c3     22    bbb     C8    571 -0.03328100  12.010000   ; qtot 22.792388
  572          n     22    bbb     N2    572 -0.33303000  14.010000   ; qtot 22.459358
  573          o     22    bbb     O1    573 -0.52917200  16.000000   ; qtot 21.930186
  574          o     22    bbb     O2    574 -0.52917200  16.000000   ; qtot 21.401014
  575         hx     22    bbb     H1    575 0.11563300   1.008000   ; qtot 21.516647
  576         hx     22    bbb     H2    576 0.11563300   1.008000   ; qtot 21.632280
  577         hx     22    bbb     H3    577 0.11563300   1.008000   ; qtot 21.747913
  578         hx     22    bbb     H4    578 0.11563300   1.008000   ; qtot 21.863546
  579         hc     22    bbb     H5    579 0.08347900   1.008000   ; qtot 21.947025
  580         hc     22    bbb     H6    580 0.08347900   1.008000   ; qtot 22.030504
  581         hc     22    bbb     H7    581 0.08347900   1.008000   ; qtot 22.113983
  582         hc     22    bbb     H8    582 0.08347900   1.008000   ; qtot 22.197462
  583         hx     22    bbb     H9    583 0.07988000   1.008000   ; qtot 22.277342
  584         hx     22    bbb    H10    584 0.07988000   1.008000   ; qtot 22.357222
  585         h1     22    bbb    H11    585 0.10618100   1.008000   ; qtot 22.463403
  586         h1     22    bbb    H12    586 0.10618100   1.008000   ; qtot 22.569584
  587         hn     22    bbb    H13    587 0.25916100   1.008000   ; qtot 22.828745
  588         hn     22    bbb    H25    588 0.17125500   1.008000   ; qtot 23.000000
; residue   23 bbb rtp bbb q 1.0
  589         n4     23    bbb     N1    589 -0.02747900  14.010000   ; qtot 22.972521
  590         c3     23    bbb     C1    590 -0.05097600  12.010000   ; qtot 22.921545
  591         c3     23    bbb     C2    591 -0.05097600  12.010000   ; qtot 22.870569
  592         c3     23    bbb     C3    592 -0.18457900  12.010000   ; qtot 22.685990
  593          c     23    bbb     C4    593 0.67254400  12.010000   ; qtot 23.358534
  594         c3     23    bbb     C5    594 -0.18457900  12.010000   ; qtot 23.173955
  595          c     23    bbb     C6    595 0.67254400  12.010000   ; qtot 23.846499
  596         c3     23    bbb     C7    596 -0.02083000  12.010000   ; qtot 23.825669
  597         c3     23    bbb     C8    597 -0.03328100  12.010000   ; qtot 23.792388
  598          n     23    bbb     N2    598 -0.33303000  14.010000   ; qtot 23.459358
  599          o     23    bbb     O1    599 -0.52917200  16.000000   ; qtot 22.930186
  600          o     23    bbb     O2    600 -0.52917200  16.000000   ; qtot 22.401014
  601         hx     23    bbb     H1    601 0.11563300   1.008000   ; qtot 22.516647
  602         hx     23    bbb     H2    602 0.11563300   1.008000   ; qtot 22.632280
  603         hx     23    bbb     H3    603 0.11563300   1.008000   ; qtot 22.747913
  604         hx     23    bbb     H4    604 0.11563300   1.008000   ; qtot 22.863546
  605         hc     23    bbb     H5    605 0.08347900   1.008000   ; qtot 22.947025
  606         hc     23    bbb     H6    606 0.08347900   1.008000   ; qtot 23.030504
  607         hc     23    bbb     H7    607 0.08347900   1.008000   ; qtot 23.113983
  608         hc     23    bbb     H8    608 0.08347900   1.008000   ; qtot 23.197462
  609         hx     23    bbb     H9    609 0.07988000   1.008000   ; qtot 23.277342
  610         hx     23    bbb    H10    610 0.07988000   1.008000   ; qtot 23.357222
  611         h1     23    bbb    H11    611 0.10618100   1.008000   ; qtot 23.463403
  612         h1     23    bbb    H12    612 0.10618100   1.008000   ; qtot 23.569584
  613         hn     23    bbb    H13    613 0.25916100   1.008000   ; qtot 23.828745
  614         hn     23    bbb    H25    614 0.17125500   1.008000   ; qtot 24.000000
; residue   24 bbb rtp bbb q 1.0
  615         n4     24    bbb     N1    615 -0.02747900  14.010000   ; qtot 23.972521
  616         c3     24    bbb     C1    616 -0.05097600  12.010000   ; qtot 23.921545
  617         c3     24    bbb     C2    617 -0.05097600  12.010000   ; qtot 23.870569
  618         c3     24    bbb     C3    618 -0.18457900  12.010000   ; qtot 23.685990
  619          c     24    bbb     C4    619 0.67254400  12.010000   ; qtot 24.358534
  620         c3     24    bbb     C5    620 -0.18457900  12.010000   ; qtot 24.173955
  621          c     24    bbb     C6    621 0.67254400  12.010000   ; qtot 24.846499
  622         c3     24    bbb     C7    622 -0.02083000  12.010000   ; qtot 24.825669
  623         c3     24    bbb     C8    623 -0.03328100  12.010000   ; qtot 24.792388
  624          n     24    bbb     N2    624 -0.33303000  14.010000   ; qtot 24.459358
  625          o     24    bbb     O1    625 -0.52917200  16.000000   ; qtot 23.930186
  626          o     24    bbb     O2    626 -0.52917200  16.000000   ; qtot 23.401014
  627         hx     24    bbb     H1    627 0.11563300   1.008000   ; qtot 23.516647
  628         hx     24    bbb     H2    628 0.11563300   1.008000   ; qtot 23.632280
  629         hx     24    bbb     H3    629 0.11563300   1.008000   ; qtot 23.747913
  630         hx     24    bbb     H4    630 0.11563300   1.008000   ; qtot 23.863546
  631         hc     24    bbb     H5    631 0.08347900   1.008000   ; qtot 23.947025
  632         hc     24    bbb     H6    632 0.08347900   1.008000   ; qtot 24.030504
  633         hc     24    bbb     H7    633 0.08347900   1.008000   ; qtot 24.113983
  634         hc     24    bbb     H8    634 0.08347900   1.008000   ; qtot 24.197462
  635         hx     24    bbb     H9    635 0.07988000   1.008000   ; qtot 24.277342
  636         hx     24    bbb    H10    636 0.07988000   1.008000   ; qtot 24.357222
  637         h1     24    bbb    H11    637 0.10618100   1.008000   ; qtot 24.463403
  638         h1     24    bbb    H12    638 0.10618100   1.008000   ; qtot 24.569584
  639         hn     24    bbb    H13    639 0.25916100   1.008000   ; qtot 24.828745
  640         hn     24    bbb    H25    640 0.17125500   1.008000   ; qtot 25.000000
; residue   25 bbb rtp bbb q 1.0
  641         n4     25    bbb     N1    641 -0.02747900  14.010000   ; qtot 24.972521
  642         c3     25    bbb     C1    642 -0.05097600  12.010000   ; qtot 24.921545
  643         c3     25    bbb     C2    643 -0.05097600  12.010000   ; qtot 24.870569
  644         c3     25    bbb     C3    644 -0.18457900  12.010000   ; qtot 24.685990
  645          c     25    bbb     C4    645 0.67254400  12.010000   ; qtot 25.358534
  646         c3     25    bbb     C5    646 -0.18457900  12.010000   ; qtot 25.173955
  647          c     25    bbb     C6    647 0.67254400  12.010000   ; qtot 25.846499
  648         c3     25    bbb     C7    648 -0.02083000  12.010000   ; qtot 25.825669
  649         c3     25    bbb     C8    649 -0.03328100  12.010000   ; qtot 25.792388
  650          n     25    bbb     N2    650 -0.33303000  14.010000   ; qtot 25.459358
  651          o     25    bbb     O1    651 -0.52917200  16.000000   ; qtot 24.930186
  652          o     25    bbb     O2    652 -0.52917200  16.000000   ; qtot 24.401014
  653         hx     25    bbb     H1    653 0.11563300   1.008000   ; qtot 24.516647
  654         hx     25    bbb     H2    654 0.11563300   1.008000   ; qtot 24.632280
  655         hx     25    bbb     H3    655 0.11563300   1.008000   ; qtot 24.747913
  656         hx     25    bbb     H4    656 0.11563300   1.008000   ; qtot 24.863546
  657         hc     25    bbb     H5    657 0.08347900   1.008000   ; qtot 24.947025
  658         hc     25    bbb     H6    658 0.08347900   1.008000   ; qtot 25.030504
  659         hc     25    bbb     H7    659 0.08347900   1.008000   ; qtot 25.113983
  660         hc     25    bbb     H8    660 0.08347900   1.008000   ; qtot 25.197462
  661         hx     25    bbb     H9    661 0.07988000   1.008000   ; qtot 25.277342
  662         hx     25    bbb    H10    662 0.07988000   1.008000   ; qtot 25.357222
  663         h1     25    bbb    H11    663 0.10618100   1.008000   ; qtot 25.463403
  664         h1     25    bbb    H12    664 0.10618100   1.008000   ; qtot 25.569584
  665         hn     25    bbb    H13    665 0.25916100   1.008000   ; qtot 25.828745
  666         hn     25    bbb    H25    666 0.17125500   1.008000   ; qtot 26.000000
; residue   26 bbb rtp bbb q 1.0
  667         n4     26    bbb     N1    667 -0.02747900  14.010000   ; qtot 25.972521
  668         c3     26    bbb     C1    668 -0.05097600  12.010000   ; qtot 25.921545
  669         c3     26    bbb     C2    669 -0.05097600  12.010000   ; qtot 25.870569
  670         c3     26    bbb     C3    670 -0.18457900  12.010000   ; qtot 25.685990
  671          c     26    bbb     C4    671 0.67254400  12.010000   ; qtot 26.358534
  672         c3     26    bbb     C5    672 -0.18457900  12.010000   ; qtot 26.173955
  673          c     26    bbb     C6    673 0.67254400  12.010000   ; qtot 26.846499
  674         c3     26    bbb     C7    674 -0.02083000  12.010000   ; qtot 26.825669
  675         c3     26    bbb     C8    675 -0.03328100  12.010000   ; qtot 26.792388
  676          n     26    bbb     N2    676 -0.33303000  14.010000   ; qtot 26.459358
  677          o     26    bbb     O1    677 -0.52917200  16.000000   ; qtot 25.930186
  678          o     26    bbb     O2    678 -0.52917200  16.000000   ; qtot 25.401014
  679         hx     26    bbb     H1    679 0.11563300   1.008000   ; qtot 25.516647
  680         hx     26    bbb     H2    680 0.11563300   1.008000   ; qtot 25.632280
  681         hx     26    bbb     H3    681 0.11563300   1.008000   ; qtot 25.747913
  682         hx     26    bbb     H4    682 0.11563300   1.008000   ; qtot 25.863546
  683         hc     26    bbb     H5    683 0.08347900   1.008000   ; qtot 25.947025
  684         hc     26    bbb     H6    684 0.08347900   1.008000   ; qtot 26.030504
  685         hc     26    bbb     H7    685 0.08347900   1.008000   ; qtot 26.113983
  686         hc     26    bbb     H8    686 0.08347900   1.008000   ; qtot 26.197462
  687         hx     26    bbb     H9    687 0.07988000   1.008000   ; qtot 26.277342
  688         hx     26    bbb    H10    688 0.07988000   1.008000   ; qtot 26.357222
  689         h1     26    bbb    H11    689 0.10618100   1.008000   ; qtot 26.463403
  690         h1     26    bbb    H12    690 0.10618100   1.008000   ; qtot 26.569584
  691         hn     26    bbb    H13    691 0.25916100   1.008000   ; qtot 26.828745
  692         hn     26    bbb    H25    692 0.17125500   1.008000   ; qtot 27.000000
; residue   27 bbb rtp bbb q 1.0
  693         n4     27    bbb     N1    693 -0.02747900  14.010000   ; qtot 26.972521
  694         c3     27    bbb     C1    694 -0.05097600  12.010000   ; qtot 26.921545
  695         c3     27    bbb     C2    695 -0.05097600  12.010000   ; qtot 26.870569
  696         c3     27    bbb     C3    696 -0.18457900  12.010000   ; qtot 26.685990
  697          c     27    bbb     C4    697 0.67254400  12.010000   ; qtot 27.358534
  698         c3     27    bbb     C5    698 -0.18457900  12.010000   ; qtot 27.173955
  699          c     27    bbb     C6    699 0.67254400  12.010000   ; qtot 27.846499
  700         c3     27    bbb     C7    700 -0.02083000  12.010000   ; qtot 27.825669
  701         c3     27    bbb     C8    701 -0.03328100  12.010000   ; qtot 27.792388
  702          n     27    bbb     N2    702 -0.33303000  14.010000   ; qtot 27.459358
  703          o     27    bbb     O1    703 -0.52917200  16.000000   ; qtot 26.930186
  704          o     27    bbb     O2    704 -0.52917200  16.000000   ; qtot 26.401014
  705         hx     27    bbb     H1    705 0.11563300   1.008000   ; qtot 26.516647
  706         hx     27    bbb     H2    706 0.11563300   1.008000   ; qtot 26.632280
  707         hx     27    bbb     H3    707 0.11563300   1.008000   ; qtot 26.747913
  708         hx     27    bbb     H4    708 0.11563300   1.008000   ; qtot 26.863546
  709         hc     27    bbb     H5    709 0.08347900   1.008000   ; qtot 26.947025
  710         hc     27    bbb     H6    710 0.08347900   1.008000   ; qtot 27.030504
  711         hc     27    bbb     H7    711 0.08347900   1.008000   ; qtot 27.113983
  712         hc     27    bbb     H8    712 0.08347900   1.008000   ; qtot 27.197462
  713         hx     27    bbb     H9    713 0.07988000   1.008000   ; qtot 27.277342
  714         hx     27    bbb    H10    714 0.07988000   1.008000   ; qtot 27.357222
  715         h1     27    bbb    H11    715 0.10618100   1.008000   ; qtot 27.463403
  716         h1     27    bbb    H12    716 0.10618100   1.008000   ; qtot 27.569584
  717         hn     27    bbb    H13    717 0.25916100   1.008000   ; qtot 27.828745
  718         hn     27    bbb    H25    718 0.17125500   1.008000   ; qtot 28.000000
; residue   28 bbb rtp bbb q 1.0
  719         n4     28    bbb     N1    719 -0.02747900  14.010000   ; qtot 27.972521
  720         c3     28    bbb     C1    720 -0.05097600  12.010000   ; qtot 27.921545
  721         c3     28    bbb     C2    721 -0.05097600  12.010000   ; qtot 27.870569
  722         c3     28    bbb     C3    722 -0.18457900  12.010000   ; qtot 27.685990
  723          c     28    bbb     C4    723 0.67254400  12.010000   ; qtot 28.358534
  724         c3     28    bbb     C5    724 -0.18457900  12.010000   ; qtot 28.173955
  725          c     28    bbb     C6    725 0.67254400  12.010000   ; qtot 28.846499
  726         c3     28    bbb     C7    726 -0.02083000  12.010000   ; qtot 28.825669
  727         c3     28    bbb     C8    727 -0.03328100  12.010000   ; qtot 28.792388
  728          n     28    bbb     N2    728 -0.33303000  14.010000   ; qtot 28.459358
  729          o     28    bbb     O1    729 -0.52917200  16.000000   ; qtot 27.930186
  730          o     28    bbb     O2    730 -0.52917200  16.000000   ; qtot 27.401014
  731         hx     28    bbb     H1    731 0.11563300   1.008000   ; qtot 27.516647
  732         hx     28    bbb     H2    732 0.11563300   1.008000   ; qtot 27.632280
  733         hx     28    bbb     H3    733 0.11563300   1.008000   ; qtot 27.747913
  734         hx     28    bbb     H4    734 0.11563300   1.008000   ; qtot 27.863546
  735         hc     28    bbb     H5    735 0.08347900   1.008000   ; qtot 27.947025
  736         hc     28    bbb     H6    736 0.08347900   1.008000   ; qtot 28.030504
  737         hc     28    bbb     H7    737 0.08347900   1.008000   ; qtot 28.113983
  738         hc     28    bbb     H8    738 0.08347900   1.008000   ; qtot 28.197462
  739         hx     28    bbb     H9    739 0.07988000   1.008000   ; qtot 28.277342
  740         hx     28    bbb    H10    740 0.07988000   1.008000   ; qtot 28.357222
  741         h1     28    bbb    H11    741 0.10618100   1.008000   ; qtot 28.463403
  742         h1     28    bbb    H12    742 0.10618100   1.008000   ; qtot 28.569584
  743         hn     28    bbb    H13    743 0.25916100   1.008000   ; qtot 28.828745
  744         hn     28    bbb    H25    744 0.17125500   1.008000   ; qtot 29.000000
; residue   29 bbb rtp bbb q 1.0
  745         n4     29    bbb     N1    745 -0.02747900  14.010000   ; qtot 28.972521
  746         c3     29    bbb     C1    746 -0.05097600  12.010000   ; qtot 28.921545
  747         c3     29    bbb     C2    747 -0.05097600  12.010000   ; qtot 28.870569
  748         c3     29    bbb     C3    748 -0.18457900  12.010000   ; qtot 28.685990
  749          c     29    bbb     C4    749 0.67254400  12.010000   ; qtot 29.358534
  750         c3     29    bbb     C5    750 -0.18457900  12.010000   ; qtot 29.173955
  751          c     29    bbb     C6    751 0.67254400  12.010000   ; qtot 29.846499
  752         c3     29    bbb     C7    752 -0.02083000  12.010000   ; qtot 29.825669
  753         c3     29    bbb     C8    753 -0.03328100  12.010000   ; qtot 29.792388
  754          n     29    bbb     N2    754 -0.33303000  14.010000   ; qtot 29.459358
  755          o     29    bbb     O1    755 -0.52917200  16.000000   ; qtot 28.930186
  756          o     29    bbb     O2    756 -0.52917200  16.000000   ; qtot 28.401014
  757         hx     29    bbb     H1    757 0.11563300   1.008000   ; qtot 28.516647
  758         hx     29    bbb     H2    758 0.11563300   1.008000   ; qtot 28.632280
  759         hx     29    bbb     H3    759 0.11563300   1.008000   ; qtot 28.747913
  760         hx     29    bbb     H4    760 0.11563300   1.008000   ; qtot 28.863546
  761         hc     29    bbb     H5    761 0.08347900   1.008000   ; qtot 28.947025
  762         hc     29    bbb     H6    762 0.08347900   1.008000   ; qtot 29.030504
  763         hc     29    bbb     H7    763 0.08347900   1.008000   ; qtot 29.113983
  764         hc     29    bbb     H8    764 0.08347900   1.008000   ; qtot 29.197462
  765         hx     29    bbb     H9    765 0.07988000   1.008000   ; qtot 29.277342
  766         hx     29    bbb    H10    766 0.07988000   1.008000   ; qtot 29.357222
  767         h1     29    bbb    H11    767 0.10618100   1.008000   ; qtot 29.463403
  768         h1     29    bbb    H12    768 0.10618100   1.008000   ; qtot 29.569584
  769         hn     29    bbb    H13    769 0.25916100   1.008000   ; qtot 29.828745
  770         hn     29    bbb    H25    770 0.17125500   1.008000   ; qtot 30.000000
; residue   30 bbb rtp bbb q 1.0
  771         n4     30    bbb     N1    771 -0.02747900  14.010000   ; qtot 29.972521
  772         c3     30    bbb     C1    772 -0.05097600  12.010000   ; qtot 29.921545
  773         c3     30    bbb     C2    773 -0.05097600  12.010000   ; qtot 29.870569
  774         c3     30    bbb     C3    774 -0.18457900  12.010000   ; qtot 29.685990
  775          c     30    bbb     C4    775 0.67254400  12.010000   ; qtot 30.358534
  776         c3     30    bbb     C5    776 -0.18457900  12.010000   ; qtot 30.173955
  777          c     30    bbb     C6    777 0.67254400  12.010000   ; qtot 30.846499
  778         c3     30    bbb     C7    778 -0.02083000  12.010000   ; qtot 30.825669
  779         c3     30    bbb     C8    779 -0.03328100  12.010000   ; qtot 30.792388
  780          n     30    bbb     N2    780 -0.33303000  14.010000   ; qtot 30.459358
  781          o     30    bbb     O1    781 -0.52917200  16.000000   ; qtot 29.930186
  782          o     30    bbb     O2    782 -0.52917200  16.000000   ; qtot 29.401014
  783         hx     30    bbb     H1    783 0.11563300   1.008000   ; qtot 29.516647
  784         hx     30    bbb     H2    784 0.11563300   1.008000   ; qtot 29.632280
  785         hx     30    bbb     H3    785 0.11563300   1.008000   ; qtot 29.747913
  786         hx     30    bbb     H4    786 0.11563300   1.008000   ; qtot 29.863546
  787         hc     30    bbb     H5    787 0.08347900   1.008000   ; qtot 29.947025
  788         hc     30    bbb     H6    788 0.08347900   1.008000   ; qtot 30.030504
  789         hc     30    bbb     H7    789 0.08347900   1.008000   ; qtot 30.113983
  790         hc     30    bbb     H8    790 0.08347900   1.008000   ; qtot 30.197462
  791         hx     30    bbb     H9    791 0.07988000   1.008000   ; qtot 30.277342
  792         hx     30    bbb    H10    792 0.07988000   1.008000   ; qtot 30.357222
  793         h1     30    bbb    H11    793 0.10618100   1.008000   ; qtot 30.463403
  794         h1     30    bbb    H12    794 0.10618100   1.008000   ; qtot 30.569584
  795         hn     30    bbb    H13    795 0.25916100   1.008000   ; qtot 30.828745
  796         hn     30    bbb    H25    796 0.17125500   1.008000   ; qtot 31.000000
; residue   31 bbb rtp bbb q 1.0
  797         n4     31    bbb     N1    797 -0.02747900  14.010000   ; qtot 30.972521
  798         c3     31    bbb     C1    798 -0.05097600  12.010000   ; qtot 30.921545
  799         c3     31    bbb     C2    799 -0.05097600  12.010000   ; qtot 30.870569
  800         c3     31    bbb     C3    800 -0.18457900  12.010000   ; qtot 30.685990
  801          c     31    bbb     C4    801 0.67254400  12.010000   ; qtot 31.358534
  802         c3     31    bbb     C5    802 -0.18457900  12.010000   ; qtot 31.173955
  803          c     31    bbb     C6    803 0.67254400  12.010000   ; qtot 31.846499
  804         c3     31    bbb     C7    804 -0.02083000  12.010000   ; qtot 31.825669
  805         c3     31    bbb     C8    805 -0.03328100  12.010000   ; qtot 31.792388
  806          n     31    bbb     N2    806 -0.33303000  14.010000   ; qtot 31.459358
  807          o     31    bbb     O1    807 -0.52917200  16.000000   ; qtot 30.930186
  808          o     31    bbb     O2    808 -0.52917200  16.000000   ; qtot 30.401014
  809         hx     31    bbb     H1    809 0.11563300   1.008000   ; qtot 30.516647
  810         hx     31    bbb     H2    810 0.11563300   1.008000   ; qtot 30.632280
  811         hx     31    bbb     H3    811 0.11563300   1.008000   ; qtot 30.747913
  812         hx     31    bbb     H4    812 0.11563300   1.008000   ; qtot 30.863546
  813         hc     31    bbb     H5    813 0.08347900   1.008000   ; qtot 30.947025
  814         hc     31    bbb     H6    814 0.08347900   1.008000   ; qtot 31.030504
  815         hc     31    bbb     H7    815 0.08347900   1.008000   ; qtot 31.113983
  816         hc     31    bbb     H8    816 0.08347900   1.008000   ; qtot 31.197462
  817         hx     31    bbb     H9    817 0.07988000   1.008000   ; qtot 31.277342
  818         hx     31    bbb    H10    818 0.07988000   1.008000   ; qtot 31.357222
  819         h1     31    bbb    H11    819 0.10618100   1.008000   ; qtot 31.463403
  820         h1     31    bbb    H12    820 0.10618100   1.008000   ; qtot 31.569584
  821         hn     31    bbb    H13    821 0.25916100   1.008000   ; qtot 31.828745
  822         hn     31    bbb    H25    822 0.17125500   1.008000   ; qtot 32.000000
; residue   32 bbb rtp bbb q 1.0
  823         n4     32    bbb     N1    823 -0.02747900  14.010000   ; qtot 31.972521
  824         c3     32    bbb     C1    824 -0.05097600  12.010000   ; qtot 31.921545
  825         c3     32    bbb     C2    825 -0.05097600  12.010000   ; qtot 31.870569
  826         c3     32    bbb     C3    826 -0.18457900  12.010000   ; qtot 31.685990
  827          c     32    bbb     C4    827 0.67254400  12.010000   ; qtot 32.358534
  828         c3     32    bbb     C5    828 -0.18457900  12.010000   ; qtot 32.173955
  829          c     32    bbb     C6    829 0.67254400  12.010000   ; qtot 32.846499
  830         c3     32    bbb     C7    830 -0.02083000  12.010000   ; qtot 32.825669
  831         c3     32    bbb     C8    831 -0.03328100  12.010000   ; qtot 32.792388
  832          n     32    bbb     N2    832 -0.33303000  14.010000   ; qtot 32.459358
  833          o     32    bbb     O1    833 -0.52917200  16.000000   ; qtot 31.930186
  834          o     32    bbb     O2    834 -0.52917200  16.000000   ; qtot 31.401014
  835         hx     32    bbb     H1    835 0.11563300   1.008000   ; qtot 31.516647
  836         hx     32    bbb     H2    836 0.11563300   1.008000   ; qtot 31.632280
  837         hx     32    bbb     H3    837 0.11563300   1.008000   ; qtot 31.747913
  838         hx     32    bbb     H4    838 0.11563300   1.008000   ; qtot 31.863546
  839         hc     32    bbb     H5    839 0.08347900   1.008000   ; qtot 31.947025
  840         hc     32    bbb     H6    840 0.08347900   1.008000   ; qtot 32.030504
  841         hc     32    bbb     H7    841 0.08347900   1.008000   ; qtot 32.113983
  842         hc     32    bbb     H8    842 0.08347900   1.008000   ; qtot 32.197462
  843         hx     32    bbb     H9    843 0.07988000   1.008000   ; qtot 32.277342
  844         hx     32    bbb    H10    844 0.07988000   1.008000   ; qtot 32.357222
  845         h1     32    bbb    H11    845 0.10618100   1.008000   ; qtot 32.463403
  846         h1     32    bbb    H12    846 0.10618100   1.008000   ; qtot 32.569584
  847         hn     32    bbb    H13    847 0.25916100   1.008000   ; qtot 32.828745
  848         hn     32    bbb    H25    848 0.17125500   1.008000   ; qtot 33.000000
; residue   33 bbb rtp bbb q 1.0
  849         n4     33    bbb     N1    849 -0.02747900  14.010000   ; qtot 32.972521
  850         c3     33    bbb     C1    850 -0.05097600  12.010000   ; qtot 32.921545
  851         c3     33    bbb     C2    851 -0.05097600  12.010000   ; qtot 32.870569
  852         c3     33    bbb     C3    852 -0.18457900  12.010000   ; qtot 32.685990
  853          c     33    bbb     C4    853 0.67254400  12.010000   ; qtot 33.358534
  854         c3     33    bbb     C5    854 -0.18457900  12.010000   ; qtot 33.173955
  855          c     33    bbb     C6    855 0.67254400  12.010000   ; qtot 33.846499
  856         c3     33    bbb     C7    856 -0.02083000  12.010000   ; qtot 33.825669
  857         c3     33    bbb     C8    857 -0.03328100  12.010000   ; qtot 33.792388
  858          n     33    bbb     N2    858 -0.33303000  14.010000   ; qtot 33.459358
  859          o     33    bbb     O1    859 -0.52917200  16.000000   ; qtot 32.930186
  860          o     33    bbb     O2    860 -0.52917200  16.000000   ; qtot 32.401014
  861         hx     33    bbb     H1    861 0.11563300   1.008000   ; qtot 32.516647
  862         hx     33    bbb     H2    862 0.11563300   1.008000   ; qtot 32.632280
  863         hx     33    bbb     H3    863 0.11563300   1.008000   ; qtot 32.747913
  864         hx     33    bbb     H4    864 0.11563300   1.008000   ; qtot 32.863546
  865         hc     33    bbb     H5    865 0.08347900   1.008000   ; qtot 32.947025
  866         hc     33    bbb     H6    866 0.08347900   1.008000   ; qtot 33.030504
  867         hc     33    bbb     H7    867 0.08347900   1.008000   ; qtot 33.113983
  868         hc     33    bbb     H8    868 0.08347900   1.008000   ; qtot 33.197462
  869         hx     33    bbb     H9    869 0.07988000   1.008000   ; qtot 33.277342
  870         hx     33    bbb    H10    870 0.07988000   1.008000   ; qtot 33.357222
  871         h1     33    bbb    H11    871 0.10618100   1.008000   ; qtot 33.463403
  872         h1     33    bbb    H12    872 0.10618100   1.008000   ; qtot 33.569584
  873         hn     33    bbb    H13    873 0.25916100   1.008000   ; qtot 33.828745
  874         hn     33    bbb    H25    874 0.17125500   1.008000   ; qtot 34.000000
; residue   34 bbb rtp bbb q 1.0
  875         n4     34    bbb     N1    875 -0.02747900  14.010000   ; qtot 33.972521
  876         c3     34    bbb     C1    876 -0.05097600  12.010000   ; qtot 33.921545
  877         c3     34    bbb     C2    877 -0.05097600  12.010000   ; qtot 33.870569
  878         c3     34    bbb     C3    878 -0.18457900  12.010000   ; qtot 33.685990
  879          c     34    bbb     C4    879 0.67254400  12.010000   ; qtot 34.358534
  880         c3     34    bbb     C5    880 -0.18457900  12.010000   ; qtot 34.173955
  881          c     34    bbb     C6    881 0.67254400  12.010000   ; qtot 34.846499
  882         c3     34    bbb     C7    882 -0.02083000  12.010000   ; qtot 34.825669
  883         c3     34    bbb     C8    883 -0.03328100  12.010000   ; qtot 34.792388
  884          n     34    bbb     N2    884 -0.33303000  14.010000   ; qtot 34.459358
  885          o     34    bbb     O1    885 -0.52917200  16.000000   ; qtot 33.930186
  886          o     34    bbb     O2    886 -0.52917200  16.000000   ; qtot 33.401014
  887         hx     34    bbb     H1    887 0.11563300   1.008000   ; qtot 33.516647
  888         hx     34    bbb     H2    888 0.11563300   1.008000   ; qtot 33.632280
  889         hx     34    bbb     H3    889 0.11563300   1.008000   ; qtot 33.747913
  890         hx     34    bbb     H4    890 0.11563300   1.008000   ; qtot 33.863546
  891         hc     34    bbb     H5    891 0.08347900   1.008000   ; qtot 33.947025
  892         hc     34    bbb     H6    892 0.08347900   1.008000   ; qtot 34.030504
  893         hc     34    bbb     H7    893 0.08347900   1.008000   ; qtot 34.113983
  894         hc     34    bbb     H8    894 0.08347900   1.008000   ; qtot 34.197462
  895         hx     34    bbb     H9    895 0.07988000   1.008000   ; qtot 34.277342
  896         hx     34    bbb    H10    896 0.07988000   1.008000   ; qtot 34.357222
  897         h1     34    bbb    H11    897 0.10618100   1.008000   ; qtot 34.463403
  898         h1     34    bbb    H12    898 0.10618100   1.008000   ; qtot 34.569584
  899         hn     34    bbb    H13    899 0.25916100   1.008000   ; qtot 34.828745
  900         hn     34    bbb    H25    900 0.17125500   1.008000   ; qtot 35.000000
; residue   35 bbb rtp bbb q 1.0
  901         n4     35    bbb     N1    901 -0.02747900  14.010000   ; qtot 34.972521
  902         c3     35    bbb     C1    902 -0.05097600  12.010000   ; qtot 34.921545
  903         c3     35    bbb     C2    903 -0.05097600  12.010000   ; qtot 34.870569
  904         c3     35    bbb     C3    904 -0.18457900  12.010000   ; qtot 34.685990
  905          c     35    bbb     C4    905 0.67254400  12.010000   ; qtot 35.358534
  906         c3     35    bbb     C5    906 -0.18457900  12.010000   ; qtot 35.173955
  907          c     35    bbb     C6    907 0.67254400  12.010000   ; qtot 35.846499
  908         c3     35    bbb     C7    908 -0.02083000  12.010000   ; qtot 35.825669
  909         c3     35    bbb     C8    909 -0.03328100  12.010000   ; qtot 35.792388
  910          n     35    bbb     N2    910 -0.33303000  14.010000   ; qtot 35.459358
  911          o     35    bbb     O1    911 -0.52917200  16.000000   ; qtot 34.930186
  912          o     35    bbb     O2    912 -0.52917200  16.000000   ; qtot 34.401014
  913         hx     35    bbb     H1    913 0.11563300   1.008000   ; qtot 34.516647
  914         hx     35    bbb     H2    914 0.11563300   1.008000   ; qtot 34.632280
  915         hx     35    bbb     H3    915 0.11563300   1.008000   ; qtot 34.747913
  916         hx     35    bbb     H4    916 0.11563300   1.008000   ; qtot 34.863546
  917         hc     35    bbb     H5    917 0.08347900   1.008000   ; qtot 34.947025
  918         hc     35    bbb     H6    918 0.08347900   1.008000   ; qtot 35.030504
  919         hc     35    bbb     H7    919 0.08347900   1.008000   ; qtot 35.113983
  920         hc     35    bbb     H8    920 0.08347900   1.008000   ; qtot 35.197462
  921         hx     35    bbb     H9    921 0.07988000   1.008000   ; qtot 35.277342
  922         hx     35    bbb    H10    922 0.07988000   1.008000   ; qtot 35.357222
  923         h1     35    bbb    H11    923 0.10618100   1.008000   ; qtot 35.463403
  924         h1     35    bbb    H12    924 0.10618100   1.008000   ; qtot 35.569584
  925         hn     35    bbb    H13    925 0.25916100   1.008000   ; qtot 35.828745
  926         hn     35    bbb    H25    926 0.17125500   1.008000   ; qtot 36.000000
; residue   36 bbb rtp bbb q 1.0
  927         n4     36    bbb     N1    927 -0.02747900  14.010000   ; qtot 35.972521
  928         c3     36    bbb     C1    928 -0.05097600  12.010000   ; qtot 35.921545
  929         c3     36    bbb     C2    929 -0.05097600  12.010000   ; qtot 35.870569
  930         c3     36    bbb     C3    930 -0.18457900  12.010000   ; qtot 35.685990
  931          c     36    bbb     C4    931 0.67254400  12.010000   ; qtot 36.358534
  932         c3     36    bbb     C5    932 -0.18457900  12.010000   ; qtot 36.173955
  933          c     36    bbb     C6    933 0.67254400  12.010000   ; qtot 36.846499
  934         c3     36    bbb     C7    934 -0.02083000  12.010000   ; qtot 36.825669
  935         c3     36    bbb     C8    935 -0.03328100  12.010000   ; qtot 36.792388
  936          n     36    bbb     N2    936 -0.33303000  14.010000   ; qtot 36.459358
  937          o     36    bbb     O1    937 -0.52917200  16.000000   ; qtot 35.930186
  938          o     36    bbb     O2    938 -0.52917200  16.000000   ; qtot 35.401014
  939         hx     36    bbb     H1    939 0.11563300   1.008000   ; qtot 35.516647
  940         hx     36    bbb     H2    940 0.11563300   1.008000   ; qtot 35.632280
  941         hx     36    bbb     H3    941 0.11563300   1.008000   ; qtot 35.747913
  942         hx     36    bbb     H4    942 0.11563300   1.008000   ; qtot 35.863546
  943         hc     36    bbb     H5    943 0.08347900   1.008000   ; qtot 35.947025
  944         hc     36    bbb     H6    944 0.08347900   1.008000   ; qtot 36.030504
  945         hc     36    bbb     H7    945 0.08347900   1.008000   ; qtot 36.113983
  946         hc     36    bbb     H8    946 0.08347900   1.008000   ; qtot 36.197462
  947         hx     36    bbb     H9    947 0.07988000   1.008000   ; qtot 36.277342
  948         hx     36    bbb    H10    948 0.07988000   1.008000   ; qtot 36.357222
  949         h1     36    bbb    H11    949 0.10618100   1.008000   ; qtot 36.463403
  950         h1     36    bbb    H12    950 0.10618100   1.008000   ; qtot 36.569584
  951         hn     36    bbb    H13    951 0.25916100   1.008000   ; qtot 36.828745
  952         hn     36    bbb    H25    952 0.17125500   1.008000   ; qtot 37.000000
; residue   37 bbb rtp bbb q 1.0
  953         n4     37    bbb     N1    953 -0.02747900  14.010000   ; qtot 36.972521
  954         c3     37    bbb     C1    954 -0.05097600  12.010000   ; qtot 36.921545
  955         c3     37    bbb     C2    955 -0.05097600  12.010000   ; qtot 36.870569
  956         c3     37    bbb     C3    956 -0.18457900  12.010000   ; qtot 36.685990
  957          c     37    bbb     C4    957 0.67254400  12.010000   ; qtot 37.358534
  958         c3     37    bbb     C5    958 -0.18457900  12.010000   ; qtot 37.173955
  959          c     37    bbb     C6    959 0.67254400  12.010000   ; qtot 37.846499
  960         c3     37    bbb     C7    960 -0.02083000  12.010000   ; qtot 37.825669
  961         c3     37    bbb     C8    961 -0.03328100  12.010000   ; qtot 37.792388
  962          n     37    bbb     N2    962 -0.33303000  14.010000   ; qtot 37.459358
  963          o     37    bbb     O1    963 -0.52917200  16.000000   ; qtot 36.930186
  964          o     37    bbb     O2    964 -0.52917200  16.000000   ; qtot 36.401014
  965         hx     37    bbb     H1    965 0.11563300   1.008000   ; qtot 36.516647
  966         hx     37    bbb     H2    966 0.11563300   1.008000   ; qtot 36.632280
  967         hx     37    bbb     H3    967 0.11563300   1.008000   ; qtot 36.747913
  968         hx     37    bbb     H4    968 0.11563300   1.008000   ; qtot 36.863546
  969         hc     37    bbb     H5    969 0.08347900   1.008000   ; qtot 36.947025
  970         hc     37    bbb     H6    970 0.08347900   1.008000   ; qtot 37.030504
  971         hc     37    bbb     H7    971 0.08347900   1.008000   ; qtot 37.113983
  972         hc     37    bbb     H8    972 0.08347900   1.008000   ; qtot 37.197462
  973         hx     37    bbb     H9    973 0.07988000   1.008000   ; qtot 37.277342
  974         hx     37    bbb    H10    974 0.07988000   1.008000   ; qtot 37.357222
  975         h1     37    bbb    H11    975 0.10618100   1.008000   ; qtot 37.463403
  976         h1     37    bbb    H12    976 0.10618100   1.008000   ; qtot 37.569584
  977         hn     37    bbb    H13    977 0.25916100   1.008000   ; qtot 37.828745
  978         hn     37    bbb    H25    978 0.17125500   1.008000   ; qtot 38.000000
; residue   38 bbb rtp bbb q 1.0
  979         n4     38    bbb     N1    979 -0.02747900  14.010000   ; qtot 37.972521
  980         c3     38    bbb     C1    980 -0.05097600  12.010000   ; qtot 37.921545
  981         c3     38    bbb     C2    981 -0.05097600  12.010000   ; qtot 37.870569
  982         c3     38    bbb     C3    982 -0.18457900  12.010000   ; qtot 37.685990
  983          c     38    bbb     C4    983 0.67254400  12.010000   ; qtot 38.358534
  984         c3     38    bbb     C5    984 -0.18457900  12.010000   ; qtot 38.173955
  985          c     38    bbb     C6    985 0.67254400  12.010000   ; qtot 38.846499
  986         c3     38    bbb     C7    986 -0.02083000  12.010000   ; qtot 38.825669
  987         c3     38    bbb     C8    987 -0.03328100  12.010000   ; qtot 38.792388
  988          n     38    bbb     N2    988 -0.33303000  14.010000   ; qtot 38.459358
  989          o     38    bbb     O1    989 -0.52917200  16.000000   ; qtot 37.930186
  990          o     38    bbb     O2    990 -0.52917200  16.000000   ; qtot 37.401014
  991         hx     38    bbb     H1    991 0.11563300   1.008000   ; qtot 37.516647
  992         hx     38    bbb     H2    992 0.11563300   1.008000   ; qtot 37.632280
  993         hx     38    bbb     H3    993 0.11563300   1.008000   ; qtot 37.747913
  994         hx     38    bbb     H4    994 0.11563300   1.008000   ; qtot 37.863546
  995         hc     38    bbb     H5    995 0.08347900   1.008000   ; qtot 37.947025
  996         hc     38    bbb     H6    996 0.08347900   1.008000   ; qtot 38.030504
  997         hc     38    bbb     H7    997 0.08347900   1.008000   ; qtot 38.113983
  998         hc     38    bbb     H8    998 0.08347900   1.008000   ; qtot 38.197462
  999         hx     38    bbb     H9    999 0.07988000   1.008000   ; qtot 38.277342
 1000         hx     38    bbb    H10   1000 0.07988000   1.008000   ; qtot 38.357222
 1001         h1     38    bbb    H11   1001 0.10618100   1.008000   ; qtot 38.463403
 1002         h1     38    bbb    H12   1002 0.10618100   1.008000   ; qtot 38.569584
 1003         hn     38    bbb    H13   1003 0.25916100   1.008000   ; qtot 38.828745
 1004         hn     38    bbb    H25   1004 0.17125500   1.008000   ; qtot 39.000000
; residue   39 bbb rtp bbb q 1.0
 1005         n4     39    bbb     N1   1005 -0.02747900  14.010000   ; qtot 38.972521
 1006         c3     39    bbb     C1   1006 -0.05097600  12.010000   ; qtot 38.921545
 1007         c3     39    bbb     C2   1007 -0.05097600  12.010000   ; qtot 38.870569
 1008         c3     39    bbb     C3   1008 -0.18457900  12.010000   ; qtot 38.685990
 1009          c     39    bbb     C4   1009 0.67254400  12.010000   ; qtot 39.358534
 1010         c3     39    bbb     C5   1010 -0.18457900  12.010000   ; qtot 39.173955
 1011          c     39    bbb     C6   1011 0.67254400  12.010000   ; qtot 39.846499
 1012         c3     39    bbb     C7   1012 -0.02083000  12.010000   ; qtot 39.825669
 1013         c3     39    bbb     C8   1013 -0.03328100  12.010000   ; qtot 39.792388
 1014          n     39    bbb     N2   1014 -0.33303000  14.010000   ; qtot 39.459358
 1015          o     39    bbb     O1   1015 -0.52917200  16.000000   ; qtot 38.930186
 1016          o     39    bbb     O2   1016 -0.52917200  16.000000   ; qtot 38.401014
 1017         hx     39    bbb     H1   1017 0.11563300   1.008000   ; qtot 38.516647
 1018         hx     39    bbb     H2   1018 0.11563300   1.008000   ; qtot 38.632280
 1019         hx     39    bbb     H3   1019 0.11563300   1.008000   ; qtot 38.747913
 1020         hx     39    bbb     H4   1020 0.11563300   1.008000   ; qtot 38.863546
 1021         hc     39    bbb     H5   1021 0.08347900   1.008000   ; qtot 38.947025
 1022         hc     39    bbb     H6   1022 0.08347900   1.008000   ; qtot 39.030504
 1023         hc     39    bbb     H7   1023 0.08347900   1.008000   ; qtot 39.113983
 1024         hc     39    bbb     H8   1024 0.08347900   1.008000   ; qtot 39.197462
 1025         hx     39    bbb     H9   1025 0.07988000   1.008000   ; qtot 39.277342
 1026         hx     39    bbb    H10   1026 0.07988000   1.008000   ; qtot 39.357222
 1027         h1     39    bbb    H11   1027 0.10618100   1.008000   ; qtot 39.463403
 1028         h1     39    bbb    H12   1028 0.10618100   1.008000   ; qtot 39.569584
 1029         hn     39    bbb    H13   1029 0.25916100   1.008000   ; qtot 39.828745
 1030         hn     39    bbb    H25   1030 0.17125500   1.008000   ; qtot 40.000000
; residue   40 bbb rtp bbb q 1.0
 1031         n4     40    bbb     N1   1031 -0.02747900  14.010000   ; qtot 39.972521
 1032         c3     40    bbb     C1   1032 -0.05097600  12.010000   ; qtot 39.921545
 1033         c3     40    bbb     C2   1033 -0.05097600  12.010000   ; qtot 39.870569
 1034         c3     40    bbb     C3   1034 -0.18457900  12.010000   ; qtot 39.685990
 1035          c     40    bbb     C4   1035 0.67254400  12.010000   ; qtot 40.358534
 1036         c3     40    bbb     C5   1036 -0.18457900  12.010000   ; qtot 40.173955
 1037          c     40    bbb     C6   1037 0.67254400  12.010000   ; qtot 40.846499
 1038         c3     40    bbb     C7   1038 -0.02083000  12.010000   ; qtot 40.825669
 1039         c3     40    bbb     C8   1039 -0.03328100  12.010000   ; qtot 40.792388
 1040          n     40    bbb     N2   1040 -0.33303000  14.010000   ; qtot 40.459358
 1041          o     40    bbb     O1   1041 -0.52917200  16.000000   ; qtot 39.930186
 1042          o     40    bbb     O2   1042 -0.52917200  16.000000   ; qtot 39.401014
 1043         hx     40    bbb     H1   1043 0.11563300   1.008000   ; qtot 39.516647
 1044         hx     40    bbb     H2   1044 0.11563300   1.008000   ; qtot 39.632280
 1045         hx     40    bbb     H3   1045 0.11563300   1.008000   ; qtot 39.747913
 1046         hx     40    bbb     H4   1046 0.11563300   1.008000   ; qtot 39.863546
 1047         hc     40    bbb     H5   1047 0.08347900   1.008000   ; qtot 39.947025
 1048         hc     40    bbb     H6   1048 0.08347900   1.008000   ; qtot 40.030504
 1049         hc     40    bbb     H7   1049 0.08347900   1.008000   ; qtot 40.113983
 1050         hc     40    bbb     H8   1050 0.08347900   1.008000   ; qtot 40.197462
 1051         hx     40    bbb     H9   1051 0.07988000   1.008000   ; qtot 40.277342
 1052         hx     40    bbb    H10   1052 0.07988000   1.008000   ; qtot 40.357222
 1053         h1     40    bbb    H11   1053 0.10618100   1.008000   ; qtot 40.463403
 1054         h1     40    bbb    H12   1054 0.10618100   1.008000   ; qtot 40.569584
 1055         hn     40    bbb    H13   1055 0.25916100   1.008000   ; qtot 40.828745
 1056         hn     40    bbb    H25   1056 0.17125500   1.008000   ; qtot 41.000000
; residue   41 bbb rtp bbb q 1.0
 1057         n4     41    bbb     N1   1057 -0.02747900  14.010000   ; qtot 40.972521
 1058         c3     41    bbb     C1   1058 -0.05097600  12.010000   ; qtot 40.921545
 1059         c3     41    bbb     C2   1059 -0.05097600  12.010000   ; qtot 40.870569
 1060         c3     41    bbb     C3   1060 -0.18457900  12.010000   ; qtot 40.685990
 1061          c     41    bbb     C4   1061 0.67254400  12.010000   ; qtot 41.358534
 1062         c3     41    bbb     C5   1062 -0.18457900  12.010000   ; qtot 41.173955
 1063          c     41    bbb     C6   1063 0.67254400  12.010000   ; qtot 41.846499
 1064         c3     41    bbb     C7   1064 -0.02083000  12.010000   ; qtot 41.825669
 1065         c3     41    bbb     C8   1065 -0.03328100  12.010000   ; qtot 41.792388
 1066          n     41    bbb     N2   1066 -0.33303000  14.010000   ; qtot 41.459358
 1067          o     41    bbb     O1   1067 -0.52917200  16.000000   ; qtot 40.930186
 1068          o     41    bbb     O2   1068 -0.52917200  16.000000   ; qtot 40.401014
 1069         hx     41    bbb     H1   1069 0.11563300   1.008000   ; qtot 40.516647
 1070         hx     41    bbb     H2   1070 0.11563300   1.008000   ; qtot 40.632280
 1071         hx     41    bbb     H3   1071 0.11563300   1.008000   ; qtot 40.747913
 1072         hx     41    bbb     H4   1072 0.11563300   1.008000   ; qtot 40.863546
 1073         hc     41    bbb     H5   1073 0.08347900   1.008000   ; qtot 40.947025
 1074         hc     41    bbb     H6   1074 0.08347900   1.008000   ; qtot 41.030504
 1075         hc     41    bbb     H7   1075 0.08347900   1.008000   ; qtot 41.113983
 1076         hc     41    bbb     H8   1076 0.08347900   1.008000   ; qtot 41.197462
 1077         hx     41    bbb     H9   1077 0.07988000   1.008000   ; qtot 41.277342
 1078         hx     41    bbb    H10   1078 0.07988000   1.008000   ; qtot 41.357222
 1079         h1     41    bbb    H11   1079 0.10618100   1.008000   ; qtot 41.463403
 1080         h1     41    bbb    H12   1080 0.10618100   1.008000   ; qtot 41.569584
 1081         hn     41    bbb    H13   1081 0.25916100   1.008000   ; qtot 41.828745
 1082         hn     41    bbb    H25   1082 0.17125500   1.008000   ; qtot 42.000000
; residue   42 bbb rtp bbb q 1.0
 1083         n4     42    bbb     N1   1083 -0.02747900  14.010000   ; qtot 41.972521
 1084         c3     42    bbb     C1   1084 -0.05097600  12.010000   ; qtot 41.921545
 1085         c3     42    bbb     C2   1085 -0.05097600  12.010000   ; qtot 41.870569
 1086         c3     42    bbb     C3   1086 -0.18457900  12.010000   ; qtot 41.685990
 1087          c     42    bbb     C4   1087 0.67254400  12.010000   ; qtot 42.358534
 1088         c3     42    bbb     C5   1088 -0.18457900  12.010000   ; qtot 42.173955
 1089          c     42    bbb     C6   1089 0.67254400  12.010000   ; qtot 42.846499
 1090         c3     42    bbb     C7   1090 -0.02083000  12.010000   ; qtot 42.825669
 1091         c3     42    bbb     C8   1091 -0.03328100  12.010000   ; qtot 42.792388
 1092          n     42    bbb     N2   1092 -0.33303000  14.010000   ; qtot 42.459358
 1093          o     42    bbb     O1   1093 -0.52917200  16.000000   ; qtot 41.930186
 1094          o     42    bbb     O2   1094 -0.52917200  16.000000   ; qtot 41.401014
 1095         hx     42    bbb     H1   1095 0.11563300   1.008000   ; qtot 41.516647
 1096         hx     42    bbb     H2   1096 0.11563300   1.008000   ; qtot 41.632280
 1097         hx     42    bbb     H3   1097 0.11563300   1.008000   ; qtot 41.747913
 1098         hx     42    bbb     H4   1098 0.11563300   1.008000   ; qtot 41.863546
 1099         hc     42    bbb     H5   1099 0.08347900   1.008000   ; qtot 41.947025
 1100         hc     42    bbb     H6   1100 0.08347900   1.008000   ; qtot 42.030504
 1101         hc     42    bbb     H7   1101 0.08347900   1.008000   ; qtot 42.113983
 1102         hc     42    bbb     H8   1102 0.08347900   1.008000   ; qtot 42.197462
 1103         hx     42    bbb     H9   1103 0.07988000   1.008000   ; qtot 42.277342
 1104         hx     42    bbb    H10   1104 0.07988000   1.008000   ; qtot 42.357222
 1105         h1     42    bbb    H11   1105 0.10618100   1.008000   ; qtot 42.463403
 1106         h1     42    bbb    H12   1106 0.10618100   1.008000   ; qtot 42.569584
 1107         hn     42    bbb    H13   1107 0.25916100   1.008000   ; qtot 42.828745
 1108         hn     42    bbb    H25   1108 0.17125500   1.008000   ; qtot 43.000000
; residue   43 bbb rtp bbb q 1.0
 1109         n4     43    bbb     N1   1109 -0.02747900  14.010000   ; qtot 42.972521
 1110         c3     43    bbb     C1   1110 -0.05097600  12.010000   ; qtot 42.921545
 1111         c3     43    bbb     C2   1111 -0.05097600  12.010000   ; qtot 42.870569
 1112         c3     43    bbb     C3   1112 -0.18457900  12.010000   ; qtot 42.685990
 1113          c     43    bbb     C4   1113 0.67254400  12.010000   ; qtot 43.358534
 1114         c3     43    bbb     C5   1114 -0.18457900  12.010000   ; qtot 43.173955
 1115          c     43    bbb     C6   1115 0.67254400  12.010000   ; qtot 43.846499
 1116         c3     43    bbb     C7   1116 -0.02083000  12.010000   ; qtot 43.825669
 1117         c3     43    bbb     C8   1117 -0.03328100  12.010000   ; qtot 43.792388
 1118          n     43    bbb     N2   1118 -0.33303000  14.010000   ; qtot 43.459358
 1119          o     43    bbb     O1   1119 -0.52917200  16.000000   ; qtot 42.930186
 1120          o     43    bbb     O2   1120 -0.52917200  16.000000   ; qtot 42.401014
 1121         hx     43    bbb     H1   1121 0.11563300   1.008000   ; qtot 42.516647
 1122         hx     43    bbb     H2   1122 0.11563300   1.008000   ; qtot 42.632280
 1123         hx     43    bbb     H3   1123 0.11563300   1.008000   ; qtot 42.747913
 1124         hx     43    bbb     H4   1124 0.11563300   1.008000   ; qtot 42.863546
 1125         hc     43    bbb     H5   1125 0.08347900   1.008000   ; qtot 42.947025
 1126         hc     43    bbb     H6   1126 0.08347900   1.008000   ; qtot 43.030504
 1127         hc     43    bbb     H7   1127 0.08347900   1.008000   ; qtot 43.113983
 1128         hc     43    bbb     H8   1128 0.08347900   1.008000   ; qtot 43.197462
 1129         hx     43    bbb     H9   1129 0.07988000   1.008000   ; qtot 43.277342
 1130         hx     43    bbb    H10   1130 0.07988000   1.008000   ; qtot 43.357222
 1131         h1     43    bbb    H11   1131 0.10618100   1.008000   ; qtot 43.463403
 1132         h1     43    bbb    H12   1132 0.10618100   1.008000   ; qtot 43.569584
 1133         hn     43    bbb    H13   1133 0.25916100   1.008000   ; qtot 43.828745
 1134         hn     43    bbb    H25   1134 0.17125500   1.008000   ; qtot 44.000000
; residue   44 bbb rtp bbb q 1.0
 1135         n4     44    bbb     N1   1135 -0.02747900  14.010000   ; qtot 43.972521
 1136         c3     44    bbb     C1   1136 -0.05097600  12.010000   ; qtot 43.921545
 1137         c3     44    bbb     C2   1137 -0.05097600  12.010000   ; qtot 43.870569
 1138         c3     44    bbb     C3   1138 -0.18457900  12.010000   ; qtot 43.685990
 1139          c     44    bbb     C4   1139 0.67254400  12.010000   ; qtot 44.358534
 1140         c3     44    bbb     C5   1140 -0.18457900  12.010000   ; qtot 44.173955
 1141          c     44    bbb     C6   1141 0.67254400  12.010000   ; qtot 44.846499
 1142         c3     44    bbb     C7   1142 -0.02083000  12.010000   ; qtot 44.825669
 1143         c3     44    bbb     C8   1143 -0.03328100  12.010000   ; qtot 44.792388
 1144          n     44    bbb     N2   1144 -0.33303000  14.010000   ; qtot 44.459358
 1145          o     44    bbb     O1   1145 -0.52917200  16.000000   ; qtot 43.930186
 1146          o     44    bbb     O2   1146 -0.52917200  16.000000   ; qtot 43.401014
 1147         hx     44    bbb     H1   1147 0.11563300   1.008000   ; qtot 43.516647
 1148         hx     44    bbb     H2   1148 0.11563300   1.008000   ; qtot 43.632280
 1149         hx     44    bbb     H3   1149 0.11563300   1.008000   ; qtot 43.747913
 1150         hx     44    bbb     H4   1150 0.11563300   1.008000   ; qtot 43.863546
 1151         hc     44    bbb     H5   1151 0.08347900   1.008000   ; qtot 43.947025
 1152         hc     44    bbb     H6   1152 0.08347900   1.008000   ; qtot 44.030504
 1153         hc     44    bbb     H7   1153 0.08347900   1.008000   ; qtot 44.113983
 1154         hc     44    bbb     H8   1154 0.08347900   1.008000   ; qtot 44.197462
 1155         hx     44    bbb     H9   1155 0.07988000   1.008000   ; qtot 44.277342
 1156         hx     44    bbb    H10   1156 0.07988000   1.008000   ; qtot 44.357222
 1157         h1     44    bbb    H11   1157 0.10618100   1.008000   ; qtot 44.463403
 1158         h1     44    bbb    H12   1158 0.10618100   1.008000   ; qtot 44.569584
 1159         hn     44    bbb    H13   1159 0.25916100   1.008000   ; qtot 44.828745
 1160         hn     44    bbb    H25   1160 0.17125500   1.008000   ; qtot 45.000000
; residue   45 bbb rtp bbb q 1.0
 1161         n4     45    bbb     N1   1161 -0.02747900  14.010000   ; qtot 44.972521
 1162         c3     45    bbb     C1   1162 -0.05097600  12.010000   ; qtot 44.921545
 1163         c3     45    bbb     C2   1163 -0.05097600  12.010000   ; qtot 44.870569
 1164         c3     45    bbb     C3   1164 -0.18457900  12.010000   ; qtot 44.685990
 1165          c     45    bbb     C4   1165 0.67254400  12.010000   ; qtot 45.358534
 1166         c3     45    bbb     C5   1166 -0.18457900  12.010000   ; qtot 45.173955
 1167          c     45    bbb     C6   1167 0.67254400  12.010000   ; qtot 45.846499
 1168         c3     45    bbb     C7   1168 -0.02083000  12.010000   ; qtot 45.825669
 1169         c3     45    bbb     C8   1169 -0.03328100  12.010000   ; qtot 45.792388
 1170          n     45    bbb     N2   1170 -0.33303000  14.010000   ; qtot 45.459358
 1171          o     45    bbb     O1   1171 -0.52917200  16.000000   ; qtot 44.930186
 1172          o     45    bbb     O2   1172 -0.52917200  16.000000   ; qtot 44.401014
 1173         hx     45    bbb     H1   1173 0.11563300   1.008000   ; qtot 44.516647
 1174         hx     45    bbb     H2   1174 0.11563300   1.008000   ; qtot 44.632280
 1175         hx     45    bbb     H3   1175 0.11563300   1.008000   ; qtot 44.747913
 1176         hx     45    bbb     H4   1176 0.11563300   1.008000   ; qtot 44.863546
 1177         hc     45    bbb     H5   1177 0.08347900   1.008000   ; qtot 44.947025
 1178         hc     45    bbb     H6   1178 0.08347900   1.008000   ; qtot 45.030504
 1179         hc     45    bbb     H7   1179 0.08347900   1.008000   ; qtot 45.113983
 1180         hc     45    bbb     H8   1180 0.08347900   1.008000   ; qtot 45.197462
 1181         hx     45    bbb     H9   1181 0.07988000   1.008000   ; qtot 45.277342
 1182         hx     45    bbb    H10   1182 0.07988000   1.008000   ; qtot 45.357222
 1183         h1     45    bbb    H11   1183 0.10618100   1.008000   ; qtot 45.463403
 1184         h1     45    bbb    H12   1184 0.10618100   1.008000   ; qtot 45.569584
 1185         hn     45    bbb    H13   1185 0.25916100   1.008000   ; qtot 45.828745
 1186         hn     45    bbb    H25   1186 0.17125500   1.008000   ; qtot 46.000000
; residue   46 bbb rtp bbb q 1.0
 1187         n4     46    bbb     N1   1187 -0.02747900  14.010000   ; qtot 45.972521
 1188         c3     46    bbb     C1   1188 -0.05097600  12.010000   ; qtot 45.921545
 1189         c3     46    bbb     C2   1189 -0.05097600  12.010000   ; qtot 45.870569
 1190         c3     46    bbb     C3   1190 -0.18457900  12.010000   ; qtot 45.685990
 1191          c     46    bbb     C4   1191 0.67254400  12.010000   ; qtot 46.358534
 1192         c3     46    bbb     C5   1192 -0.18457900  12.010000   ; qtot 46.173955
 1193          c     46    bbb     C6   1193 0.67254400  12.010000   ; qtot 46.846499
 1194         c3     46    bbb     C7   1194 -0.02083000  12.010000   ; qtot 46.825669
 1195         c3     46    bbb     C8   1195 -0.03328100  12.010000   ; qtot 46.792388
 1196          n     46    bbb     N2   1196 -0.33303000  14.010000   ; qtot 46.459358
 1197          o     46    bbb     O1   1197 -0.52917200  16.000000   ; qtot 45.930186
 1198          o     46    bbb     O2   1198 -0.52917200  16.000000   ; qtot 45.401014
 1199         hx     46    bbb     H1   1199 0.11563300   1.008000   ; qtot 45.516647
 1200         hx     46    bbb     H2   1200 0.11563300   1.008000   ; qtot 45.632280
 1201         hx     46    bbb     H3   1201 0.11563300   1.008000   ; qtot 45.747913
 1202         hx     46    bbb     H4   1202 0.11563300   1.008000   ; qtot 45.863546
 1203         hc     46    bbb     H5   1203 0.08347900   1.008000   ; qtot 45.947025
 1204         hc     46    bbb     H6   1204 0.08347900   1.008000   ; qtot 46.030504
 1205         hc     46    bbb     H7   1205 0.08347900   1.008000   ; qtot 46.113983
 1206         hc     46    bbb     H8   1206 0.08347900   1.008000   ; qtot 46.197462
 1207         hx     46    bbb     H9   1207 0.07988000   1.008000   ; qtot 46.277342
 1208         hx     46    bbb    H10   1208 0.07988000   1.008000   ; qtot 46.357222
 1209         h1     46    bbb    H11   1209 0.10618100   1.008000   ; qtot 46.463403
 1210         h1     46    bbb    H12   1210 0.10618100   1.008000   ; qtot 46.569584
 1211         hn     46    bbb    H13   1211 0.25916100   1.008000   ; qtot 46.828745
 1212         hn     46    bbb    H25   1212 0.17125500   1.008000   ; qtot 47.000000
; residue   47 bbb rtp bbb q 1.0
 1213         n4     47    bbb     N1   1213 -0.02747900  14.010000   ; qtot 46.972521
 1214         c3     47    bbb     C1   1214 -0.05097600  12.010000   ; qtot 46.921545
 1215         c3     47    bbb     C2   1215 -0.05097600  12.010000   ; qtot 46.870569
 1216         c3     47    bbb     C3   1216 -0.18457900  12.010000   ; qtot 46.685990
 1217          c     47    bbb     C4   1217 0.67254400  12.010000   ; qtot 47.358534
 1218         c3     47    bbb     C5   1218 -0.18457900  12.010000   ; qtot 47.173955
 1219          c     47    bbb     C6   1219 0.67254400  12.010000   ; qtot 47.846499
 1220         c3     47    bbb     C7   1220 -0.02083000  12.010000   ; qtot 47.825669
 1221         c3     47    bbb     C8   1221 -0.03328100  12.010000   ; qtot 47.792388
 1222          n     47    bbb     N2   1222 -0.33303000  14.010000   ; qtot 47.459358
 1223          o     47    bbb     O1   1223 -0.52917200  16.000000   ; qtot 46.930186
 1224          o     47    bbb     O2   1224 -0.52917200  16.000000   ; qtot 46.401014
 1225         hx     47    bbb     H1   1225 0.11563300   1.008000   ; qtot 46.516647
 1226         hx     47    bbb     H2   1226 0.11563300   1.008000   ; qtot 46.632280
 1227         hx     47    bbb     H3   1227 0.11563300   1.008000   ; qtot 46.747913
 1228         hx     47    bbb     H4   1228 0.11563300   1.008000   ; qtot 46.863546
 1229         hc     47    bbb     H5   1229 0.08347900   1.008000   ; qtot 46.947025
 1230         hc     47    bbb     H6   1230 0.08347900   1.008000   ; qtot 47.030504
 1231         hc     47    bbb     H7   1231 0.08347900   1.008000   ; qtot 47.113983
 1232         hc     47    bbb     H8   1232 0.08347900   1.008000   ; qtot 47.197462
 1233         hx     47    bbb     H9   1233 0.07988000   1.008000   ; qtot 47.277342
 1234         hx     47    bbb    H10   1234 0.07988000   1.008000   ; qtot 47.357222
 1235         h1     47    bbb    H11   1235 0.10618100   1.008000   ; qtot 47.463403
 1236         h1     47    bbb    H12   1236 0.10618100   1.008000   ; qtot 47.569584
 1237         hn     47    bbb    H13   1237 0.25916100   1.008000   ; qtot 47.828745
 1238         hn     47    bbb    H25   1238 0.17125500   1.008000   ; qtot 48.000000
; residue   48 bbb rtp bbb q 1.0
 1239         n4     48    bbb     N1   1239 -0.02747900  14.010000   ; qtot 47.972521
 1240         c3     48    bbb     C1   1240 -0.05097600  12.010000   ; qtot 47.921545
 1241         c3     48    bbb     C2   1241 -0.05097600  12.010000   ; qtot 47.870569
 1242         c3     48    bbb     C3   1242 -0.18457900  12.010000   ; qtot 47.685990
 1243          c     48    bbb     C4   1243 0.67254400  12.010000   ; qtot 48.358534
 1244         c3     48    bbb     C5   1244 -0.18457900  12.010000   ; qtot 48.173955
 1245          c     48    bbb     C6   1245 0.67254400  12.010000   ; qtot 48.846499
 1246         c3     48    bbb     C7   1246 -0.02083000  12.010000   ; qtot 48.825669
 1247         c3     48    bbb     C8   1247 -0.03328100  12.010000   ; qtot 48.792388
 1248          n     48    bbb     N2   1248 -0.33303000  14.010000   ; qtot 48.459358
 1249          o     48    bbb     O1   1249 -0.52917200  16.000000   ; qtot 47.930186
 1250          o     48    bbb     O2   1250 -0.52917200  16.000000   ; qtot 47.401014
 1251         hx     48    bbb     H1   1251 0.11563300   1.008000   ; qtot 47.516647
 1252         hx     48    bbb     H2   1252 0.11563300   1.008000   ; qtot 47.632280
 1253         hx     48    bbb     H3   1253 0.11563300   1.008000   ; qtot 47.747913
 1254         hx     48    bbb     H4   1254 0.11563300   1.008000   ; qtot 47.863546
 1255         hc     48    bbb     H5   1255 0.08347900   1.008000   ; qtot 47.947025
 1256         hc     48    bbb     H6   1256 0.08347900   1.008000   ; qtot 48.030504
 1257         hc     48    bbb     H7   1257 0.08347900   1.008000   ; qtot 48.113983
 1258         hc     48    bbb     H8   1258 0.08347900   1.008000   ; qtot 48.197462
 1259         hx     48    bbb     H9   1259 0.07988000   1.008000   ; qtot 48.277342
 1260         hx     48    bbb    H10   1260 0.07988000   1.008000   ; qtot 48.357222
 1261         h1     48    bbb    H11   1261 0.10618100   1.008000   ; qtot 48.463403
 1262         h1     48    bbb    H12   1262 0.10618100   1.008000   ; qtot 48.569584
 1263         hn     48    bbb    H13   1263 0.25916100   1.008000   ; qtot 48.828745
 1264         hn     48    bbb    H25   1264 0.17125500   1.008000   ; qtot 49.000000
; residue   49 bbb rtp bbb q 1.0
 1265         n4     49    bbb     N1   1265 -0.02747900  14.010000   ; qtot 48.972521
 1266         c3     49    bbb     C1   1266 -0.05097600  12.010000   ; qtot 48.921545
 1267         c3     49    bbb     C2   1267 -0.05097600  12.010000   ; qtot 48.870569
 1268         c3     49    bbb     C3   1268 -0.18457900  12.010000   ; qtot 48.685990
 1269          c     49    bbb     C4   1269 0.67254400  12.010000   ; qtot 49.358534
 1270         c3     49    bbb     C5   1270 -0.18457900  12.010000   ; qtot 49.173955
 1271          c     49    bbb     C6   1271 0.67254400  12.010000   ; qtot 49.846499
 1272         c3     49    bbb     C7   1272 -0.02083000  12.010000   ; qtot 49.825669
 1273         c3     49    bbb     C8   1273 -0.03328100  12.010000   ; qtot 49.792388
 1274          n     49    bbb     N2   1274 -0.33303000  14.010000   ; qtot 49.459358
 1275          o     49    bbb     O1   1275 -0.52917200  16.000000   ; qtot 48.930186
 1276          o     49    bbb     O2   1276 -0.52917200  16.000000   ; qtot 48.401014
 1277         hx     49    bbb     H1   1277 0.11563300   1.008000   ; qtot 48.516647
 1278         hx     49    bbb     H2   1278 0.11563300   1.008000   ; qtot 48.632280
 1279         hx     49    bbb     H3   1279 0.11563300   1.008000   ; qtot 48.747913
 1280         hx     49    bbb     H4   1280 0.11563300   1.008000   ; qtot 48.863546
 1281         hc     49    bbb     H5   1281 0.08347900   1.008000   ; qtot 48.947025
 1282         hc     49    bbb     H6   1282 0.08347900   1.008000   ; qtot 49.030504
 1283         hc     49    bbb     H7   1283 0.08347900   1.008000   ; qtot 49.113983
 1284         hc     49    bbb     H8   1284 0.08347900   1.008000   ; qtot 49.197462
 1285         hx     49    bbb     H9   1285 0.07988000   1.008000   ; qtot 49.277342
 1286         hx     49    bbb    H10   1286 0.07988000   1.008000   ; qtot 49.357222
 1287         h1     49    bbb    H11   1287 0.10618100   1.008000   ; qtot 49.463403
 1288         h1     49    bbb    H12   1288 0.10618100   1.008000   ; qtot 49.569584
 1289         hn     49    bbb    H13   1289 0.25916100   1.008000   ; qtot 49.828745
 1290         hn     49    bbb    H25   1290 0.17125500   1.008000   ; qtot 50.000000
; residue   50 bbb rtp bbb q 1.0
 1291         n4     50    bbb     N1   1291 -0.02747900  14.010000   ; qtot 49.972521
 1292         c3     50    bbb     C1   1292 -0.05097600  12.010000   ; qtot 49.921545
 1293         c3     50    bbb     C2   1293 -0.05097600  12.010000   ; qtot 49.870569
 1294         c3     50    bbb     C3   1294 -0.18457900  12.010000   ; qtot 49.685990
 1295          c     50    bbb     C4   1295 0.67254400  12.010000   ; qtot 50.358534
 1296         c3     50    bbb     C5   1296 -0.18457900  12.010000   ; qtot 50.173955
 1297          c     50    bbb     C6   1297 0.67254400  12.010000   ; qtot 50.846499
 1298         c3     50    bbb     C7   1298 -0.02083000  12.010000   ; qtot 50.825669
 1299         c3     50    bbb     C8   1299 -0.03328100  12.010000   ; qtot 50.792388
 1300          n     50    bbb     N2   1300 -0.33303000  14.010000   ; qtot 50.459358
 1301          o     50    bbb     O1   1301 -0.52917200  16.000000   ; qtot 49.930186
 1302          o     50    bbb     O2   1302 -0.52917200  16.000000   ; qtot 49.401014
 1303         hx     50    bbb     H1   1303 0.11563300   1.008000   ; qtot 49.516647
 1304         hx     50    bbb     H2   1304 0.11563300   1.008000   ; qtot 49.632280
 1305         hx     50    bbb     H3   1305 0.11563300   1.008000   ; qtot 49.747913
 1306         hx     50    bbb     H4   1306 0.11563300   1.008000   ; qtot 49.863546
 1307         hc     50    bbb     H5   1307 0.08347900   1.008000   ; qtot 49.947025
 1308         hc     50    bbb     H6   1308 0.08347900   1.008000   ; qtot 50.030504
 1309         hc     50    bbb     H7   1309 0.08347900   1.008000   ; qtot 50.113983
 1310         hc     50    bbb     H8   1310 0.08347900   1.008000   ; qtot 50.197462
 1311         hx     50    bbb     H9   1311 0.07988000   1.008000   ; qtot 50.277342
 1312         hx     50    bbb    H10   1312 0.07988000   1.008000   ; qtot 50.357222
 1313         h1     50    bbb    H11   1313 0.10618100   1.008000   ; qtot 50.463403
 1314         h1     50    bbb    H12   1314 0.10618100   1.008000   ; qtot 50.569584
 1315         hn     50    bbb    H13   1315 0.25916100   1.008000   ; qtot 50.828745
 1316         hn     50    bbb    H25   1316 0.17125500   1.008000   ; qtot 51.000000
; residue   51 bbb rtp bbb q 1.0
 1317         n4     51    bbb     N1   1317 -0.02747900  14.010000   ; qtot 50.972521
 1318         c3     51    bbb     C1   1318 -0.05097600  12.010000   ; qtot 50.921545
 1319         c3     51    bbb     C2   1319 -0.05097600  12.010000   ; qtot 50.870569
 1320         c3     51    bbb     C3   1320 -0.18457900  12.010000   ; qtot 50.685990
 1321          c     51    bbb     C4   1321 0.67254400  12.010000   ; qtot 51.358534
 1322         c3     51    bbb     C5   1322 -0.18457900  12.010000   ; qtot 51.173955
 1323          c     51    bbb     C6   1323 0.67254400  12.010000   ; qtot 51.846499
 1324         c3     51    bbb     C7   1324 -0.02083000  12.010000   ; qtot 51.825669
 1325         c3     51    bbb     C8   1325 -0.03328100  12.010000   ; qtot 51.792388
 1326          n     51    bbb     N2   1326 -0.33303000  14.010000   ; qtot 51.459358
 1327          o     51    bbb     O1   1327 -0.52917200  16.000000   ; qtot 50.930186
 1328          o     51    bbb     O2   1328 -0.52917200  16.000000   ; qtot 50.401014
 1329         hx     51    bbb     H1   1329 0.11563300   1.008000   ; qtot 50.516647
 1330         hx     51    bbb     H2   1330 0.11563300   1.008000   ; qtot 50.632280
 1331         hx     51    bbb     H3   1331 0.11563300   1.008000   ; qtot 50.747913
 1332         hx     51    bbb     H4   1332 0.11563300   1.008000   ; qtot 50.863546
 1333         hc     51    bbb     H5   1333 0.08347900   1.008000   ; qtot 50.947025
 1334         hc     51    bbb     H6   1334 0.08347900   1.008000   ; qtot 51.030504
 1335         hc     51    bbb     H7   1335 0.08347900   1.008000   ; qtot 51.113983
 1336         hc     51    bbb     H8   1336 0.08347900   1.008000   ; qtot 51.197462
 1337         hx     51    bbb     H9   1337 0.07988000   1.008000   ; qtot 51.277342
 1338         hx     51    bbb    H10   1338 0.07988000   1.008000   ; qtot 51.357222
 1339         h1     51    bbb    H11   1339 0.10618100   1.008000   ; qtot 51.463403
 1340         h1     51    bbb    H12   1340 0.10618100   1.008000   ; qtot 51.569584
 1341         hn     51    bbb    H13   1341 0.25916100   1.008000   ; qtot 51.828745
 1342         hn     51    bbb    H25   1342 0.17125500   1.008000   ; qtot 52.000000
; residue   52 bbb rtp bbb q 1.0
 1343         n4     52    bbb     N1   1343 -0.02747900  14.010000   ; qtot 51.972521
 1344         c3     52    bbb     C1   1344 -0.05097600  12.010000   ; qtot 51.921545
 1345         c3     52    bbb     C2   1345 -0.05097600  12.010000   ; qtot 51.870569
 1346         c3     52    bbb     C3   1346 -0.18457900  12.010000   ; qtot 51.685990
 1347          c     52    bbb     C4   1347 0.67254400  12.010000   ; qtot 52.358534
 1348         c3     52    bbb     C5   1348 -0.18457900  12.010000   ; qtot 52.173955
 1349          c     52    bbb     C6   1349 0.67254400  12.010000   ; qtot 52.846499
 1350         c3     52    bbb     C7   1350 -0.02083000  12.010000   ; qtot 52.825669
 1351         c3     52    bbb     C8   1351 -0.03328100  12.010000   ; qtot 52.792388
 1352          n     52    bbb     N2   1352 -0.33303000  14.010000   ; qtot 52.459358
 1353          o     52    bbb     O1   1353 -0.52917200  16.000000   ; qtot 51.930186
 1354          o     52    bbb     O2   1354 -0.52917200  16.000000   ; qtot 51.401014
 1355         hx     52    bbb     H1   1355 0.11563300   1.008000   ; qtot 51.516647
 1356         hx     52    bbb     H2   1356 0.11563300   1.008000   ; qtot 51.632280
 1357         hx     52    bbb     H3   1357 0.11563300   1.008000   ; qtot 51.747913
 1358         hx     52    bbb     H4   1358 0.11563300   1.008000   ; qtot 51.863546
 1359         hc     52    bbb     H5   1359 0.08347900   1.008000   ; qtot 51.947025
 1360         hc     52    bbb     H6   1360 0.08347900   1.008000   ; qtot 52.030504
 1361         hc     52    bbb     H7   1361 0.08347900   1.008000   ; qtot 52.113983
 1362         hc     52    bbb     H8   1362 0.08347900   1.008000   ; qtot 52.197462
 1363         hx     52    bbb     H9   1363 0.07988000   1.008000   ; qtot 52.277342
 1364         hx     52    bbb    H10   1364 0.07988000   1.008000   ; qtot 52.357222
 1365         h1     52    bbb    H11   1365 0.10618100   1.008000   ; qtot 52.463403
 1366         h1     52    bbb    H12   1366 0.10618100   1.008000   ; qtot 52.569584
 1367         hn     52    bbb    H13   1367 0.25916100   1.008000   ; qtot 52.828745
 1368         hn     52    bbb    H25   1368 0.17125500   1.008000   ; qtot 53.000000
; residue   53 bbb rtp bbb q 1.0
 1369         n4     53    bbb     N1   1369 -0.02747900  14.010000   ; qtot 52.972521
 1370         c3     53    bbb     C1   1370 -0.05097600  12.010000   ; qtot 52.921545
 1371         c3     53    bbb     C2   1371 -0.05097600  12.010000   ; qtot 52.870569
 1372         c3     53    bbb     C3   1372 -0.18457900  12.010000   ; qtot 52.685990
 1373          c     53    bbb     C4   1373 0.67254400  12.010000   ; qtot 53.358534
 1374         c3     53    bbb     C5   1374 -0.18457900  12.010000   ; qtot 53.173955
 1375          c     53    bbb     C6   1375 0.67254400  12.010000   ; qtot 53.846499
 1376         c3     53    bbb     C7   1376 -0.02083000  12.010000   ; qtot 53.825669
 1377         c3     53    bbb     C8   1377 -0.03328100  12.010000   ; qtot 53.792388
 1378          n     53    bbb     N2   1378 -0.33303000  14.010000   ; qtot 53.459358
 1379          o     53    bbb     O1   1379 -0.52917200  16.000000   ; qtot 52.930186
 1380          o     53    bbb     O2   1380 -0.52917200  16.000000   ; qtot 52.401014
 1381         hx     53    bbb     H1   1381 0.11563300   1.008000   ; qtot 52.516647
 1382         hx     53    bbb     H2   1382 0.11563300   1.008000   ; qtot 52.632280
 1383         hx     53    bbb     H3   1383 0.11563300   1.008000   ; qtot 52.747913
 1384         hx     53    bbb     H4   1384 0.11563300   1.008000   ; qtot 52.863546
 1385         hc     53    bbb     H5   1385 0.08347900   1.008000   ; qtot 52.947025
 1386         hc     53    bbb     H6   1386 0.08347900   1.008000   ; qtot 53.030504
 1387         hc     53    bbb     H7   1387 0.08347900   1.008000   ; qtot 53.113983
 1388         hc     53    bbb     H8   1388 0.08347900   1.008000   ; qtot 53.197462
 1389         hx     53    bbb     H9   1389 0.07988000   1.008000   ; qtot 53.277342
 1390         hx     53    bbb    H10   1390 0.07988000   1.008000   ; qtot 53.357222
 1391         h1     53    bbb    H11   1391 0.10618100   1.008000   ; qtot 53.463403
 1392         h1     53    bbb    H12   1392 0.10618100   1.008000   ; qtot 53.569584
 1393         hn     53    bbb    H13   1393 0.25916100   1.008000   ; qtot 53.828745
 1394         hn     53    bbb    H25   1394 0.17125500   1.008000   ; qtot 54.000000
; residue   54 bbb rtp bbb q 1.0
 1395         n4     54    bbb     N1   1395 -0.02747900  14.010000   ; qtot 53.972521
 1396         c3     54    bbb     C1   1396 -0.05097600  12.010000   ; qtot 53.921545
 1397         c3     54    bbb     C2   1397 -0.05097600  12.010000   ; qtot 53.870569
 1398         c3     54    bbb     C3   1398 -0.18457900  12.010000   ; qtot 53.685990
 1399          c     54    bbb     C4   1399 0.67254400  12.010000   ; qtot 54.358534
 1400         c3     54    bbb     C5   1400 -0.18457900  12.010000   ; qtot 54.173955
 1401          c     54    bbb     C6   1401 0.67254400  12.010000   ; qtot 54.846499
 1402         c3     54    bbb     C7   1402 -0.02083000  12.010000   ; qtot 54.825669
 1403         c3     54    bbb     C8   1403 -0.03328100  12.010000   ; qtot 54.792388
 1404          n     54    bbb     N2   1404 -0.33303000  14.010000   ; qtot 54.459358
 1405          o     54    bbb     O1   1405 -0.52917200  16.000000   ; qtot 53.930186
 1406          o     54    bbb     O2   1406 -0.52917200  16.000000   ; qtot 53.401014
 1407         hx     54    bbb     H1   1407 0.11563300   1.008000   ; qtot 53.516647
 1408         hx     54    bbb     H2   1408 0.11563300   1.008000   ; qtot 53.632280
 1409         hx     54    bbb     H3   1409 0.11563300   1.008000   ; qtot 53.747913
 1410         hx     54    bbb     H4   1410 0.11563300   1.008000   ; qtot 53.863546
 1411         hc     54    bbb     H5   1411 0.08347900   1.008000   ; qtot 53.947025
 1412         hc     54    bbb     H6   1412 0.08347900   1.008000   ; qtot 54.030504
 1413         hc     54    bbb     H7   1413 0.08347900   1.008000   ; qtot 54.113983
 1414         hc     54    bbb     H8   1414 0.08347900   1.008000   ; qtot 54.197462
 1415         hx     54    bbb     H9   1415 0.07988000   1.008000   ; qtot 54.277342
 1416         hx     54    bbb    H10   1416 0.07988000   1.008000   ; qtot 54.357222
 1417         h1     54    bbb    H11   1417 0.10618100   1.008000   ; qtot 54.463403
 1418         h1     54    bbb    H12   1418 0.10618100   1.008000   ; qtot 54.569584
 1419         hn     54    bbb    H13   1419 0.25916100   1.008000   ; qtot 54.828745
 1420         hn     54    bbb    H25   1420 0.17125500   1.008000   ; qtot 55.000000
; residue   55 bbb rtp bbb q 1.0
 1421         n4     55    bbb     N1   1421 -0.02747900  14.010000   ; qtot 54.972521
 1422         c3     55    bbb     C1   1422 -0.05097600  12.010000   ; qtot 54.921545
 1423         c3     55    bbb     C2   1423 -0.05097600  12.010000   ; qtot 54.870569
 1424         c3     55    bbb     C3   1424 -0.18457900  12.010000   ; qtot 54.685990
 1425          c     55    bbb     C4   1425 0.67254400  12.010000   ; qtot 55.358534
 1426         c3     55    bbb     C5   1426 -0.18457900  12.010000   ; qtot 55.173955
 1427          c     55    bbb     C6   1427 0.67254400  12.010000   ; qtot 55.846499
 1428         c3     55    bbb     C7   1428 -0.02083000  12.010000   ; qtot 55.825669
 1429         c3     55    bbb     C8   1429 -0.03328100  12.010000   ; qtot 55.792388
 1430          n     55    bbb     N2   1430 -0.33303000  14.010000   ; qtot 55.459358
 1431          o     55    bbb     O1   1431 -0.52917200  16.000000   ; qtot 54.930186
 1432          o     55    bbb     O2   1432 -0.52917200  16.000000   ; qtot 54.401014
 1433         hx     55    bbb     H1   1433 0.11563300   1.008000   ; qtot 54.516647
 1434         hx     55    bbb     H2   1434 0.11563300   1.008000   ; qtot 54.632280
 1435         hx     55    bbb     H3   1435 0.11563300   1.008000   ; qtot 54.747913
 1436         hx     55    bbb     H4   1436 0.11563300   1.008000   ; qtot 54.863546
 1437         hc     55    bbb     H5   1437 0.08347900   1.008000   ; qtot 54.947025
 1438         hc     55    bbb     H6   1438 0.08347900   1.008000   ; qtot 55.030504
 1439         hc     55    bbb     H7   1439 0.08347900   1.008000   ; qtot 55.113983
 1440         hc     55    bbb     H8   1440 0.08347900   1.008000   ; qtot 55.197462
 1441         hx     55    bbb     H9   1441 0.07988000   1.008000   ; qtot 55.277342
 1442         hx     55    bbb    H10   1442 0.07988000   1.008000   ; qtot 55.357222
 1443         h1     55    bbb    H11   1443 0.10618100   1.008000   ; qtot 55.463403
 1444         h1     55    bbb    H12   1444 0.10618100   1.008000   ; qtot 55.569584
 1445         hn     55    bbb    H13   1445 0.25916100   1.008000   ; qtot 55.828745
 1446         hn     55    bbb    H25   1446 0.17125500   1.008000   ; qtot 56.000000
; residue   56 bbb rtp bbb q 1.0
 1447         n4     56    bbb     N1   1447 -0.02747900  14.010000   ; qtot 55.972521
 1448         c3     56    bbb     C1   1448 -0.05097600  12.010000   ; qtot 55.921545
 1449         c3     56    bbb     C2   1449 -0.05097600  12.010000   ; qtot 55.870569
 1450         c3     56    bbb     C3   1450 -0.18457900  12.010000   ; qtot 55.685990
 1451          c     56    bbb     C4   1451 0.67254400  12.010000   ; qtot 56.358534
 1452         c3     56    bbb     C5   1452 -0.18457900  12.010000   ; qtot 56.173955
 1453          c     56    bbb     C6   1453 0.67254400  12.010000   ; qtot 56.846499
 1454         c3     56    bbb     C7   1454 -0.02083000  12.010000   ; qtot 56.825669
 1455         c3     56    bbb     C8   1455 -0.03328100  12.010000   ; qtot 56.792388
 1456          n     56    bbb     N2   1456 -0.33303000  14.010000   ; qtot 56.459358
 1457          o     56    bbb     O1   1457 -0.52917200  16.000000   ; qtot 55.930186
 1458          o     56    bbb     O2   1458 -0.52917200  16.000000   ; qtot 55.401014
 1459         hx     56    bbb     H1   1459 0.11563300   1.008000   ; qtot 55.516647
 1460         hx     56    bbb     H2   1460 0.11563300   1.008000   ; qtot 55.632280
 1461         hx     56    bbb     H3   1461 0.11563300   1.008000   ; qtot 55.747913
 1462         hx     56    bbb     H4   1462 0.11563300   1.008000   ; qtot 55.863546
 1463         hc     56    bbb     H5   1463 0.08347900   1.008000   ; qtot 55.947025
 1464         hc     56    bbb     H6   1464 0.08347900   1.008000   ; qtot 56.030504
 1465         hc     56    bbb     H7   1465 0.08347900   1.008000   ; qtot 56.113983
 1466         hc     56    bbb     H8   1466 0.08347900   1.008000   ; qtot 56.197462
 1467         hx     56    bbb     H9   1467 0.07988000   1.008000   ; qtot 56.277342
 1468         hx     56    bbb    H10   1468 0.07988000   1.008000   ; qtot 56.357222
 1469         h1     56    bbb    H11   1469 0.10618100   1.008000   ; qtot 56.463403
 1470         h1     56    bbb    H12   1470 0.10618100   1.008000   ; qtot 56.569584
 1471         hn     56    bbb    H13   1471 0.25916100   1.008000   ; qtot 56.828745
 1472         hn     56    bbb    H25   1472 0.17125500   1.008000   ; qtot 57.000000
; residue   57 bbb rtp bbb q 1.0
 1473         n4     57    bbb     N1   1473 -0.02747900  14.010000   ; qtot 56.972521
 1474         c3     57    bbb     C1   1474 -0.05097600  12.010000   ; qtot 56.921545
 1475         c3     57    bbb     C2   1475 -0.05097600  12.010000   ; qtot 56.870569
 1476         c3     57    bbb     C3   1476 -0.18457900  12.010000   ; qtot 56.685990
 1477          c     57    bbb     C4   1477 0.67254400  12.010000   ; qtot 57.358534
 1478         c3     57    bbb     C5   1478 -0.18457900  12.010000   ; qtot 57.173955
 1479          c     57    bbb     C6   1479 0.67254400  12.010000   ; qtot 57.846499
 1480         c3     57    bbb     C7   1480 -0.02083000  12.010000   ; qtot 57.825669
 1481         c3     57    bbb     C8   1481 -0.03328100  12.010000   ; qtot 57.792388
 1482          n     57    bbb     N2   1482 -0.33303000  14.010000   ; qtot 57.459358
 1483          o     57    bbb     O1   1483 -0.52917200  16.000000   ; qtot 56.930186
 1484          o     57    bbb     O2   1484 -0.52917200  16.000000   ; qtot 56.401014
 1485         hx     57    bbb     H1   1485 0.11563300   1.008000   ; qtot 56.516647
 1486         hx     57    bbb     H2   1486 0.11563300   1.008000   ; qtot 56.632280
 1487         hx     57    bbb     H3   1487 0.11563300   1.008000   ; qtot 56.747913
 1488         hx     57    bbb     H4   1488 0.11563300   1.008000   ; qtot 56.863546
 1489         hc     57    bbb     H5   1489 0.08347900   1.008000   ; qtot 56.947025
 1490         hc     57    bbb     H6   1490 0.08347900   1.008000   ; qtot 57.030504
 1491         hc     57    bbb     H7   1491 0.08347900   1.008000   ; qtot 57.113983
 1492         hc     57    bbb     H8   1492 0.08347900   1.008000   ; qtot 57.197462
 1493         hx     57    bbb     H9   1493 0.07988000   1.008000   ; qtot 57.277342
 1494         hx     57    bbb    H10   1494 0.07988000   1.008000   ; qtot 57.357222
 1495         h1     57    bbb    H11   1495 0.10618100   1.008000   ; qtot 57.463403
 1496         h1     57    bbb    H12   1496 0.10618100   1.008000   ; qtot 57.569584
 1497         hn     57    bbb    H13   1497 0.25916100   1.008000   ; qtot 57.828745
 1498         hn     57    bbb    H25   1498 0.17125500   1.008000   ; qtot 58.000000
; residue   58 bbb rtp bbb q 1.0
 1499         n4     58    bbb     N1   1499 -0.02747900  14.010000   ; qtot 57.972521
 1500         c3     58    bbb     C1   1500 -0.05097600  12.010000   ; qtot 57.921545
 1501         c3     58    bbb     C2   1501 -0.05097600  12.010000   ; qtot 57.870569
 1502         c3     58    bbb     C3   1502 -0.18457900  12.010000   ; qtot 57.685990
 1503          c     58    bbb     C4   1503 0.67254400  12.010000   ; qtot 58.358534
 1504         c3     58    bbb     C5   1504 -0.18457900  12.010000   ; qtot 58.173955
 1505          c     58    bbb     C6   1505 0.67254400  12.010000   ; qtot 58.846499
 1506         c3     58    bbb     C7   1506 -0.02083000  12.010000   ; qtot 58.825669
 1507         c3     58    bbb     C8   1507 -0.03328100  12.010000   ; qtot 58.792388
 1508          n     58    bbb     N2   1508 -0.33303000  14.010000   ; qtot 58.459358
 1509          o     58    bbb     O1   1509 -0.52917200  16.000000   ; qtot 57.930186
 1510          o     58    bbb     O2   1510 -0.52917200  16.000000   ; qtot 57.401014
 1511         hx     58    bbb     H1   1511 0.11563300   1.008000   ; qtot 57.516647
 1512         hx     58    bbb     H2   1512 0.11563300   1.008000   ; qtot 57.632280
 1513         hx     58    bbb     H3   1513 0.11563300   1.008000   ; qtot 57.747913
 1514         hx     58    bbb     H4   1514 0.11563300   1.008000   ; qtot 57.863546
 1515         hc     58    bbb     H5   1515 0.08347900   1.008000   ; qtot 57.947025
 1516         hc     58    bbb     H6   1516 0.08347900   1.008000   ; qtot 58.030504
 1517         hc     58    bbb     H7   1517 0.08347900   1.008000   ; qtot 58.113983
 1518         hc     58    bbb     H8   1518 0.08347900   1.008000   ; qtot 58.197462
 1519         hx     58    bbb     H9   1519 0.07988000   1.008000   ; qtot 58.277342
 1520         hx     58    bbb    H10   1520 0.07988000   1.008000   ; qtot 58.357222
 1521         h1     58    bbb    H11   1521 0.10618100   1.008000   ; qtot 58.463403
 1522         h1     58    bbb    H12   1522 0.10618100   1.008000   ; qtot 58.569584
 1523         hn     58    bbb    H13   1523 0.25916100   1.008000   ; qtot 58.828745
 1524         hn     58    bbb    H25   1524 0.17125500   1.008000   ; qtot 59.000000
; residue   59 bbb rtp bbb q 1.0
 1525         n4     59    bbb     N1   1525 -0.02747900  14.010000   ; qtot 58.972521
 1526         c3     59    bbb     C1   1526 -0.05097600  12.010000   ; qtot 58.921545
 1527         c3     59    bbb     C2   1527 -0.05097600  12.010000   ; qtot 58.870569
 1528         c3     59    bbb     C3   1528 -0.18457900  12.010000   ; qtot 58.685990
 1529          c     59    bbb     C4   1529 0.67254400  12.010000   ; qtot 59.358534
 1530         c3     59    bbb     C5   1530 -0.18457900  12.010000   ; qtot 59.173955
 1531          c     59    bbb     C6   1531 0.67254400  12.010000   ; qtot 59.846499
 1532         c3     59    bbb     C7   1532 -0.02083000  12.010000   ; qtot 59.825669
 1533         c3     59    bbb     C8   1533 -0.03328100  12.010000   ; qtot 59.792388
 1534          n     59    bbb     N2   1534 -0.33303000  14.010000   ; qtot 59.459358
 1535          o     59    bbb     O1   1535 -0.52917200  16.000000   ; qtot 58.930186
 1536          o     59    bbb     O2   1536 -0.52917200  16.000000   ; qtot 58.401014
 1537         hx     59    bbb     H1   1537 0.11563300   1.008000   ; qtot 58.516647
 1538         hx     59    bbb     H2   1538 0.11563300   1.008000   ; qtot 58.632280
 1539         hx     59    bbb     H3   1539 0.11563300   1.008000   ; qtot 58.747913
 1540         hx     59    bbb     H4   1540 0.11563300   1.008000   ; qtot 58.863546
 1541         hc     59    bbb     H5   1541 0.08347900   1.008000   ; qtot 58.947025
 1542         hc     59    bbb     H6   1542 0.08347900   1.008000   ; qtot 59.030504
 1543         hc     59    bbb     H7   1543 0.08347900   1.008000   ; qtot 59.113983
 1544         hc     59    bbb     H8   1544 0.08347900   1.008000   ; qtot 59.197462
 1545         hx     59    bbb     H9   1545 0.07988000   1.008000   ; qtot 59.277342
 1546         hx     59    bbb    H10   1546 0.07988000   1.008000   ; qtot 59.357222
 1547         h1     59    bbb    H11   1547 0.10618100   1.008000   ; qtot 59.463403
 1548         h1     59    bbb    H12   1548 0.10618100   1.008000   ; qtot 59.569584
 1549         hn     59    bbb    H13   1549 0.25916100   1.008000   ; qtot 59.828745
 1550         hn     59    bbb    H25   1550 0.17125500   1.008000   ; qtot 60.000000
; residue   60 bbb rtp bbb q 1.0
 1551         n4     60    bbb     N1   1551 -0.02747900  14.010000   ; qtot 59.972521
 1552         c3     60    bbb     C1   1552 -0.05097600  12.010000   ; qtot 59.921545
 1553         c3     60    bbb     C2   1553 -0.05097600  12.010000   ; qtot 59.870569
 1554         c3     60    bbb     C3   1554 -0.18457900  12.010000   ; qtot 59.685990
 1555          c     60    bbb     C4   1555 0.67254400  12.010000   ; qtot 60.358534
 1556         c3     60    bbb     C5   1556 -0.18457900  12.010000   ; qtot 60.173955
 1557          c     60    bbb     C6   1557 0.67254400  12.010000   ; qtot 60.846499
 1558         c3     60    bbb     C7   1558 -0.02083000  12.010000   ; qtot 60.825669
 1559         c3     60    bbb     C8   1559 -0.03328100  12.010000   ; qtot 60.792388
 1560          n     60    bbb     N2   1560 -0.33303000  14.010000   ; qtot 60.459358
 1561          o     60    bbb     O1   1561 -0.52917200  16.000000   ; qtot 59.930186
 1562          o     60    bbb     O2   1562 -0.52917200  16.000000   ; qtot 59.401014
 1563         hx     60    bbb     H1   1563 0.11563300   1.008000   ; qtot 59.516647
 1564         hx     60    bbb     H2   1564 0.11563300   1.008000   ; qtot 59.632280
 1565         hx     60    bbb     H3   1565 0.11563300   1.008000   ; qtot 59.747913
 1566         hx     60    bbb     H4   1566 0.11563300   1.008000   ; qtot 59.863546
 1567         hc     60    bbb     H5   1567 0.08347900   1.008000   ; qtot 59.947025
 1568         hc     60    bbb     H6   1568 0.08347900   1.008000   ; qtot 60.030504
 1569         hc     60    bbb     H7   1569 0.08347900   1.008000   ; qtot 60.113983
 1570         hc     60    bbb     H8   1570 0.08347900   1.008000   ; qtot 60.197462
 1571         hx     60    bbb     H9   1571 0.07988000   1.008000   ; qtot 60.277342
 1572         hx     60    bbb    H10   1572 0.07988000   1.008000   ; qtot 60.357222
 1573         h1     60    bbb    H11   1573 0.10618100   1.008000   ; qtot 60.463403
 1574         h1     60    bbb    H12   1574 0.10618100   1.008000   ; qtot 60.569584
 1575         hn     60    bbb    H13   1575 0.25916100   1.008000   ; qtot 60.828745
 1576         hn     60    bbb    H25   1576 0.17125500   1.008000   ; qtot 61.000000
; residue   61 bbb rtp bbb q 1.0
 1577         n4     61    bbb     N1   1577 -0.02747900  14.010000   ; qtot 60.972521
 1578         c3     61    bbb     C1   1578 -0.05097600  12.010000   ; qtot 60.921545
 1579         c3     61    bbb     C2   1579 -0.05097600  12.010000   ; qtot 60.870569
 1580         c3     61    bbb     C3   1580 -0.18457900  12.010000   ; qtot 60.685990
 1581          c     61    bbb     C4   1581 0.67254400  12.010000   ; qtot 61.358534
 1582         c3     61    bbb     C5   1582 -0.18457900  12.010000   ; qtot 61.173955
 1583          c     61    bbb     C6   1583 0.67254400  12.010000   ; qtot 61.846499
 1584         c3     61    bbb     C7   1584 -0.02083000  12.010000   ; qtot 61.825669
 1585         c3     61    bbb     C8   1585 -0.03328100  12.010000   ; qtot 61.792388
 1586          n     61    bbb     N2   1586 -0.33303000  14.010000   ; qtot 61.459358
 1587          o     61    bbb     O1   1587 -0.52917200  16.000000   ; qtot 60.930186
 1588          o     61    bbb     O2   1588 -0.52917200  16.000000   ; qtot 60.401014
 1589         hx     61    bbb     H1   1589 0.11563300   1.008000   ; qtot 60.516647
 1590         hx     61    bbb     H2   1590 0.11563300   1.008000   ; qtot 60.632280
 1591         hx     61    bbb     H3   1591 0.11563300   1.008000   ; qtot 60.747913
 1592         hx     61    bbb     H4   1592 0.11563300   1.008000   ; qtot 60.863546
 1593         hc     61    bbb     H5   1593 0.08347900   1.008000   ; qtot 60.947025
 1594         hc     61    bbb     H6   1594 0.08347900   1.008000   ; qtot 61.030504
 1595         hc     61    bbb     H7   1595 0.08347900   1.008000   ; qtot 61.113983
 1596         hc     61    bbb     H8   1596 0.08347900   1.008000   ; qtot 61.197462
 1597         hx     61    bbb     H9   1597 0.07988000   1.008000   ; qtot 61.277342
 1598         hx     61    bbb    H10   1598 0.07988000   1.008000   ; qtot 61.357222
 1599         h1     61    bbb    H11   1599 0.10618100   1.008000   ; qtot 61.463403
 1600         h1     61    bbb    H12   1600 0.10618100   1.008000   ; qtot 61.569584
 1601         hn     61    bbb    H13   1601 0.25916100   1.008000   ; qtot 61.828745
 1602         hn     61    bbb    H25   1602 0.17125500   1.008000   ; qtot 62.000000
; residue   62 ccc rtp ccc q 1.0
 1603          n     62    ccc     N1   1603 -0.26410000  14.010000   ; qtot 61.735900
 1604         hn     62    ccc     H4   1604 0.27630000   1.008000   ; qtot 62.012200
 1605         c3     62    ccc     C3   1605 -0.17900000  12.010000   ; qtot 61.833200
 1606         c3     62    ccc     C4   1606 0.08000000  12.010000   ; qtot 61.913200
 1607         h1     62    ccc     H5   1607 0.13870000   1.008000   ; qtot 62.051900
 1608         h1     62    ccc     H6   1608 0.13870000   1.008000   ; qtot 62.190600
 1609         hx     62    ccc     H7   1609 0.07790000   1.008000   ; qtot 62.268500
 1610         hx     62    ccc     H8   1610 0.07790000   1.008000   ; qtot 62.346400
 1611         n4     62    ccc     N2   1611 -0.16780000  14.010000   ; qtot 62.178600
 1612         hn     62    ccc     H9   1612 0.27380000   1.008000   ; qtot 62.452400
 1613         hn     62    ccc    H10   1613 0.27380000   1.008000   ; qtot 62.726200
 1614         hn     62    ccc    H11   1614 0.27380000   1.008000   ; qtot 63.000000
; residue   63 ccc rtp ccc q 1.0
 1615          n     63    ccc     N1   1615 -0.26410000  14.010000   ; qtot 62.735900
 1616         hn     63    ccc     H4   1616 0.27630000   1.008000   ; qtot 63.012200
 1617         c3     63    ccc     C3   1617 -0.17900000  12.010000   ; qtot 62.833200
 1618         c3     63    ccc     C4   1618 0.08000000  12.010000   ; qtot 62.913200
 1619         h1     63    ccc     H5   1619 0.13870000   1.008000   ; qtot 63.051900
 1620         h1     63    ccc     H6   1620 0.13870000   1.008000   ; qtot 63.190600
 1621         hx     63    ccc     H7   1621 0.07790000   1.008000   ; qtot 63.268500
 1622         hx     63    ccc     H8   1622 0.07790000   1.008000   ; qtot 63.346400
 1623         n4     63    ccc     N2   1623 -0.16780000  14.010000   ; qtot 63.178600
 1624         hn     63    ccc     H9   1624 0.27380000   1.008000   ; qtot 63.452400
 1625         hn     63    ccc    H10   1625 0.27380000   1.008000   ; qtot 63.726200
 1626         hn     63    ccc    H11   1626 0.27380000   1.008000   ; qtot 64.000000
; residue   64 ccc rtp ccc q 1.0
 1627          n     64    ccc     N1   1627 -0.26410000  14.010000   ; qtot 63.735900
 1628         hn     64    ccc     H4   1628 0.27630000   1.008000   ; qtot 64.012200
 1629         c3     64    ccc     C3   1629 -0.17900000  12.010000   ; qtot 63.833200
 1630         c3     64    ccc     C4   1630 0.08000000  12.010000   ; qtot 63.913200
 1631         h1     64    ccc     H5   1631 0.13870000   1.008000   ; qtot 64.051900
 1632         h1     64    ccc     H6   1632 0.13870000   1.008000   ; qtot 64.190600
 1633         hx     64    ccc     H7   1633 0.07790000   1.008000   ; qtot 64.268500
 1634         hx     64    ccc     H8   1634 0.07790000   1.008000   ; qtot 64.346400
 1635         n4     64    ccc     N2   1635 -0.16780000  14.010000   ; qtot 64.178600
 1636         hn     64    ccc     H9   1636 0.27380000   1.008000   ; qtot 64.452400
 1637         hn     64    ccc    H10   1637 0.27380000   1.008000   ; qtot 64.726200
 1638         hn     64    ccc    H11   1638 0.27380000   1.008000   ; qtot 65.000000
; residue   65 ccc rtp ccc q 1.0
 1639          n     65    ccc     N1   1639 -0.26410000  14.010000   ; qtot 64.735900
 1640         hn     65    ccc     H4   1640 0.27630000   1.008000   ; qtot 65.012200
 1641         c3     65    ccc     C3   1641 -0.17900000  12.010000   ; qtot 64.833200
 1642         c3     65    ccc     C4   1642 0.08000000  12.010000   ; qtot 64.913200
 1643         h1     65    ccc     H5   1643 0.13870000   1.008000   ; qtot 65.051900
 1644         h1     65    ccc     H6   1644 0.13870000   1.008000   ; qtot 65.190600
 1645         hx     65    ccc     H7   1645 0.07790000   1.008000   ; qtot 65.268500
 1646         hx     65    ccc     H8   1646 0.07790000   1.008000   ; qtot 65.346400
 1647         n4     65    ccc     N2   1647 -0.16780000  14.010000   ; qtot 65.178600
 1648         hn     65    ccc     H9   1648 0.27380000   1.008000   ; qtot 65.452400
 1649         hn     65    ccc    H10   1649 0.27380000   1.008000   ; qtot 65.726200
 1650         hn     65    ccc    H11   1650 0.27380000   1.008000   ; qtot 66.000000
; residue   66 ccc rtp ccc q 1.0
 1651          n     66    ccc     N1   1651 -0.26410000  14.010000   ; qtot 65.735900
 1652         hn     66    ccc     H4   1652 0.27630000   1.008000   ; qtot 66.012200
 1653         c3     66    ccc     C3   1653 -0.17900000  12.010000   ; qtot 65.833200
 1654         c3     66    ccc     C4   1654 0.08000000  12.010000   ; qtot 65.913200
 1655         h1     66    ccc     H5   1655 0.13870000   1.008000   ; qtot 66.051900
 1656         h1     66    ccc     H6   1656 0.13870000   1.008000   ; qtot 66.190600
 1657         hx     66    ccc     H7   1657 0.07790000   1.008000   ; qtot 66.268500
 1658         hx     66    ccc     H8   1658 0.07790000   1.008000   ; qtot 66.346400
 1659         n4     66    ccc     N2   1659 -0.16780000  14.010000   ; qtot 66.178600
 1660         hn     66    ccc     H9   1660 0.27380000   1.008000   ; qtot 66.452400
 1661         hn     66    ccc    H10   1661 0.27380000   1.008000   ; qtot 66.726200
 1662         hn     66    ccc    H11   1662 0.27380000   1.008000   ; qtot 67.000000
; residue   67 ccc rtp ccc q 1.0
 1663          n     67    ccc     N1   1663 -0.26410000  14.010000   ; qtot 66.735900
 1664         hn     67    ccc     H4   1664 0.27630000   1.008000   ; qtot 67.012200
 1665         c3     67    ccc     C3   1665 -0.17900000  12.010000   ; qtot 66.833200
 1666         c3     67    ccc     C4   1666 0.08000000  12.010000   ; qtot 66.913200
 1667         h1     67    ccc     H5   1667 0.13870000   1.008000   ; qtot 67.051900
 1668         h1     67    ccc     H6   1668 0.13870000   1.008000   ; qtot 67.190600
 1669         hx     67    ccc     H7   1669 0.07790000   1.008000   ; qtot 67.268500
 1670         hx     67    ccc     H8   1670 0.07790000   1.008000   ; qtot 67.346400
 1671         n4     67    ccc     N2   1671 -0.16780000  14.010000   ; qtot 67.178600
 1672         hn     67    ccc     H9   1672 0.27380000   1.008000   ; qtot 67.452400
 1673         hn     67    ccc    H10   1673 0.27380000   1.008000   ; qtot 67.726200
 1674         hn     67    ccc    H11   1674 0.27380000   1.008000   ; qtot 68.000000
; residue   68 ccc rtp ccc q 1.0
 1675          n     68    ccc     N1   1675 -0.26410000  14.010000   ; qtot 67.735900
 1676         hn     68    ccc     H4   1676 0.27630000   1.008000   ; qtot 68.012200
 1677         c3     68    ccc     C3   1677 -0.17900000  12.010000   ; qtot 67.833200
 1678         c3     68    ccc     C4   1678 0.08000000  12.010000   ; qtot 67.913200
 1679         h1     68    ccc     H5   1679 0.13870000   1.008000   ; qtot 68.051900
 1680         h1     68    ccc     H6   1680 0.13870000   1.008000   ; qtot 68.190600
 1681         hx     68    ccc     H7   1681 0.07790000   1.008000   ; qtot 68.268500
 1682         hx     68    ccc     H8   1682 0.07790000   1.008000   ; qtot 68.346400
 1683         n4     68    ccc     N2   1683 -0.16780000  14.010000   ; qtot 68.178600
 1684         hn     68    ccc     H9   1684 0.27380000   1.008000   ; qtot 68.452400
 1685         hn     68    ccc    H10   1685 0.27380000   1.008000   ; qtot 68.726200
 1686         hn     68    ccc    H11   1686 0.27380000   1.008000   ; qtot 69.000000
; residue   69 ccc rtp ccc q 1.0
 1687          n     69    ccc     N1   1687 -0.26410000  14.010000   ; qtot 68.735900
 1688         hn     69    ccc     H4   1688 0.27630000   1.008000   ; qtot 69.012200
 1689         c3     69    ccc     C3   1689 -0.17900000  12.010000   ; qtot 68.833200
 1690         c3     69    ccc     C4   1690 0.08000000  12.010000   ; qtot 68.913200
 1691         h1     69    ccc     H5   1691 0.13870000   1.008000   ; qtot 69.051900
 1692         h1     69    ccc     H6   1692 0.13870000   1.008000   ; qtot 69.190600
 1693         hx     69    ccc     H7   1693 0.07790000   1.008000   ; qtot 69.268500
 1694         hx     69    ccc     H8   1694 0.07790000   1.008000   ; qtot 69.346400
 1695         n4     69    ccc     N2   1695 -0.16780000  14.010000   ; qtot 69.178600
 1696         hn     69    ccc     H9   1696 0.27380000   1.008000   ; qtot 69.452400
 1697         hn     69    ccc    H10   1697 0.27380000   1.008000   ; qtot 69.726200
 1698         hn     69    ccc    H11   1698 0.27380000   1.008000   ; qtot 70.000000
; residue   70 ccc rtp ccc q 1.0
 1699          n     70    ccc     N1   1699 -0.26410000  14.010000   ; qtot 69.735900
 1700         hn     70    ccc     H4   1700 0.27630000   1.008000   ; qtot 70.012200
 1701         c3     70    ccc     C3   1701 -0.17900000  12.010000   ; qtot 69.833200
 1702         c3     70    ccc     C4   1702 0.08000000  12.010000   ; qtot 69.913200
 1703         h1     70    ccc     H5   1703 0.13870000   1.008000   ; qtot 70.051900
 1704         h1     70    ccc     H6   1704 0.13870000   1.008000   ; qtot 70.190600
 1705         hx     70    ccc     H7   1705 0.07790000   1.008000   ; qtot 70.268500
 1706         hx     70    ccc     H8   1706 0.07790000   1.008000   ; qtot 70.346400
 1707         n4     70    ccc     N2   1707 -0.16780000  14.010000   ; qtot 70.178600
 1708         hn     70    ccc     H9   1708 0.27380000   1.008000   ; qtot 70.452400
 1709         hn     70    ccc    H10   1709 0.27380000   1.008000   ; qtot 70.726200
 1710         hn     70    ccc    H11   1710 0.27380000   1.008000   ; qtot 71.000000
; residue   71 ccc rtp ccc q 1.0
 1711          n     71    ccc     N1   1711 -0.26410000  14.010000   ; qtot 70.735900
 1712         hn     71    ccc     H4   1712 0.27630000   1.008000   ; qtot 71.012200
 1713         c3     71    ccc     C3   1713 -0.17900000  12.010000   ; qtot 70.833200
 1714         c3     71    ccc     C4   1714 0.08000000  12.010000   ; qtot 70.913200
 1715         h1     71    ccc     H5   1715 0.13870000   1.008000   ; qtot 71.051900
 1716         h1     71    ccc     H6   1716 0.13870000   1.008000   ; qtot 71.190600
 1717         hx     71    ccc     H7   1717 0.07790000   1.008000   ; qtot 71.268500
 1718         hx     71    ccc     H8   1718 0.07790000   1.008000   ; qtot 71.346400
 1719         n4     71    ccc     N2   1719 -0.16780000  14.010000   ; qtot 71.178600
 1720         hn     71    ccc     H9   1720 0.27380000   1.008000   ; qtot 71.452400
 1721         hn     71    ccc    H10   1721 0.27380000   1.008000   ; qtot 71.726200
 1722         hn     71    ccc    H11   1722 0.27380000   1.008000   ; qtot 72.000000
; residue   72 ccc rtp ccc q 1.0
 1723          n     72    ccc     N1   1723 -0.26410000  14.010000   ; qtot 71.735900
 1724         hn     72    ccc     H4   1724 0.27630000   1.008000   ; qtot 72.012200
 1725         c3     72    ccc     C3   1725 -0.17900000  12.010000   ; qtot 71.833200
 1726         c3     72    ccc     C4   1726 0.08000000  12.010000   ; qtot 71.913200
 1727         h1     72    ccc     H5   1727 0.13870000   1.008000   ; qtot 72.051900
 1728         h1     72    ccc     H6   1728 0.13870000   1.008000   ; qtot 72.190600
 1729         hx     72    ccc     H7   1729 0.07790000   1.008000   ; qtot 72.268500
 1730         hx     72    ccc     H8   1730 0.07790000   1.008000   ; qtot 72.346400
 1731         n4     72    ccc     N2   1731 -0.16780000  14.010000   ; qtot 72.178600
 1732         hn     72    ccc     H9   1732 0.27380000   1.008000   ; qtot 72.452400
 1733         hn     72    ccc    H10   1733 0.27380000   1.008000   ; qtot 72.726200
 1734         hn     72    ccc    H11   1734 0.27380000   1.008000   ; qtot 73.000000
; residue   73 ccc rtp ccc q 1.0
 1735          n     73    ccc     N1   1735 -0.26410000  14.010000   ; qtot 72.735900
 1736         hn     73    ccc     H4   1736 0.27630000   1.008000   ; qtot 73.012200
 1737         c3     73    ccc     C3   1737 -0.17900000  12.010000   ; qtot 72.833200
 1738         c3     73    ccc     C4   1738 0.08000000  12.010000   ; qtot 72.913200
 1739         h1     73    ccc     H5   1739 0.13870000   1.008000   ; qtot 73.051900
 1740         h1     73    ccc     H6   1740 0.13870000   1.008000   ; qtot 73.190600
 1741         hx     73    ccc     H7   1741 0.07790000   1.008000   ; qtot 73.268500
 1742         hx     73    ccc     H8   1742 0.07790000   1.008000   ; qtot 73.346400
 1743         n4     73    ccc     N2   1743 -0.16780000  14.010000   ; qtot 73.178600
 1744         hn     73    ccc     H9   1744 0.27380000   1.008000   ; qtot 73.452400
 1745         hn     73    ccc    H10   1745 0.27380000   1.008000   ; qtot 73.726200
 1746         hn     73    ccc    H11   1746 0.27380000   1.008000   ; qtot 74.000000
; residue   74 ccc rtp ccc q 1.0
 1747          n     74    ccc     N1   1747 -0.26410000  14.010000   ; qtot 73.735900
 1748         hn     74    ccc     H4   1748 0.27630000   1.008000   ; qtot 74.012200
 1749         c3     74    ccc     C3   1749 -0.17900000  12.010000   ; qtot 73.833200
 1750         c3     74    ccc     C4   1750 0.08000000  12.010000   ; qtot 73.913200
 1751         h1     74    ccc     H5   1751 0.13870000   1.008000   ; qtot 74.051900
 1752         h1     74    ccc     H6   1752 0.13870000   1.008000   ; qtot 74.190600
 1753         hx     74    ccc     H7   1753 0.07790000   1.008000   ; qtot 74.268500
 1754         hx     74    ccc     H8   1754 0.07790000   1.008000   ; qtot 74.346400
 1755         n4     74    ccc     N2   1755 -0.16780000  14.010000   ; qtot 74.178600
 1756         hn     74    ccc     H9   1756 0.27380000   1.008000   ; qtot 74.452400
 1757         hn     74    ccc    H10   1757 0.27380000   1.008000   ; qtot 74.726200
 1758         hn     74    ccc    H11   1758 0.27380000   1.008000   ; qtot 75.000000
; residue   75 ccc rtp ccc q 1.0
 1759          n     75    ccc     N1   1759 -0.26410000  14.010000   ; qtot 74.735900
 1760         hn     75    ccc     H4   1760 0.27630000   1.008000   ; qtot 75.012200
 1761         c3     75    ccc     C3   1761 -0.17900000  12.010000   ; qtot 74.833200
 1762         c3     75    ccc     C4   1762 0.08000000  12.010000   ; qtot 74.913200
 1763         h1     75    ccc     H5   1763 0.13870000   1.008000   ; qtot 75.051900
 1764         h1     75    ccc     H6   1764 0.13870000   1.008000   ; qtot 75.190600
 1765         hx     75    ccc     H7   1765 0.07790000   1.008000   ; qtot 75.268500
 1766         hx     75    ccc     H8   1766 0.07790000   1.008000   ; qtot 75.346400
 1767         n4     75    ccc     N2   1767 -0.16780000  14.010000   ; qtot 75.178600
 1768         hn     75    ccc     H9   1768 0.27380000   1.008000   ; qtot 75.452400
 1769         hn     75    ccc    H10   1769 0.27380000   1.008000   ; qtot 75.726200
 1770         hn     75    ccc    H11   1770 0.27380000   1.008000   ; qtot 76.000000
; residue   76 ccc rtp ccc q 1.0
 1771          n     76    ccc     N1   1771 -0.26410000  14.010000   ; qtot 75.735900
 1772         hn     76    ccc     H4   1772 0.27630000   1.008000   ; qtot 76.012200
 1773         c3     76    ccc     C3   1773 -0.17900000  12.010000   ; qtot 75.833200
 1774         c3     76    ccc     C4   1774 0.08000000  12.010000   ; qtot 75.913200
 1775         h1     76    ccc     H5   1775 0.13870000   1.008000   ; qtot 76.051900
 1776         h1     76    ccc     H6   1776 0.13870000   1.008000   ; qtot 76.190600
 1777         hx     76    ccc     H7   1777 0.07790000   1.008000   ; qtot 76.268500
 1778         hx     76    ccc     H8   1778 0.07790000   1.008000   ; qtot 76.346400
 1779         n4     76    ccc     N2   1779 -0.16780000  14.010000   ; qtot 76.178600
 1780         hn     76    ccc     H9   1780 0.27380000   1.008000   ; qtot 76.452400
 1781         hn     76    ccc    H10   1781 0.27380000   1.008000   ; qtot 76.726200
 1782         hn     76    ccc    H11   1782 0.27380000   1.008000   ; qtot 77.000000
; residue   77 ccc rtp ccc q 1.0
 1783          n     77    ccc     N1   1783 -0.26410000  14.010000   ; qtot 76.735900
 1784         hn     77    ccc     H4   1784 0.27630000   1.008000   ; qtot 77.012200
 1785         c3     77    ccc     C3   1785 -0.17900000  12.010000   ; qtot 76.833200
 1786         c3     77    ccc     C4   1786 0.08000000  12.010000   ; qtot 76.913200
 1787         h1     77    ccc     H5   1787 0.13870000   1.008000   ; qtot 77.051900
 1788         h1     77    ccc     H6   1788 0.13870000   1.008000   ; qtot 77.190600
 1789         hx     77    ccc     H7   1789 0.07790000   1.008000   ; qtot 77.268500
 1790         hx     77    ccc     H8   1790 0.07790000   1.008000   ; qtot 77.346400
 1791         n4     77    ccc     N2   1791 -0.16780000  14.010000   ; qtot 77.178600
 1792         hn     77    ccc     H9   1792 0.27380000   1.008000   ; qtot 77.452400
 1793         hn     77    ccc    H10   1793 0.27380000   1.008000   ; qtot 77.726200
 1794         hn     77    ccc    H11   1794 0.27380000   1.008000   ; qtot 78.000000
; residue   78 ccc rtp ccc q 1.0
 1795          n     78    ccc     N1   1795 -0.26410000  14.010000   ; qtot 77.735900
 1796         hn     78    ccc     H4   1796 0.27630000   1.008000   ; qtot 78.012200
 1797         c3     78    ccc     C3   1797 -0.17900000  12.010000   ; qtot 77.833200
 1798         c3     78    ccc     C4   1798 0.08000000  12.010000   ; qtot 77.913200
 1799         h1     78    ccc     H5   1799 0.13870000   1.008000   ; qtot 78.051900
 1800         h1     78    ccc     H6   1800 0.13870000   1.008000   ; qtot 78.190600
 1801         hx     78    ccc     H7   1801 0.07790000   1.008000   ; qtot 78.268500
 1802         hx     78    ccc     H8   1802 0.07790000   1.008000   ; qtot 78.346400
 1803         n4     78    ccc     N2   1803 -0.16780000  14.010000   ; qtot 78.178600
 1804         hn     78    ccc     H9   1804 0.27380000   1.008000   ; qtot 78.452400
 1805         hn     78    ccc    H10   1805 0.27380000   1.008000   ; qtot 78.726200
 1806         hn     78    ccc    H11   1806 0.27380000   1.008000   ; qtot 79.000000
; residue   79 ccc rtp ccc q 1.0
 1807          n     79    ccc     N1   1807 -0.26410000  14.010000   ; qtot 78.735900
 1808         hn     79    ccc     H4   1808 0.27630000   1.008000   ; qtot 79.012200
 1809         c3     79    ccc     C3   1809 -0.17900000  12.010000   ; qtot 78.833200
 1810         c3     79    ccc     C4   1810 0.08000000  12.010000   ; qtot 78.913200
 1811         h1     79    ccc     H5   1811 0.13870000   1.008000   ; qtot 79.051900
 1812         h1     79    ccc     H6   1812 0.13870000   1.008000   ; qtot 79.190600
 1813         hx     79    ccc     H7   1813 0.07790000   1.008000   ; qtot 79.268500
 1814         hx     79    ccc     H8   1814 0.07790000   1.008000   ; qtot 79.346400
 1815         n4     79    ccc     N2   1815 -0.16780000  14.010000   ; qtot 79.178600
 1816         hn     79    ccc     H9   1816 0.27380000   1.008000   ; qtot 79.452400
 1817         hn     79    ccc    H10   1817 0.27380000   1.008000   ; qtot 79.726200
 1818         hn     79    ccc    H11   1818 0.27380000   1.008000   ; qtot 80.000000
; residue   80 ccc rtp ccc q 1.0
 1819          n     80    ccc     N1   1819 -0.26410000  14.010000   ; qtot 79.735900
 1820         hn     80    ccc     H4   1820 0.27630000   1.008000   ; qtot 80.012200
 1821         c3     80    ccc     C3   1821 -0.17900000  12.010000   ; qtot 79.833200
 1822         c3     80    ccc     C4   1822 0.08000000  12.010000   ; qtot 79.913200
 1823         h1     80    ccc     H5   1823 0.13870000   1.008000   ; qtot 80.051900
 1824         h1     80    ccc     H6   1824 0.13870000   1.008000   ; qtot 80.190600
 1825         hx     80    ccc     H7   1825 0.07790000   1.008000   ; qtot 80.268500
 1826         hx     80    ccc     H8   1826 0.07790000   1.008000   ; qtot 80.346400
 1827         n4     80    ccc     N2   1827 -0.16780000  14.010000   ; qtot 80.178600
 1828         hn     80    ccc     H9   1828 0.27380000   1.008000   ; qtot 80.452400
 1829         hn     80    ccc    H10   1829 0.27380000   1.008000   ; qtot 80.726200
 1830         hn     80    ccc    H11   1830 0.27380000   1.008000   ; qtot 81.000000
; residue   81 ccc rtp ccc q 1.0
 1831          n     81    ccc     N1   1831 -0.26410000  14.010000   ; qtot 80.735900
 1832         hn     81    ccc     H4   1832 0.27630000   1.008000   ; qtot 81.012200
 1833         c3     81    ccc     C3   1833 -0.17900000  12.010000   ; qtot 80.833200
 1834         c3     81    ccc     C4   1834 0.08000000  12.010000   ; qtot 80.913200
 1835         h1     81    ccc     H5   1835 0.13870000   1.008000   ; qtot 81.051900
 1836         h1     81    ccc     H6   1836 0.13870000   1.008000   ; qtot 81.190600
 1837         hx     81    ccc     H7   1837 0.07790000   1.008000   ; qtot 81.268500
 1838         hx     81    ccc     H8   1838 0.07790000   1.008000   ; qtot 81.346400
 1839         n4     81    ccc     N2   1839 -0.16780000  14.010000   ; qtot 81.178600
 1840         hn     81    ccc     H9   1840 0.27380000   1.008000   ; qtot 81.452400
 1841         hn     81    ccc    H10   1841 0.27380000   1.008000   ; qtot 81.726200
 1842         hn     81    ccc    H11   1842 0.27380000   1.008000   ; qtot 82.000000
; residue   82 ccc rtp ccc q 1.0
 1843          n     82    ccc     N1   1843 -0.26410000  14.010000   ; qtot 81.735900
 1844         hn     82    ccc     H4   1844 0.27630000   1.008000   ; qtot 82.012200
 1845         c3     82    ccc     C3   1845 -0.17900000  12.010000   ; qtot 81.833200
 1846         c3     82    ccc     C4   1846 0.08000000  12.010000   ; qtot 81.913200
 1847         h1     82    ccc     H5   1847 0.13870000   1.008000   ; qtot 82.051900
 1848         h1     82    ccc     H6   1848 0.13870000   1.008000   ; qtot 82.190600
 1849         hx     82    ccc     H7   1849 0.07790000   1.008000   ; qtot 82.268500
 1850         hx     82    ccc     H8   1850 0.07790000   1.008000   ; qtot 82.346400
 1851         n4     82    ccc     N2   1851 -0.16780000  14.010000   ; qtot 82.178600
 1852         hn     82    ccc     H9   1852 0.27380000   1.008000   ; qtot 82.452400
 1853         hn     82    ccc    H10   1853 0.27380000   1.008000   ; qtot 82.726200
 1854         hn     82    ccc    H11   1854 0.27380000   1.008000   ; qtot 83.000000
; residue   83 ccc rtp ccc q 1.0
 1855          n     83    ccc     N1   1855 -0.26410000  14.010000   ; qtot 82.735900
 1856         hn     83    ccc     H4   1856 0.27630000   1.008000   ; qtot 83.012200
 1857         c3     83    ccc     C3   1857 -0.17900000  12.010000   ; qtot 82.833200
 1858         c3     83    ccc     C4   1858 0.08000000  12.010000   ; qtot 82.913200
 1859         h1     83    ccc     H5   1859 0.13870000   1.008000   ; qtot 83.051900
 1860         h1     83    ccc     H6   1860 0.13870000   1.008000   ; qtot 83.190600
 1861         hx     83    ccc     H7   1861 0.07790000   1.008000   ; qtot 83.268500
 1862         hx     83    ccc     H8   1862 0.07790000   1.008000   ; qtot 83.346400
 1863         n4     83    ccc     N2   1863 -0.16780000  14.010000   ; qtot 83.178600
 1864         hn     83    ccc     H9   1864 0.27380000   1.008000   ; qtot 83.452400
 1865         hn     83    ccc    H10   1865 0.27380000   1.008000   ; qtot 83.726200
 1866         hn     83    ccc    H11   1866 0.27380000   1.008000   ; qtot 84.000000
; residue   84 ccc rtp ccc q 1.0
 1867          n     84    ccc     N1   1867 -0.26410000  14.010000   ; qtot 83.735900
 1868         hn     84    ccc     H4   1868 0.27630000   1.008000   ; qtot 84.012200
 1869         c3     84    ccc     C3   1869 -0.17900000  12.010000   ; qtot 83.833200
 1870         c3     84    ccc     C4   1870 0.08000000  12.010000   ; qtot 83.913200
 1871         h1     84    ccc     H5   1871 0.13870000   1.008000   ; qtot 84.051900
 1872         h1     84    ccc     H6   1872 0.13870000   1.008000   ; qtot 84.190600
 1873         hx     84    ccc     H7   1873 0.07790000   1.008000   ; qtot 84.268500
 1874         hx     84    ccc     H8   1874 0.07790000   1.008000   ; qtot 84.346400
 1875         n4     84    ccc     N2   1875 -0.16780000  14.010000   ; qtot 84.178600
 1876         hn     84    ccc     H9   1876 0.27380000   1.008000   ; qtot 84.452400
 1877         hn     84    ccc    H10   1877 0.27380000   1.008000   ; qtot 84.726200
 1878         hn     84    ccc    H11   1878 0.27380000   1.008000   ; qtot 85.000000
; residue   85 ccc rtp ccc q 1.0
 1879          n     85    ccc     N1   1879 -0.26410000  14.010000   ; qtot 84.735900
 1880         hn     85    ccc     H4   1880 0.27630000   1.008000   ; qtot 85.012200
 1881         c3     85    ccc     C3   1881 -0.17900000  12.010000   ; qtot 84.833200
 1882         c3     85    ccc     C4   1882 0.08000000  12.010000   ; qtot 84.913200
 1883         h1     85    ccc     H5   1883 0.13870000   1.008000   ; qtot 85.051900
 1884         h1     85    ccc     H6   1884 0.13870000   1.008000   ; qtot 85.190600
 1885         hx     85    ccc     H7   1885 0.07790000   1.008000   ; qtot 85.268500
 1886         hx     85    ccc     H8   1886 0.07790000   1.008000   ; qtot 85.346400
 1887         n4     85    ccc     N2   1887 -0.16780000  14.010000   ; qtot 85.178600
 1888         hn     85    ccc     H9   1888 0.27380000   1.008000   ; qtot 85.452400
 1889         hn     85    ccc    H10   1889 0.27380000   1.008000   ; qtot 85.726200
 1890         hn     85    ccc    H11   1890 0.27380000   1.008000   ; qtot 86.000000
; residue   86 ccc rtp ccc q 1.0
 1891          n     86    ccc     N1   1891 -0.26410000  14.010000   ; qtot 85.735900
 1892         hn     86    ccc     H4   1892 0.27630000   1.008000   ; qtot 86.012200
 1893         c3     86    ccc     C3   1893 -0.17900000  12.010000   ; qtot 85.833200
 1894         c3     86    ccc     C4   1894 0.08000000  12.010000   ; qtot 85.913200
 1895         h1     86    ccc     H5   1895 0.13870000   1.008000   ; qtot 86.051900
 1896         h1     86    ccc     H6   1896 0.13870000   1.008000   ; qtot 86.190600
 1897         hx     86    ccc     H7   1897 0.07790000   1.008000   ; qtot 86.268500
 1898         hx     86    ccc     H8   1898 0.07790000   1.008000   ; qtot 86.346400
 1899         n4     86    ccc     N2   1899 -0.16780000  14.010000   ; qtot 86.178600
 1900         hn     86    ccc     H9   1900 0.27380000   1.008000   ; qtot 86.452400
 1901         hn     86    ccc    H10   1901 0.27380000   1.008000   ; qtot 86.726200
 1902         hn     86    ccc    H11   1902 0.27380000   1.008000   ; qtot 87.000000
; residue   87 ccc rtp ccc q 1.0
 1903          n     87    ccc     N1   1903 -0.26410000  14.010000   ; qtot 86.735900
 1904         hn     87    ccc     H4   1904 0.27630000   1.008000   ; qtot 87.012200
 1905         c3     87    ccc     C3   1905 -0.17900000  12.010000   ; qtot 86.833200
 1906         c3     87    ccc     C4   1906 0.08000000  12.010000   ; qtot 86.913200
 1907         h1     87    ccc     H5   1907 0.13870000   1.008000   ; qtot 87.051900
 1908         h1     87    ccc     H6   1908 0.13870000   1.008000   ; qtot 87.190600
 1909         hx     87    ccc     H7   1909 0.07790000   1.008000   ; qtot 87.268500
 1910         hx     87    ccc     H8   1910 0.07790000   1.008000   ; qtot 87.346400
 1911         n4     87    ccc     N2   1911 -0.16780000  14.010000   ; qtot 87.178600
 1912         hn     87    ccc     H9   1912 0.27380000   1.008000   ; qtot 87.452400
 1913         hn     87    ccc    H10   1913 0.27380000   1.008000   ; qtot 87.726200
 1914         hn     87    ccc    H11   1914 0.27380000   1.008000   ; qtot 88.000000
; residue   88 ccc rtp ccc q 1.0
 1915          n     88    ccc     N1   1915 -0.26410000  14.010000   ; qtot 87.735900
 1916         hn     88    ccc     H4   1916 0.27630000   1.008000   ; qtot 88.012200
 1917         c3     88    ccc     C3   1917 -0.17900000  12.010000   ; qtot 87.833200
 1918         c3     88    ccc     C4   1918 0.08000000  12.010000   ; qtot 87.913200
 1919         h1     88    ccc     H5   1919 0.13870000   1.008000   ; qtot 88.051900
 1920         h1     88    ccc     H6   1920 0.13870000   1.008000   ; qtot 88.190600
 1921         hx     88    ccc     H7   1921 0.07790000   1.008000   ; qtot 88.268500
 1922         hx     88    ccc     H8   1922 0.07790000   1.008000   ; qtot 88.346400
 1923         n4     88    ccc     N2   1923 -0.16780000  14.010000   ; qtot 88.178600
 1924         hn     88    ccc     H9   1924 0.27380000   1.008000   ; qtot 88.452400
 1925         hn     88    ccc    H10   1925 0.27380000   1.008000   ; qtot 88.726200
 1926         hn     88    ccc    H11   1926 0.27380000   1.008000   ; qtot 89.000000
; residue   89 ccc rtp ccc q 1.0
 1927          n     89    ccc     N1   1927 -0.26410000  14.010000   ; qtot 88.735900
 1928         hn     89    ccc     H4   1928 0.27630000   1.008000   ; qtot 89.012200
 1929         c3     89    ccc     C3   1929 -0.17900000  12.010000   ; qtot 88.833200
 1930         c3     89    ccc     C4   1930 0.08000000  12.010000   ; qtot 88.913200
 1931         h1     89    ccc     H5   1931 0.13870000   1.008000   ; qtot 89.051900
 1932         h1     89    ccc     H6   1932 0.13870000   1.008000   ; qtot 89.190600
 1933         hx     89    ccc     H7   1933 0.07790000   1.008000   ; qtot 89.268500
 1934         hx     89    ccc     H8   1934 0.07790000   1.008000   ; qtot 89.346400
 1935         n4     89    ccc     N2   1935 -0.16780000  14.010000   ; qtot 89.178600
 1936         hn     89    ccc     H9   1936 0.27380000   1.008000   ; qtot 89.452400
 1937         hn     89    ccc    H10   1937 0.27380000   1.008000   ; qtot 89.726200
 1938         hn     89    ccc    H11   1938 0.27380000   1.008000   ; qtot 90.000000
; residue   90 ccc rtp ccc q 1.0
 1939          n     90    ccc     N1   1939 -0.26410000  14.010000   ; qtot 89.735900
 1940         hn     90    ccc     H4   1940 0.27630000   1.008000   ; qtot 90.012200
 1941         c3     90    ccc     C3   1941 -0.17900000  12.010000   ; qtot 89.833200
 1942         c3     90    ccc     C4   1942 0.08000000  12.010000   ; qtot 89.913200
 1943         h1     90    ccc     H5   1943 0.13870000   1.008000   ; qtot 90.051900
 1944         h1     90    ccc     H6   1944 0.13870000   1.008000   ; qtot 90.190600
 1945         hx     90    ccc     H7   1945 0.07790000   1.008000   ; qtot 90.268500
 1946         hx     90    ccc     H8   1946 0.07790000   1.008000   ; qtot 90.346400
 1947         n4     90    ccc     N2   1947 -0.16780000  14.010000   ; qtot 90.178600
 1948         hn     90    ccc     H9   1948 0.27380000   1.008000   ; qtot 90.452400
 1949         hn     90    ccc    H10   1949 0.27380000   1.008000   ; qtot 90.726200
 1950         hn     90    ccc    H11   1950 0.27380000   1.008000   ; qtot 91.000000
; residue   91 ccc rtp ccc q 1.0
 1951          n     91    ccc     N1   1951 -0.26410000  14.010000   ; qtot 90.735900
 1952         hn     91    ccc     H4   1952 0.27630000   1.008000   ; qtot 91.012200
 1953         c3     91    ccc     C3   1953 -0.17900000  12.010000   ; qtot 90.833200
 1954         c3     91    ccc     C4   1954 0.08000000  12.010000   ; qtot 90.913200
 1955         h1     91    ccc     H5   1955 0.13870000   1.008000   ; qtot 91.051900
 1956         h1     91    ccc     H6   1956 0.13870000   1.008000   ; qtot 91.190600
 1957         hx     91    ccc     H7   1957 0.07790000   1.008000   ; qtot 91.268500
 1958         hx     91    ccc     H8   1958 0.07790000   1.008000   ; qtot 91.346400
 1959         n4     91    ccc     N2   1959 -0.16780000  14.010000   ; qtot 91.178600
 1960         hn     91    ccc     H9   1960 0.27380000   1.008000   ; qtot 91.452400
 1961         hn     91    ccc    H10   1961 0.27380000   1.008000   ; qtot 91.726200
 1962         hn     91    ccc    H11   1962 0.27380000   1.008000   ; qtot 92.000000
; residue   92 ccc rtp ccc q 1.0
 1963          n     92    ccc     N1   1963 -0.26410000  14.010000   ; qtot 91.735900
 1964         hn     92    ccc     H4   1964 0.27630000   1.008000   ; qtot 92.012200
 1965         c3     92    ccc     C3   1965 -0.17900000  12.010000   ; qtot 91.833200
 1966         c3     92    ccc     C4   1966 0.08000000  12.010000   ; qtot 91.913200
 1967         h1     92    ccc     H5   1967 0.13870000   1.008000   ; qtot 92.051900
 1968         h1     92    ccc     H6   1968 0.13870000   1.008000   ; qtot 92.190600
 1969         hx     92    ccc     H7   1969 0.07790000   1.008000   ; qtot 92.268500
 1970         hx     92    ccc     H8   1970 0.07790000   1.008000   ; qtot 92.346400
 1971         n4     92    ccc     N2   1971 -0.16780000  14.010000   ; qtot 92.178600
 1972         hn     92    ccc     H9   1972 0.27380000   1.008000   ; qtot 92.452400
 1973         hn     92    ccc    H10   1973 0.27380000   1.008000   ; qtot 92.726200
 1974         hn     92    ccc    H11   1974 0.27380000   1.008000   ; qtot 93.000000
; residue   93 ccc rtp ccc q 1.0
 1975          n     93    ccc     N1   1975 -0.26410000  14.010000   ; qtot 92.735900
 1976         hn     93    ccc     H4   1976 0.27630000   1.008000   ; qtot 93.012200
 1977         c3     93    ccc     C3   1977 -0.17900000  12.010000   ; qtot 92.833200
 1978         c3     93    ccc     C4   1978 0.08000000  12.010000   ; qtot 92.913200
 1979         h1     93    ccc     H5   1979 0.13870000   1.008000   ; qtot 93.051900
 1980         h1     93    ccc     H6   1980 0.13870000   1.008000   ; qtot 93.190600
 1981         hx     93    ccc     H7   1981 0.07790000   1.008000   ; qtot 93.268500
 1982         hx     93    ccc     H8   1982 0.07790000   1.008000   ; qtot 93.346400
 1983         n4     93    ccc     N2   1983 -0.16780000  14.010000   ; qtot 93.178600
 1984         hn     93    ccc     H9   1984 0.27380000   1.008000   ; qtot 93.452400
 1985         hn     93    ccc    H10   1985 0.27380000   1.008000   ; qtot 93.726200
 1986         hn     93    ccc    H11   1986 0.27380000   1.008000   ; qtot 94.000000
; residue   94 ccc rtp ccc q 1.0
 1987          n     94    ccc     N1   1987 -0.26410000  14.010000   ; qtot 93.735900
 1988         hn     94    ccc     H4   1988 0.27630000   1.008000   ; qtot 94.012200
 1989         c3     94    ccc     C3   1989 -0.17900000  12.010000   ; qtot 93.833200
 1990         c3     94    ccc     C4   1990 0.08000000  12.010000   ; qtot 93.913200
 1991         h1     94    ccc     H5   1991 0.13870000   1.008000   ; qtot 94.051900
 1992         h1     94    ccc     H6   1992 0.13870000   1.008000   ; qtot 94.190600
 1993         hx     94    ccc     H7   1993 0.07790000   1.008000   ; qtot 94.268500
 1994         hx     94    ccc     H8   1994 0.07790000   1.008000   ; qtot 94.346400
 1995         n4     94    ccc     N2   1995 -0.16780000  14.010000   ; qtot 94.178600
 1996         hn     94    ccc     H9   1996 0.27380000   1.008000   ; qtot 94.452400
 1997         hn     94    ccc    H10   1997 0.27380000   1.008000   ; qtot 94.726200
 1998         hn     94    ccc    H11   1998 0.27380000   1.008000   ; qtot 95.000000
; residue   95 ccc rtp ccc q 1.0
 1999          n     95    ccc     N1   1999 -0.26410000  14.010000   ; qtot 94.735900
 2000         hn     95    ccc     H4   2000 0.27630000   1.008000   ; qtot 95.012200
 2001         c3     95    ccc     C3   2001 -0.17900000  12.010000   ; qtot 94.833200
 2002         c3     95    ccc     C4   2002 0.08000000  12.010000   ; qtot 94.913200
 2003         h1     95    ccc     H5   2003 0.13870000   1.008000   ; qtot 95.051900
 2004         h1     95    ccc     H6   2004 0.13870000   1.008000   ; qtot 95.190600
 2005         hx     95    ccc     H7   2005 0.07790000   1.008000   ; qtot 95.268500
 2006         hx     95    ccc     H8   2006 0.07790000   1.008000   ; qtot 95.346400
 2007         n4     95    ccc     N2   2007 -0.16780000  14.010000   ; qtot 95.178600
 2008         hn     95    ccc     H9   2008 0.27380000   1.008000   ; qtot 95.452400
 2009         hn     95    ccc    H10   2009 0.27380000   1.008000   ; qtot 95.726200
 2010         hn     95    ccc    H11   2010 0.27380000   1.008000   ; qtot 96.000000
; residue   96 ccc rtp ccc q 1.0
 2011          n     96    ccc     N1   2011 -0.26410000  14.010000   ; qtot 95.735900
 2012         hn     96    ccc     H4   2012 0.27630000   1.008000   ; qtot 96.012200
 2013         c3     96    ccc     C3   2013 -0.17900000  12.010000   ; qtot 95.833200
 2014         c3     96    ccc     C4   2014 0.08000000  12.010000   ; qtot 95.913200
 2015         h1     96    ccc     H5   2015 0.13870000   1.008000   ; qtot 96.051900
 2016         h1     96    ccc     H6   2016 0.13870000   1.008000   ; qtot 96.190600
 2017         hx     96    ccc     H7   2017 0.07790000   1.008000   ; qtot 96.268500
 2018         hx     96    ccc     H8   2018 0.07790000   1.008000   ; qtot 96.346400
 2019         n4     96    ccc     N2   2019 -0.16780000  14.010000   ; qtot 96.178600
 2020         hn     96    ccc     H9   2020 0.27380000   1.008000   ; qtot 96.452400
 2021         hn     96    ccc    H10   2021 0.27380000   1.008000   ; qtot 96.726200
 2022         hn     96    ccc    H11   2022 0.27380000   1.008000   ; qtot 97.000000
; residue   97 ccc rtp ccc q 1.0
 2023          n     97    ccc     N1   2023 -0.26410000  14.010000   ; qtot 96.735900
 2024         hn     97    ccc     H4   2024 0.27630000   1.008000   ; qtot 97.012200
 2025         c3     97    ccc     C3   2025 -0.17900000  12.010000   ; qtot 96.833200
 2026         c3     97    ccc     C4   2026 0.08000000  12.010000   ; qtot 96.913200
 2027         h1     97    ccc     H5   2027 0.13870000   1.008000   ; qtot 97.051900
 2028         h1     97    ccc     H6   2028 0.13870000   1.008000   ; qtot 97.190600
 2029         hx     97    ccc     H7   2029 0.07790000   1.008000   ; qtot 97.268500
 2030         hx     97    ccc     H8   2030 0.07790000   1.008000   ; qtot 97.346400
 2031         n4     97    ccc     N2   2031 -0.16780000  14.010000   ; qtot 97.178600
 2032         hn     97    ccc     H9   2032 0.27380000   1.008000   ; qtot 97.452400
 2033         hn     97    ccc    H10   2033 0.27380000   1.008000   ; qtot 97.726200
 2034         hn     97    ccc    H11   2034 0.27380000   1.008000   ; qtot 98.000000
; residue   98 ccc rtp ccc q 1.0
 2035          n     98    ccc     N1   2035 -0.26410000  14.010000   ; qtot 97.735900
 2036         hn     98    ccc     H4   2036 0.27630000   1.008000   ; qtot 98.012200
 2037         c3     98    ccc     C3   2037 -0.17900000  12.010000   ; qtot 97.833200
 2038         c3     98    ccc     C4   2038 0.08000000  12.010000   ; qtot 97.913200
 2039         h1     98    ccc     H5   2039 0.13870000   1.008000   ; qtot 98.051900
 2040         h1     98    ccc     H6   2040 0.13870000   1.008000   ; qtot 98.190600
 2041         hx     98    ccc     H7   2041 0.07790000   1.008000   ; qtot 98.268500
 2042         hx     98    ccc     H8   2042 0.07790000   1.008000   ; qtot 98.346400
 2043         n4     98    ccc     N2   2043 -0.16780000  14.010000   ; qtot 98.178600
 2044         hn     98    ccc     H9   2044 0.27380000   1.008000   ; qtot 98.452400
 2045         hn     98    ccc    H10   2045 0.27380000   1.008000   ; qtot 98.726200
 2046         hn     98    ccc    H11   2046 0.27380000   1.008000   ; qtot 99.000000
; residue   99 ccc rtp ccc q 1.0
 2047          n     99    ccc     N1   2047 -0.26410000  14.010000   ; qtot 98.735900
 2048         hn     99    ccc     H4   2048 0.27630000   1.008000   ; qtot 99.012200
 2049         c3     99    ccc     C3   2049 -0.17900000  12.010000   ; qtot 98.833200
 2050         c3     99    ccc     C4   2050 0.08000000  12.010000   ; qtot 98.913200
 2051         h1     99    ccc     H5   2051 0.13870000   1.008000   ; qtot 99.051900
 2052         h1     99    ccc     H6   2052 0.13870000   1.008000   ; qtot 99.190600
 2053         hx     99    ccc     H7   2053 0.07790000   1.008000   ; qtot 99.268500
 2054         hx     99    ccc     H8   2054 0.07790000   1.008000   ; qtot 99.346400
 2055         n4     99    ccc     N2   2055 -0.16780000  14.010000   ; qtot 99.178600
 2056         hn     99    ccc     H9   2056 0.27380000   1.008000   ; qtot 99.452400
 2057         hn     99    ccc    H10   2057 0.27380000   1.008000   ; qtot 99.726200
 2058         hn     99    ccc    H11   2058 0.27380000   1.008000   ; qtot 100.000000
; residue  100 ccc rtp ccc q 1.0
 2059          n    100    ccc     N1   2059 -0.26410000  14.010000   ; qtot 99.735900
 2060         hn    100    ccc     H4   2060 0.27630000   1.008000   ; qtot 100.012200
 2061         c3    100    ccc     C3   2061 -0.17900000  12.010000   ; qtot 99.833200
 2062         c3    100    ccc     C4   2062 0.08000000  12.010000   ; qtot 99.913200
 2063         h1    100    ccc     H5   2063 0.13870000   1.008000   ; qtot 100.051900
 2064         h1    100    ccc     H6   2064 0.13870000   1.008000   ; qtot 100.190600
 2065         hx    100    ccc     H7   2065 0.07790000   1.008000   ; qtot 100.268500
 2066         hx    100    ccc     H8   2066 0.07790000   1.008000   ; qtot 100.346400
 2067         n4    100    ccc     N2   2067 -0.16780000  14.010000   ; qtot 100.178600
 2068         hn    100    ccc     H9   2068 0.27380000   1.008000   ; qtot 100.452400
 2069         hn    100    ccc    H10   2069 0.27380000   1.008000   ; qtot 100.726200
 2070         hn    100    ccc    H11   2070 0.27380000   1.008000   ; qtot 101.000000
; residue  101 ccc rtp ccc q 1.0
 2071          n    101    ccc     N1   2071 -0.26410000  14.010000   ; qtot 100.735900
 2072         hn    101    ccc     H4   2072 0.27630000   1.008000   ; qtot 101.012200
 2073         c3    101    ccc     C3   2073 -0.17900000  12.010000   ; qtot 100.833200
 2074         c3    101    ccc     C4   2074 0.08000000  12.010000   ; qtot 100.913200
 2075         h1    101    ccc     H5   2075 0.13870000   1.008000   ; qtot 101.051900
 2076         h1    101    ccc     H6   2076 0.13870000   1.008000   ; qtot 101.190600
 2077         hx    101    ccc     H7   2077 0.07790000   1.008000   ; qtot 101.268500
 2078         hx    101    ccc     H8   2078 0.07790000   1.008000   ; qtot 101.346400
 2079         n4    101    ccc     N2   2079 -0.16780000  14.010000   ; qtot 101.178600
 2080         hn    101    ccc     H9   2080 0.27380000   1.008000   ; qtot 101.452400
 2081         hn    101    ccc    H10   2081 0.27380000   1.008000   ; qtot 101.726200
 2082         hn    101    ccc    H11   2082 0.27380000   1.008000   ; qtot 102.000000
; residue  102 ccc rtp ccc q 1.0
 2083          n    102    ccc     N1   2083 -0.26410000  14.010000   ; qtot 101.735900
 2084         hn    102    ccc     H4   2084 0.27630000   1.008000   ; qtot 102.012200
 2085         c3    102    ccc     C3   2085 -0.17900000  12.010000   ; qtot 101.833200
 2086         c3    102    ccc     C4   2086 0.08000000  12.010000   ; qtot 101.913200
 2087         h1    102    ccc     H5   2087 0.13870000   1.008000   ; qtot 102.051900
 2088         h1    102    ccc     H6   2088 0.13870000   1.008000   ; qtot 102.190600
 2089         hx    102    ccc     H7   2089 0.07790000   1.008000   ; qtot 102.268500
 2090         hx    102    ccc     H8   2090 0.07790000   1.008000   ; qtot 102.346400
 2091         n4    102    ccc     N2   2091 -0.16780000  14.010000   ; qtot 102.178600
 2092         hn    102    ccc     H9   2092 0.27380000   1.008000   ; qtot 102.452400
 2093         hn    102    ccc    H10   2093 0.27380000   1.008000   ; qtot 102.726200
 2094         hn    102    ccc    H11   2094 0.27380000   1.008000   ; qtot 103.000000
; residue  103 ccc rtp ccc q 1.0
 2095          n    103    ccc     N1   2095 -0.26410000  14.010000   ; qtot 102.735900
 2096         hn    103    ccc     H4   2096 0.27630000   1.008000   ; qtot 103.012200
 2097         c3    103    ccc     C3   2097 -0.17900000  12.010000   ; qtot 102.833200
 2098         c3    103    ccc     C4   2098 0.08000000  12.010000   ; qtot 102.913200
 2099         h1    103    ccc     H5   2099 0.13870000   1.008000   ; qtot 103.051900
 2100         h1    103    ccc     H6   2100 0.13870000   1.008000   ; qtot 103.190600
 2101         hx    103    ccc     H7   2101 0.07790000   1.008000   ; qtot 103.268500
 2102         hx    103    ccc     H8   2102 0.07790000   1.008000   ; qtot 103.346400
 2103         n4    103    ccc     N2   2103 -0.16780000  14.010000   ; qtot 103.178600
 2104         hn    103    ccc     H9   2104 0.27380000   1.008000   ; qtot 103.452400
 2105         hn    103    ccc    H10   2105 0.27380000   1.008000   ; qtot 103.726200
 2106         hn    103    ccc    H11   2106 0.27380000   1.008000   ; qtot 104.000000
; residue  104 ccc rtp ccc q 1.0
 2107          n    104    ccc     N1   2107 -0.26410000  14.010000   ; qtot 103.735900
 2108         hn    104    ccc     H4   2108 0.27630000   1.008000   ; qtot 104.012200
 2109         c3    104    ccc     C3   2109 -0.17900000  12.010000   ; qtot 103.833200
 2110         c3    104    ccc     C4   2110 0.08000000  12.010000   ; qtot 103.913200
 2111         h1    104    ccc     H5   2111 0.13870000   1.008000   ; qtot 104.051900
 2112         h1    104    ccc     H6   2112 0.13870000   1.008000   ; qtot 104.190600
 2113         hx    104    ccc     H7   2113 0.07790000   1.008000   ; qtot 104.268500
 2114         hx    104    ccc     H8   2114 0.07790000   1.008000   ; qtot 104.346400
 2115         n4    104    ccc     N2   2115 -0.16780000  14.010000   ; qtot 104.178600
 2116         hn    104    ccc     H9   2116 0.27380000   1.008000   ; qtot 104.452400
 2117         hn    104    ccc    H10   2117 0.27380000   1.008000   ; qtot 104.726200
 2118         hn    104    ccc    H11   2118 0.27380000   1.008000   ; qtot 105.000000
; residue  105 ccc rtp ccc q 1.0
 2119          n    105    ccc     N1   2119 -0.26410000  14.010000   ; qtot 104.735900
 2120         hn    105    ccc     H4   2120 0.27630000   1.008000   ; qtot 105.012200
 2121         c3    105    ccc     C3   2121 -0.17900000  12.010000   ; qtot 104.833200
 2122         c3    105    ccc     C4   2122 0.08000000  12.010000   ; qtot 104.913200
 2123         h1    105    ccc     H5   2123 0.13870000   1.008000   ; qtot 105.051900
 2124         h1    105    ccc     H6   2124 0.13870000   1.008000   ; qtot 105.190600
 2125         hx    105    ccc     H7   2125 0.07790000   1.008000   ; qtot 105.268500
 2126         hx    105    ccc     H8   2126 0.07790000   1.008000   ; qtot 105.346400
 2127         n4    105    ccc     N2   2127 -0.16780000  14.010000   ; qtot 105.178600
 2128         hn    105    ccc     H9   2128 0.27380000   1.008000   ; qtot 105.452400
 2129         hn    105    ccc    H10   2129 0.27380000   1.008000   ; qtot 105.726200
 2130         hn    105    ccc    H11   2130 0.27380000   1.008000   ; qtot 106.000000
; residue  106 ccc rtp ccc q 1.0
 2131          n    106    ccc     N1   2131 -0.26410000  14.010000   ; qtot 105.735900
 2132         hn    106    ccc     H4   2132 0.27630000   1.008000   ; qtot 106.012200
 2133         c3    106    ccc     C3   2133 -0.17900000  12.010000   ; qtot 105.833200
 2134         c3    106    ccc     C4   2134 0.08000000  12.010000   ; qtot 105.913200
 2135         h1    106    ccc     H5   2135 0.13870000   1.008000   ; qtot 106.051900
 2136         h1    106    ccc     H6   2136 0.13870000   1.008000   ; qtot 106.190600
 2137         hx    106    ccc     H7   2137 0.07790000   1.008000   ; qtot 106.268500
 2138         hx    106    ccc     H8   2138 0.07790000   1.008000   ; qtot 106.346400
 2139         n4    106    ccc     N2   2139 -0.16780000  14.010000   ; qtot 106.178600
 2140         hn    106    ccc     H9   2140 0.27380000   1.008000   ; qtot 106.452400
 2141         hn    106    ccc    H10   2141 0.27380000   1.008000   ; qtot 106.726200
 2142         hn    106    ccc    H11   2142 0.27380000   1.008000   ; qtot 107.000000
; residue  107 ccc rtp ccc q 1.0
 2143          n    107    ccc     N1   2143 -0.26410000  14.010000   ; qtot 106.735900
 2144         hn    107    ccc     H4   2144 0.27630000   1.008000   ; qtot 107.012200
 2145         c3    107    ccc     C3   2145 -0.17900000  12.010000   ; qtot 106.833200
 2146         c3    107    ccc     C4   2146 0.08000000  12.010000   ; qtot 106.913200
 2147         h1    107    ccc     H5   2147 0.13870000   1.008000   ; qtot 107.051900
 2148         h1    107    ccc     H6   2148 0.13870000   1.008000   ; qtot 107.190600
 2149         hx    107    ccc     H7   2149 0.07790000   1.008000   ; qtot 107.268500
 2150         hx    107    ccc     H8   2150 0.07790000   1.008000   ; qtot 107.346400
 2151         n4    107    ccc     N2   2151 -0.16780000  14.010000   ; qtot 107.178600
 2152         hn    107    ccc     H9   2152 0.27380000   1.008000   ; qtot 107.452400
 2153         hn    107    ccc    H10   2153 0.27380000   1.008000   ; qtot 107.726200
 2154         hn    107    ccc    H11   2154 0.27380000   1.008000   ; qtot 108.000000
; residue  108 ccc rtp ccc q 1.0
 2155          n    108    ccc     N1   2155 -0.26410000  14.010000   ; qtot 107.735900
 2156         hn    108    ccc     H4   2156 0.27630000   1.008000   ; qtot 108.012200
 2157         c3    108    ccc     C3   2157 -0.17900000  12.010000   ; qtot 107.833200
 2158         c3    108    ccc     C4   2158 0.08000000  12.010000   ; qtot 107.913200
 2159         h1    108    ccc     H5   2159 0.13870000   1.008000   ; qtot 108.051900
 2160         h1    108    ccc     H6   2160 0.13870000   1.008000   ; qtot 108.190600
 2161         hx    108    ccc     H7   2161 0.07790000   1.008000   ; qtot 108.268500
 2162         hx    108    ccc     H8   2162 0.07790000   1.008000   ; qtot 108.346400
 2163         n4    108    ccc     N2   2163 -0.16780000  14.010000   ; qtot 108.178600
 2164         hn    108    ccc     H9   2164 0.27380000   1.008000   ; qtot 108.452400
 2165         hn    108    ccc    H10   2165 0.27380000   1.008000   ; qtot 108.726200
 2166         hn    108    ccc    H11   2166 0.27380000   1.008000   ; qtot 109.000000
; residue  109 ccc rtp ccc q 1.0
 2167          n    109    ccc     N1   2167 -0.26410000  14.010000   ; qtot 108.735900
 2168         hn    109    ccc     H4   2168 0.27630000   1.008000   ; qtot 109.012200
 2169         c3    109    ccc     C3   2169 -0.17900000  12.010000   ; qtot 108.833200
 2170         c3    109    ccc     C4   2170 0.08000000  12.010000   ; qtot 108.913200
 2171         h1    109    ccc     H5   2171 0.13870000   1.008000   ; qtot 109.051900
 2172         h1    109    ccc     H6   2172 0.13870000   1.008000   ; qtot 109.190600
 2173         hx    109    ccc     H7   2173 0.07790000   1.008000   ; qtot 109.268500
 2174         hx    109    ccc     H8   2174 0.07790000   1.008000   ; qtot 109.346400
 2175         n4    109    ccc     N2   2175 -0.16780000  14.010000   ; qtot 109.178600
 2176         hn    109    ccc     H9   2176 0.27380000   1.008000   ; qtot 109.452400
 2177         hn    109    ccc    H10   2177 0.27380000   1.008000   ; qtot 109.726200
 2178         hn    109    ccc    H11   2178 0.27380000   1.008000   ; qtot 110.000000
; residue  110 ccc rtp ccc q 1.0
 2179          n    110    ccc     N1   2179 -0.26410000  14.010000   ; qtot 109.735900
 2180         hn    110    ccc     H4   2180 0.27630000   1.008000   ; qtot 110.012200
 2181         c3    110    ccc     C3   2181 -0.17900000  12.010000   ; qtot 109.833200
 2182         c3    110    ccc     C4   2182 0.08000000  12.010000   ; qtot 109.913200
 2183         h1    110    ccc     H5   2183 0.13870000   1.008000   ; qtot 110.051900
 2184         h1    110    ccc     H6   2184 0.13870000   1.008000   ; qtot 110.190600
 2185         hx    110    ccc     H7   2185 0.07790000   1.008000   ; qtot 110.268500
 2186         hx    110    ccc     H8   2186 0.07790000   1.008000   ; qtot 110.346400
 2187         n4    110    ccc     N2   2187 -0.16780000  14.010000   ; qtot 110.178600
 2188         hn    110    ccc     H9   2188 0.27380000   1.008000   ; qtot 110.452400
 2189         hn    110    ccc    H10   2189 0.27380000   1.008000   ; qtot 110.726200
 2190         hn    110    ccc    H11   2190 0.27380000   1.008000   ; qtot 111.000000
; residue  111 ccc rtp ccc q 1.0
 2191          n    111    ccc     N1   2191 -0.26410000  14.010000   ; qtot 110.735900
 2192         hn    111    ccc     H4   2192 0.27630000   1.008000   ; qtot 111.012200
 2193         c3    111    ccc     C3   2193 -0.17900000  12.010000   ; qtot 110.833200
 2194         c3    111    ccc     C4   2194 0.08000000  12.010000   ; qtot 110.913200
 2195         h1    111    ccc     H5   2195 0.13870000   1.008000   ; qtot 111.051900
 2196         h1    111    ccc     H6   2196 0.13870000   1.008000   ; qtot 111.190600
 2197         hx    111    ccc     H7   2197 0.07790000   1.008000   ; qtot 111.268500
 2198         hx    111    ccc     H8   2198 0.07790000   1.008000   ; qtot 111.346400
 2199         n4    111    ccc     N2   2199 -0.16780000  14.010000   ; qtot 111.178600
 2200         hn    111    ccc     H9   2200 0.27380000   1.008000   ; qtot 111.452400
 2201         hn    111    ccc    H10   2201 0.27380000   1.008000   ; qtot 111.726200
 2202         hn    111    ccc    H11   2202 0.27380000   1.008000   ; qtot 112.000000
; residue  112 ccc rtp ccc q 1.0
 2203          n    112    ccc     N1   2203 -0.26410000  14.010000   ; qtot 111.735900
 2204         hn    112    ccc     H4   2204 0.27630000   1.008000   ; qtot 112.012200
 2205         c3    112    ccc     C3   2205 -0.17900000  12.010000   ; qtot 111.833200
 2206         c3    112    ccc     C4   2206 0.08000000  12.010000   ; qtot 111.913200
 2207         h1    112    ccc     H5   2207 0.13870000   1.008000   ; qtot 112.051900
 2208         h1    112    ccc     H6   2208 0.13870000   1.008000   ; qtot 112.190600
 2209         hx    112    ccc     H7   2209 0.07790000   1.008000   ; qtot 112.268500
 2210         hx    112    ccc     H8   2210 0.07790000   1.008000   ; qtot 112.346400
 2211         n4    112    ccc     N2   2211 -0.16780000  14.010000   ; qtot 112.178600
 2212         hn    112    ccc     H9   2212 0.27380000   1.008000   ; qtot 112.452400
 2213         hn    112    ccc    H10   2213 0.27380000   1.008000   ; qtot 112.726200
 2214         hn    112    ccc    H11   2214 0.27380000   1.008000   ; qtot 113.000000
; residue  113 ccc rtp ccc q 1.0
 2215          n    113    ccc     N1   2215 -0.26410000  14.010000   ; qtot 112.735900
 2216         hn    113    ccc     H4   2216 0.27630000   1.008000   ; qtot 113.012200
 2217         c3    113    ccc     C3   2217 -0.17900000  12.010000   ; qtot 112.833200
 2218         c3    113    ccc     C4   2218 0.08000000  12.010000   ; qtot 112.913200
 2219         h1    113    ccc     H5   2219 0.13870000   1.008000   ; qtot 113.051900
 2220         h1    113    ccc     H6   2220 0.13870000   1.008000   ; qtot 113.190600
 2221         hx    113    ccc     H7   2221 0.07790000   1.008000   ; qtot 113.268500
 2222         hx    113    ccc     H8   2222 0.07790000   1.008000   ; qtot 113.346400
 2223         n4    113    ccc     N2   2223 -0.16780000  14.010000   ; qtot 113.178600
 2224         hn    113    ccc     H9   2224 0.27380000   1.008000   ; qtot 113.452400
 2225         hn    113    ccc    H10   2225 0.27380000   1.008000   ; qtot 113.726200
 2226         hn    113    ccc    H11   2226 0.27380000   1.008000   ; qtot 114.000000
; residue  114 ccc rtp ccc q 1.0
 2227          n    114    ccc     N1   2227 -0.26410000  14.010000   ; qtot 113.735900
 2228         hn    114    ccc     H4   2228 0.27630000   1.008000   ; qtot 114.012200
 2229         c3    114    ccc     C3   2229 -0.17900000  12.010000   ; qtot 113.833200
 2230         c3    114    ccc     C4   2230 0.08000000  12.010000   ; qtot 113.913200
 2231         h1    114    ccc     H5   2231 0.13870000   1.008000   ; qtot 114.051900
 2232         h1    114    ccc     H6   2232 0.13870000   1.008000   ; qtot 114.190600
 2233         hx    114    ccc     H7   2233 0.07790000   1.008000   ; qtot 114.268500
 2234         hx    114    ccc     H8   2234 0.07790000   1.008000   ; qtot 114.346400
 2235         n4    114    ccc     N2   2235 -0.16780000  14.010000   ; qtot 114.178600
 2236         hn    114    ccc     H9   2236 0.27380000   1.008000   ; qtot 114.452400
 2237         hn    114    ccc    H10   2237 0.27380000   1.008000   ; qtot 114.726200
 2238         hn    114    ccc    H11   2238 0.27380000   1.008000   ; qtot 115.000000
; residue  115 ccc rtp ccc q 1.0
 2239          n    115    ccc     N1   2239 -0.26410000  14.010000   ; qtot 114.735900
 2240         hn    115    ccc     H4   2240 0.27630000   1.008000   ; qtot 115.012200
 2241         c3    115    ccc     C3   2241 -0.17900000  12.010000   ; qtot 114.833200
 2242         c3    115    ccc     C4   2242 0.08000000  12.010000   ; qtot 114.913200
 2243         h1    115    ccc     H5   2243 0.13870000   1.008000   ; qtot 115.051900
 2244         h1    115    ccc     H6   2244 0.13870000   1.008000   ; qtot 115.190600
 2245         hx    115    ccc     H7   2245 0.07790000   1.008000   ; qtot 115.268500
 2246         hx    115    ccc     H8   2246 0.07790000   1.008000   ; qtot 115.346400
 2247         n4    115    ccc     N2   2247 -0.16780000  14.010000   ; qtot 115.178600
 2248         hn    115    ccc     H9   2248 0.27380000   1.008000   ; qtot 115.452400
 2249         hn    115    ccc    H10   2249 0.27380000   1.008000   ; qtot 115.726200
 2250         hn    115    ccc    H11   2250 0.27380000   1.008000   ; qtot 116.000000
; residue  116 ccc rtp ccc q 1.0
 2251          n    116    ccc     N1   2251 -0.26410000  14.010000   ; qtot 115.735900
 2252         hn    116    ccc     H4   2252 0.27630000   1.008000   ; qtot 116.012200
 2253         c3    116    ccc     C3   2253 -0.17900000  12.010000   ; qtot 115.833200
 2254         c3    116    ccc     C4   2254 0.08000000  12.010000   ; qtot 115.913200
 2255         h1    116    ccc     H5   2255 0.13870000   1.008000   ; qtot 116.051900
 2256         h1    116    ccc     H6   2256 0.13870000   1.008000   ; qtot 116.190600
 2257         hx    116    ccc     H7   2257 0.07790000   1.008000   ; qtot 116.268500
 2258         hx    116    ccc     H8   2258 0.07790000   1.008000   ; qtot 116.346400
 2259         n4    116    ccc     N2   2259 -0.16780000  14.010000   ; qtot 116.178600
 2260         hn    116    ccc     H9   2260 0.27380000   1.008000   ; qtot 116.452400
 2261         hn    116    ccc    H10   2261 0.27380000   1.008000   ; qtot 116.726200
 2262         hn    116    ccc    H11   2262 0.27380000   1.008000   ; qtot 117.000000
; residue  117 ccc rtp ccc q 1.0
 2263          n    117    ccc     N1   2263 -0.26410000  14.010000   ; qtot 116.735900
 2264         hn    117    ccc     H4   2264 0.27630000   1.008000   ; qtot 117.012200
 2265         c3    117    ccc     C3   2265 -0.17900000  12.010000   ; qtot 116.833200
 2266         c3    117    ccc     C4   2266 0.08000000  12.010000   ; qtot 116.913200
 2267         h1    117    ccc     H5   2267 0.13870000   1.008000   ; qtot 117.051900
 2268         h1    117    ccc     H6   2268 0.13870000   1.008000   ; qtot 117.190600
 2269         hx    117    ccc     H7   2269 0.07790000   1.008000   ; qtot 117.268500
 2270         hx    117    ccc     H8   2270 0.07790000   1.008000   ; qtot 117.346400
 2271         n4    117    ccc     N2   2271 -0.16780000  14.010000   ; qtot 117.178600
 2272         hn    117    ccc     H9   2272 0.27380000   1.008000   ; qtot 117.452400
 2273         hn    117    ccc    H10   2273 0.27380000   1.008000   ; qtot 117.726200
 2274         hn    117    ccc    H11   2274 0.27380000   1.008000   ; qtot 118.000000
; residue  118 ccc rtp ccc q 1.0
 2275          n    118    ccc     N1   2275 -0.26410000  14.010000   ; qtot 117.735900
 2276         hn    118    ccc     H4   2276 0.27630000   1.008000   ; qtot 118.012200
 2277         c3    118    ccc     C3   2277 -0.17900000  12.010000   ; qtot 117.833200
 2278         c3    118    ccc     C4   2278 0.08000000  12.010000   ; qtot 117.913200
 2279         h1    118    ccc     H5   2279 0.13870000   1.008000   ; qtot 118.051900
 2280         h1    118    ccc     H6   2280 0.13870000   1.008000   ; qtot 118.190600
 2281         hx    118    ccc     H7   2281 0.07790000   1.008000   ; qtot 118.268500
 2282         hx    118    ccc     H8   2282 0.07790000   1.008000   ; qtot 118.346400
 2283         n4    118    ccc     N2   2283 -0.16780000  14.010000   ; qtot 118.178600
 2284         hn    118    ccc     H9   2284 0.27380000   1.008000   ; qtot 118.452400
 2285         hn    118    ccc    H10   2285 0.27380000   1.008000   ; qtot 118.726200
 2286         hn    118    ccc    H11   2286 0.27380000   1.008000   ; qtot 119.000000
; residue  119 ccc rtp ccc q 1.0
 2287          n    119    ccc     N1   2287 -0.26410000  14.010000   ; qtot 118.735900
 2288         hn    119    ccc     H4   2288 0.27630000   1.008000   ; qtot 119.012200
 2289         c3    119    ccc     C3   2289 -0.17900000  12.010000   ; qtot 118.833200
 2290         c3    119    ccc     C4   2290 0.08000000  12.010000   ; qtot 118.913200
 2291         h1    119    ccc     H5   2291 0.13870000   1.008000   ; qtot 119.051900
 2292         h1    119    ccc     H6   2292 0.13870000   1.008000   ; qtot 119.190600
 2293         hx    119    ccc     H7   2293 0.07790000   1.008000   ; qtot 119.268500
 2294         hx    119    ccc     H8   2294 0.07790000   1.008000   ; qtot 119.346400
 2295         n4    119    ccc     N2   2295 -0.16780000  14.010000   ; qtot 119.178600
 2296         hn    119    ccc     H9   2296 0.27380000   1.008000   ; qtot 119.452400
 2297         hn    119    ccc    H10   2297 0.27380000   1.008000   ; qtot 119.726200
 2298         hn    119    ccc    H11   2298 0.27380000   1.008000   ; qtot 120.000000
; residue  120 ccc rtp ccc q 1.0
 2299          n    120    ccc     N1   2299 -0.26410000  14.010000   ; qtot 119.735900
 2300         hn    120    ccc     H4   2300 0.27630000   1.008000   ; qtot 120.012200
 2301         c3    120    ccc     C3   2301 -0.17900000  12.010000   ; qtot 119.833200
 2302         c3    120    ccc     C4   2302 0.08000000  12.010000   ; qtot 119.913200
 2303         h1    120    ccc     H5   2303 0.13870000   1.008000   ; qtot 120.051900
 2304         h1    120    ccc     H6   2304 0.13870000   1.008000   ; qtot 120.190600
 2305         hx    120    ccc     H7   2305 0.07790000   1.008000   ; qtot 120.268500
 2306         hx    120    ccc     H8   2306 0.07790000   1.008000   ; qtot 120.346400
 2307         n4    120    ccc     N2   2307 -0.16780000  14.010000   ; qtot 120.178600
 2308         hn    120    ccc     H9   2308 0.27380000   1.008000   ; qtot 120.452400
 2309         hn    120    ccc    H10   2309 0.27380000   1.008000   ; qtot 120.726200
 2310         hn    120    ccc    H11   2310 0.27380000   1.008000   ; qtot 121.000000
; residue  121 ccc rtp ccc q 1.0
 2311          n    121    ccc     N1   2311 -0.26410000  14.010000   ; qtot 120.735900
 2312         hn    121    ccc     H4   2312 0.27630000   1.008000   ; qtot 121.012200
 2313         c3    121    ccc     C3   2313 -0.17900000  12.010000   ; qtot 120.833200
 2314         c3    121    ccc     C4   2314 0.08000000  12.010000   ; qtot 120.913200
 2315         h1    121    ccc     H5   2315 0.13870000   1.008000   ; qtot 121.051900
 2316         h1    121    ccc     H6   2316 0.13870000   1.008000   ; qtot 121.190600
 2317         hx    121    ccc     H7   2317 0.07790000   1.008000   ; qtot 121.268500
 2318         hx    121    ccc     H8   2318 0.07790000   1.008000   ; qtot 121.346400
 2319         n4    121    ccc     N2   2319 -0.16780000  14.010000   ; qtot 121.178600
 2320         hn    121    ccc     H9   2320 0.27380000   1.008000   ; qtot 121.452400
 2321         hn    121    ccc    H10   2321 0.27380000   1.008000   ; qtot 121.726200
 2322         hn    121    ccc    H11   2322 0.27380000   1.008000   ; qtot 122.000000
; residue  122 ccc rtp ccc q 1.0
 2323          n    122    ccc     N1   2323 -0.26410000  14.010000   ; qtot 121.735900
 2324         hn    122    ccc     H4   2324 0.27630000   1.008000   ; qtot 122.012200
 2325         c3    122    ccc     C3   2325 -0.17900000  12.010000   ; qtot 121.833200
 2326         c3    122    ccc     C4   2326 0.08000000  12.010000   ; qtot 121.913200
 2327         h1    122    ccc     H5   2327 0.13870000   1.008000   ; qtot 122.051900
 2328         h1    122    ccc     H6   2328 0.13870000   1.008000   ; qtot 122.190600
 2329         hx    122    ccc     H7   2329 0.07790000   1.008000   ; qtot 122.268500
 2330         hx    122    ccc     H8   2330 0.07790000   1.008000   ; qtot 122.346400
 2331         n4    122    ccc     N2   2331 -0.16780000  14.010000   ; qtot 122.178600
 2332         hn    122    ccc     H9   2332 0.27380000   1.008000   ; qtot 122.452400
 2333         hn    122    ccc    H10   2333 0.27380000   1.008000   ; qtot 122.726200
 2334         hn    122    ccc    H11   2334 0.27380000   1.008000   ; qtot 123.000000
; residue  123 ccc rtp ccc q 1.0
 2335          n    123    ccc     N1   2335 -0.26410000  14.010000   ; qtot 122.735900
 2336         hn    123    ccc     H4   2336 0.27630000   1.008000   ; qtot 123.012200
 2337         c3    123    ccc     C3   2337 -0.17900000  12.010000   ; qtot 122.833200
 2338         c3    123    ccc     C4   2338 0.08000000  12.010000   ; qtot 122.913200
 2339         h1    123    ccc     H5   2339 0.13870000   1.008000   ; qtot 123.051900
 2340         h1    123    ccc     H6   2340 0.13870000   1.008000   ; qtot 123.190600
 2341         hx    123    ccc     H7   2341 0.07790000   1.008000   ; qtot 123.268500
 2342         hx    123    ccc     H8   2342 0.07790000   1.008000   ; qtot 123.346400
 2343         n4    123    ccc     N2   2343 -0.16780000  14.010000   ; qtot 123.178600
 2344         hn    123    ccc     H9   2344 0.27380000   1.008000   ; qtot 123.452400
 2345         hn    123    ccc    H10   2345 0.27380000   1.008000   ; qtot 123.726200
 2346         hn    123    ccc    H11   2346 0.27380000   1.008000   ; qtot 124.000000
; residue  124 ccc rtp ccc q 1.0
 2347          n    124    ccc     N1   2347 -0.26410000  14.010000   ; qtot 123.735900
 2348         hn    124    ccc     H4   2348 0.27630000   1.008000   ; qtot 124.012200
 2349         c3    124    ccc     C3   2349 -0.17900000  12.010000   ; qtot 123.833200
 2350         c3    124    ccc     C4   2350 0.08000000  12.010000   ; qtot 123.913200
 2351         h1    124    ccc     H5   2351 0.13870000   1.008000   ; qtot 124.051900
 2352         h1    124    ccc     H6   2352 0.13870000   1.008000   ; qtot 124.190600
 2353         hx    124    ccc     H7   2353 0.07790000   1.008000   ; qtot 124.268500
 2354         hx    124    ccc     H8   2354 0.07790000   1.008000   ; qtot 124.346400
 2355         n4    124    ccc     N2   2355 -0.16780000  14.010000   ; qtot 124.178600
 2356         hn    124    ccc     H9   2356 0.27380000   1.008000   ; qtot 124.452400
 2357         hn    124    ccc    H10   2357 0.27380000   1.008000   ; qtot 124.726200
 2358         hn    124    ccc    H11   2358 0.27380000   1.008000   ; qtot 125.000000
; residue  125 ccc rtp ccc q 1.0
 2359          n    125    ccc     N1   2359 -0.26410000  14.010000   ; qtot 124.735900
 2360         hn    125    ccc     H4   2360 0.27630000   1.008000   ; qtot 125.012200
 2361         c3    125    ccc     C3   2361 -0.17900000  12.010000   ; qtot 124.833200
 2362         c3    125    ccc     C4   2362 0.08000000  12.010000   ; qtot 124.913200
 2363         h1    125    ccc     H5   2363 0.13870000   1.008000   ; qtot 125.051900
 2364         h1    125    ccc     H6   2364 0.13870000   1.008000   ; qtot 125.190600
 2365         hx    125    ccc     H7   2365 0.07790000   1.008000   ; qtot 125.268500
 2366         hx    125    ccc     H8   2366 0.07790000   1.008000   ; qtot 125.346400
 2367         n4    125    ccc     N2   2367 -0.16780000  14.010000   ; qtot 125.178600
 2368         hn    125    ccc     H9   2368 0.27380000   1.008000   ; qtot 125.452400
 2369         hn    125    ccc    H10   2369 0.27380000   1.008000   ; qtot 125.726200
 2370         hn    125    ccc    H11   2370 0.27380000   1.008000   ; qtot 126.000000

[ bonds ]
;    ai     aj funct         c0         c1         c2         c3
      1      2     1   0.15110 237065.440000
      1      7     1   0.15110 237065.440000
      1      8     1   0.15110 237065.440000
      2      3     1   0.15375 251793.120000
      3      4     1   0.15110 237065.440000
      4      5     1   0.15110 237065.440000
      4      6     1   0.15110 237065.440000
      5     11     1   0.15375 251793.120000
      6      9     1   0.15375 251793.120000
      7     13     1   0.15375 251793.120000
      8     15     1   0.15375 251793.120000
      9     10     1   0.15241 261918.400000
     10     18     1   0.12183 533627.360000
     10     52     1   0.13789 357815.680000
     11     12     1   0.15241 261918.400000
     12     17     1   0.12183 533627.360000
     12     78     1   0.13789 357815.680000
     13     14     1   0.15241 261918.400000
     14     20     1   0.12183 533627.360000
     14    104     1   0.13789 357815.680000
     15     16     1   0.15241 261918.400000
     16     19     1   0.12183 533627.360000
     16    130     1   0.13789 357815.680000
     43     44     1   0.15110 237065.440000
     43     45     1   0.15110 237065.440000
     43     50     1   0.15110 237065.440000
     44     46     1   0.15375 251793.120000
     45     48     1   0.15375 251793.120000
     46     47     1   0.15241 261918.400000
     47     53     1   0.12183 533627.360000
     47    156     1   0.13789 357815.680000
     48     49     1   0.15241 261918.400000
     49     54     1   0.12183 533627.360000
     49    182     1   0.13789 357815.680000
     50     51     1   0.15375 251793.120000
     51     52     1   0.14619 275056.160000
     69     70     1   0.15110 237065.440000
     69     71     1   0.15110 237065.440000
     69     76     1   0.15110 237065.440000
     70     72     1   0.15375 251793.120000
     71     74     1   0.15375 251793.120000
     72     73     1   0.15241 261918.400000
     73     79     1   0.12183 533627.360000
     73    208     1   0.13789 357815.680000
     74     75     1   0.15241 261918.400000
     75     80     1   0.12183 533627.360000
     75    234     1   0.13789 357815.680000
     76     77     1   0.15375 251793.120000
     77     78     1   0.14619 275056.160000
     95     96     1   0.15110 237065.440000
     95     97     1   0.15110 237065.440000
     95    102     1   0.15110 237065.440000
     96     98     1   0.15375 251793.120000
     97    100     1   0.15375 251793.120000
     98     99     1   0.15241 261918.400000
     99    105     1   0.12183 533627.360000
     99    260     1   0.13789 357815.680000
    100    101     1   0.15241 261918.400000
    101    106     1   0.12183 533627.360000
    101    286     1   0.13789 357815.680000
    102    103     1   0.15375 251793.120000
    103    104     1   0.14619 275056.160000
    121    122     1   0.15110 237065.440000
    121    123     1   0.15110 237065.440000
    121    128     1   0.15110 237065.440000
    122    124     1   0.15375 251793.120000
    123    126     1   0.15375 251793.120000
    124    125     1   0.15241 261918.400000
    125    131     1   0.12183 533627.360000
    125    312     1   0.13789 357815.680000
    126    127     1   0.15241 261918.400000
    127    132     1   0.12183 533627.360000
    127    338     1   0.13789 357815.680000
    128    129     1   0.15375 251793.120000
    129    130     1   0.14619 275056.160000
    147    148     1   0.15110 237065.440000
    147    149     1   0.15110 237065.440000
    147    154     1   0.15110 237065.440000
    148    150     1   0.15375 251793.120000
    149    152     1   0.15375 251793.120000
    150    151     1   0.15241 261918.400000
    151    157     1   0.12183 533627.360000
    151    364     1   0.13789 357815.680000
    152    153     1   0.15241 261918.400000
    153    158     1   0.12183 533627.360000
    153    390     1   0.13789 357815.680000
    154    155     1   0.15375 251793.120000
    155    156     1   0.14619 275056.160000
    173    174     1   0.15110 237065.440000
    173    175     1   0.15110 237065.440000
    173    180     1   0.15110 237065.440000
    174    176     1   0.15375 251793.120000
    175    178     1   0.15375 251793.120000
    176    177     1   0.15241 261918.400000
    177    183     1   0.12183 533627.360000
    177    416     1   0.13789 357815.680000
    178    179     1   0.15241 261918.400000
    179    184     1   0.12183 533627.360000
    179    442     1   0.13789 357815.680000
    180    181     1   0.15375 251793.120000
    181    182     1   0.14619 275056.160000
    199    200     1   0.15110 237065.440000
    199    201     1   0.15110 237065.440000
    199    206     1   0.15110 237065.440000
    200    202     1   0.15375 251793.120000
    201    204     1   0.15375 251793.120000
    202    203     1   0.15241 261918.400000
    203    209     1   0.12183 533627.360000
    203    468     1   0.13789 357815.680000
    204    205     1   0.15241 261918.400000
    205    210     1   0.12183 533627.360000
    205    494     1   0.13789 357815.680000
    206    207     1   0.15375 251793.120000
    207    208     1   0.14619 275056.160000
    225    226     1   0.15110 237065.440000
    225    227     1   0.15110 237065.440000
    225    232     1   0.15110 237065.440000
    226    228     1   0.15375 251793.120000
    227    230     1   0.15375 251793.120000
    228    229     1   0.15241 261918.400000
    229    235     1   0.12183 533627.360000
    229    520     1   0.13789 357815.680000
    230    231     1   0.15241 261918.400000
    231    236     1   0.12183 533627.360000
    231    546     1   0.13789 357815.680000
    232    233     1   0.15375 251793.120000
    233    234     1   0.14619 275056.160000
    251    252     1   0.15110 237065.440000
    251    253     1   0.15110 237065.440000
    251    258     1   0.15110 237065.440000
    252    254     1   0.15375 251793.120000
    253    256     1   0.15375 251793.120000
    254    255     1   0.15241 261918.400000
    255    261     1   0.12183 533627.360000
    255    572     1   0.13789 357815.680000
    256    257     1   0.15241 261918.400000
    257    262     1   0.12183 533627.360000
    257    598     1   0.13789 357815.680000
    258    259     1   0.15375 251793.120000
    259    260     1   0.14619 275056.160000
    277    278     1   0.15110 237065.440000
    277    279     1   0.15110 237065.440000
    277    284     1   0.15110 237065.440000
    278    280     1   0.15375 251793.120000
    279    282     1   0.15375 251793.120000
    280    281     1   0.15241 261918.400000
    281    287     1   0.12183 533627.360000
    281    624     1   0.13789 357815.680000
    282    283     1   0.15241 261918.400000
    283    288     1   0.12183 533627.360000
    283    650     1   0.13789 357815.680000
    284    285     1   0.15375 251793.120000
    285    286     1   0.14619 275056.160000
    303    304     1   0.15110 237065.440000
    303    305     1   0.15110 237065.440000
    303    310     1   0.15110 237065.440000
    304    306     1   0.15375 251793.120000
    305    308     1   0.15375 251793.120000
    306    307     1   0.15241 261918.400000
    307    313     1   0.12183 533627.360000
    307    676     1   0.13789 357815.680000
    308    309     1   0.15241 261918.400000
    309    314     1   0.12183 533627.360000
    309    702     1   0.13789 357815.680000
    310    311     1   0.15375 251793.120000
    311    312     1   0.14619 275056.160000
    329    330     1   0.15110 237065.440000
    329    331     1   0.15110 237065.440000
    329    336     1   0.15110 237065.440000
    330    332     1   0.15375 251793.120000
    331    334     1   0.15375 251793.120000
    332    333     1   0.15241 261918.400000
    333    339     1   0.12183 533627.360000
    333    728     1   0.13789 357815.680000
    334    335     1   0.15241 261918.400000
    335    340     1   0.12183 533627.360000
    335    754     1   0.13789 357815.680000
    336    337     1   0.15375 251793.120000
    337    338     1   0.14619 275056.160000
    355    356     1   0.15110 237065.440000
    355    357     1   0.15110 237065.440000
    355    362     1   0.15110 237065.440000
    356    358     1   0.15375 251793.120000
    357    360     1   0.15375 251793.120000
    358    359     1   0.15241 261918.400000
    359    365     1   0.12183 533627.360000
    359    780     1   0.13789 357815.680000
    360    361     1   0.15241 261918.400000
    361    366     1   0.12183 533627.360000
    361    806     1   0.13789 357815.680000
    362    363     1   0.15375 251793.120000
    363    364     1   0.14619 275056.160000
    381    382     1   0.15110 237065.440000
    381    383     1   0.15110 237065.440000
    381    388     1   0.15110 237065.440000
    382    384     1   0.15375 251793.120000
    383    386     1   0.15375 251793.120000
    384    385     1   0.15241 261918.400000
    385    391     1   0.12183 533627.360000
    385    832     1   0.13789 357815.680000
    386    387     1   0.15241 261918.400000
    387    392     1   0.12183 533627.360000
    387    858     1   0.13789 357815.680000
    388    389     1   0.15375 251793.120000
    389    390     1   0.14619 275056.160000
    407    408     1   0.15110 237065.440000
    407    409     1   0.15110 237065.440000
    407    414     1   0.15110 237065.440000
    408    410     1   0.15375 251793.120000
    409    412     1   0.15375 251793.120000
    410    411     1   0.15241 261918.400000
    411    417     1   0.12183 533627.360000
    411    884     1   0.13789 357815.680000
    412    413     1   0.15241 261918.400000
    413    418     1   0.12183 533627.360000
    413    910     1   0.13789 357815.680000
    414    415     1   0.15375 251793.120000
    415    416     1   0.14619 275056.160000
    433    434     1   0.15110 237065.440000
    433    435     1   0.15110 237065.440000
    433    440     1   0.15110 237065.440000
    434    436     1   0.15375 251793.120000
    435    438     1   0.15375 251793.120000
    436    437     1   0.15241 261918.400000
    437    443     1   0.12183 533627.360000
    437    936     1   0.13789 357815.680000
    438    439     1   0.15241 261918.400000
    439    444     1   0.12183 533627.360000
    439    962     1   0.13789 357815.680000
    440    441     1   0.15375 251793.120000
    441    442     1   0.14619 275056.160000
    459    460     1   0.15110 237065.440000
    459    461     1   0.15110 237065.440000
    459    466     1   0.15110 237065.440000
    460    462     1   0.15375 251793.120000
    461    464     1   0.15375 251793.120000
    462    463     1   0.15241 261918.400000
    463    469     1   0.12183 533627.360000
    463    988     1   0.13789 357815.680000
    464    465     1   0.15241 261918.400000
    465    470     1   0.12183 533627.360000
    465   1014     1   0.13789 357815.680000
    466    467     1   0.15375 251793.120000
    467    468     1   0.14619 275056.160000
    485    486     1   0.15110 237065.440000
    485    487     1   0.15110 237065.440000
    485    492     1   0.15110 237065.440000
    486    488     1   0.15375 251793.120000
    487    490     1   0.15375 251793.120000
    488    489     1   0.15241 261918.400000
    489    495     1   0.12183 533627.360000
    489   1040     1   0.13789 357815.680000
    490    491     1   0.15241 261918.400000
    491    496     1   0.12183 533627.360000
    491   1066     1   0.13789 357815.680000
    492    493     1   0.15375 251793.120000
    493    494     1   0.14619 275056.160000
    511    512     1   0.15110 237065.440000
    511    513     1   0.15110 237065.440000
    511    518     1   0.15110 237065.440000
    512    514     1   0.15375 251793.120000
    513    516     1   0.15375 251793.120000
    514    515     1   0.15241 261918.400000
    515    521     1   0.12183 533627.360000
    515   1092     1   0.13789 357815.680000
    516    517     1   0.15241 261918.400000
    517    522     1   0.12183 533627.360000
    517   1118     1   0.13789 357815.680000
    518    519     1   0.15375 251793.120000
    519    520     1   0.14619 275056.160000
    537    538     1   0.15110 237065.440000
    537    539     1   0.15110 237065.440000
    537    544     1   0.15110 237065.440000
    538    540     1   0.15375 251793.120000
    539    542     1   0.15375 251793.120000
    540    541     1   0.15241 261918.400000
    541    547     1   0.12183 533627.360000
    541   1144     1   0.13789 357815.680000
    542    543     1   0.15241 261918.400000
    543    548     1   0.12183 533627.360000
    543   1170     1   0.13789 357815.680000
    544    545     1   0.15375 251793.120000
    545    546     1   0.14619 275056.160000
    563    564     1   0.15110 237065.440000
    563    565     1   0.15110 237065.440000
    563    570     1   0.15110 237065.440000
    564    566     1   0.15375 251793.120000
    565    568     1   0.15375 251793.120000
    566    567     1   0.15241 261918.400000
    567    573     1   0.12183 533627.360000
    567   1196     1   0.13789 357815.680000
    568    569     1   0.15241 261918.400000
    569    574     1   0.12183 533627.360000
    569   1222     1   0.13789 357815.680000
    570    571     1   0.15375 251793.120000
    571    572     1   0.14619 275056.160000
    589    590     1   0.15110 237065.440000
    589    591     1   0.15110 237065.440000
    589    596     1   0.15110 237065.440000
    590    592     1   0.15375 251793.120000
    591    594     1   0.15375 251793.120000
    592    593     1   0.15241 261918.400000
    593    599     1   0.12183 533627.360000
    593   1248     1   0.13789 357815.680000
    594    595     1   0.15241 261918.400000
    595    600     1   0.12183 533627.360000
    595   1274     1   0.13789 357815.680000
    596    597     1   0.15375 251793.120000
    597    598     1   0.14619 275056.160000
    615    616     1   0.15110 237065.440000
    615    617     1   0.15110 237065.440000
    615    622     1   0.15110 237065.440000
    616    618     1   0.15375 251793.120000
    617    620     1   0.15375 251793.120000
    618    619     1   0.15241 261918.400000
    619    625     1   0.12183 533627.360000
    619   1300     1   0.13789 357815.680000
    620    621     1   0.15241 261918.400000
    621    626     1   0.12183 533627.360000
    621   1326     1   0.13789 357815.680000
    622    623     1   0.15375 251793.120000
    623    624     1   0.14619 275056.160000
    641    642     1   0.15110 237065.440000
    641    643     1   0.15110 237065.440000
    641    648     1   0.15110 237065.440000
    642    644     1   0.15375 251793.120000
    643    646     1   0.15375 251793.120000
    644    645     1   0.15241 261918.400000
    645    651     1   0.12183 533627.360000
    645   1352     1   0.13789 357815.680000
    646    647     1   0.15241 261918.400000
    647    652     1   0.12183 533627.360000
    647   1378     1   0.13789 357815.680000
    648    649     1   0.15375 251793.120000
    649    650     1   0.14619 275056.160000
    667    668     1   0.15110 237065.440000
    667    669     1   0.15110 237065.440000
    667    674     1   0.15110 237065.440000
    668    670     1   0.15375 251793.120000
    669    672     1   0.15375 251793.120000
    670    671     1   0.15241 261918.400000
    671    677     1   0.12183 533627.360000
    671   1404     1   0.13789 357815.680000
    672    673     1   0.15241 261918.400000
    673    678     1   0.12183 533627.360000
    673   1430     1   0.13789 357815.680000
    674    675     1   0.15375 251793.120000
    675    676     1   0.14619 275056.160000
    693    694     1   0.15110 237065.440000
    693    695     1   0.15110 237065.440000
    693    700     1   0.15110 237065.440000
    694    696     1   0.15375 251793.120000
    695    698     1   0.15375 251793.120000
    696    697     1   0.15241 261918.400000
    697    703     1   0.12183 533627.360000
    697   1456     1   0.13789 357815.680000
    698    699     1   0.15241 261918.400000
    699    704     1   0.12183 533627.360000
    699   1482     1   0.13789 357815.680000
    700    701     1   0.15375 251793.120000
    701    702     1   0.14619 275056.160000
    719    720     1   0.15110 237065.440000
    719    721     1   0.15110 237065.440000
    719    726     1   0.15110 237065.440000
    720    722     1   0.15375 251793.120000
    721    724     1   0.15375 251793.120000
    722    723     1   0.15241 261918.400000
    723    729     1   0.12183 533627.360000
    723   1508     1   0.13789 357815.680000
    724    725     1   0.15241 261918.400000
    725    730     1   0.12183 533627.360000
    725   1534     1   0.13789 357815.680000
    726    727     1   0.15375 251793.120000
    727    728     1   0.14619 275056.160000
    745    746     1   0.15110 237065.440000
    745    747     1   0.15110 237065.440000
    745    752     1   0.15110 237065.440000
    746    748     1   0.15375 251793.120000
    747    750     1   0.15375 251793.120000
    748    749     1   0.15241 261918.400000
    749    755     1   0.12183 533627.360000
    749   1560     1   0.13789 357815.680000
    750    751     1   0.15241 261918.400000
    751    756     1   0.12183 533627.360000
    751   1586     1   0.13789 357815.680000
    752    753     1   0.15375 251793.120000
    753    754     1   0.14619 275056.160000
    771    772     1   0.15110 237065.440000
    771    773     1   0.15110 237065.440000
    771    778     1   0.15110 237065.440000
    772    774     1   0.15375 251793.120000
    773    776     1   0.15375 251793.120000
    774    775     1   0.15241 261918.400000
    775   1603     1   0.13789 357815.680000
    775    781     1   0.12183 533627.360000
    776    777     1   0.15241 261918.400000
    777    782     1   0.12183 533627.360000
    777   1615     1   0.13789 357815.680000
    778    779     1   0.15375 251793.120000
    779    780     1   0.14619 275056.160000
    797    798     1   0.15110 237065.440000
    797    799     1   0.15110 237065.440000
    797    804     1   0.15110 237065.440000
    798    800     1   0.15375 251793.120000
    799    802     1   0.15375 251793.120000
    800    801     1   0.15241 261918.400000
    801   1627     1   0.13789 357815.680000
    801    807     1   0.12183 533627.360000
    802    803     1   0.15241 261918.400000
    803    808     1   0.12183 533627.360000
    803   1639     1   0.13789 357815.680000
    804    805     1   0.15375 251793.120000
    805    806     1   0.14619 275056.160000
    823    824     1   0.15110 237065.440000
    823    825     1   0.15110 237065.440000
    823    830     1   0.15110 237065.440000
    824    826     1   0.15375 251793.120000
    825    828     1   0.15375 251793.120000
    826    827     1   0.15241 261918.400000
    827   1651     1   0.13789 357815.680000
    827    833     1   0.12183 533627.360000
    828    829     1   0.15241 261918.400000
    829    834     1   0.12183 533627.360000
    829   1663     1   0.13789 357815.680000
    830    831     1   0.15375 251793.120000
    831    832     1   0.14619 275056.160000
    849    850     1   0.15110 237065.440000
    849    851     1   0.15110 237065.440000
    849    856     1   0.15110 237065.440000
    850    852     1   0.15375 251793.120000
    851    854     1   0.15375 251793.120000
    852    853     1   0.15241 261918.400000
    853   1675     1   0.13789 357815.680000
    853    859     1   0.12183 533627.360000
    854    855     1   0.15241 261918.400000
    855    860     1   0.12183 533627.360000
    855   1687     1   0.13789 357815.680000
    856    857     1   0.15375 251793.120000
    857    858     1   0.14619 275056.160000
    875    876     1   0.15110 237065.440000
    875    877     1   0.15110 237065.440000
    875    882     1   0.15110 237065.440000
    876    878     1   0.15375 251793.120000
    877    880     1   0.15375 251793.120000
    878    879     1   0.15241 261918.400000
    879   1699     1   0.13789 357815.680000
    879    885     1   0.12183 533627.360000
    880    881     1   0.15241 261918.400000
    881    886     1   0.12183 533627.360000
    881   1711     1   0.13789 357815.680000
    882    883     1   0.15375 251793.120000
    883    884     1   0.14619 275056.160000
    901    902     1   0.15110 237065.440000
    901    903     1   0.15110 237065.440000
    901    908     1   0.15110 237065.440000
    902    904     1   0.15375 251793.120000
    903    906     1   0.15375 251793.120000
    904    905     1   0.15241 261918.400000
    905   1723     1   0.13789 357815.680000
    905    911     1   0.12183 533627.360000
    906    907     1   0.15241 261918.400000
    907    912     1   0.12183 533627.360000
    907   1735     1   0.13789 357815.680000
    908    909     1   0.15375 251793.120000
    909    910     1   0.14619 275056.160000
    927    928     1   0.15110 237065.440000
    927    929     1   0.15110 237065.440000
    927    934     1   0.15110 237065.440000
    928    930     1   0.15375 251793.120000
    929    932     1   0.15375 251793.120000
    930    931     1   0.15241 261918.400000
    931   1747     1   0.13789 357815.680000
    931    937     1   0.12183 533627.360000
    932    933     1   0.15241 261918.400000
    933    938     1   0.12183 533627.360000
    933   1759     1   0.13789 357815.680000
    934    935     1   0.15375 251793.120000
    935    936     1   0.14619 275056.160000
    953    954     1   0.15110 237065.440000
    953    955     1   0.15110 237065.440000
    953    960     1   0.15110 237065.440000
    954    956     1   0.15375 251793.120000
    955    958     1   0.15375 251793.120000
    956    957     1   0.15241 261918.400000
    957   1771     1   0.13789 357815.680000
    957    963     1   0.12183 533627.360000
    958    959     1   0.15241 261918.400000
    959    964     1   0.12183 533627.360000
    959   1783     1   0.13789 357815.680000
    960    961     1   0.15375 251793.120000
    961    962     1   0.14619 275056.160000
    979    980     1   0.15110 237065.440000
    979    981     1   0.15110 237065.440000
    979    986     1   0.15110 237065.440000
    980    982     1   0.15375 251793.120000
    981    984     1   0.15375 251793.120000
    982    983     1   0.15241 261918.400000
    983   1795     1   0.13789 357815.680000
    983    989     1   0.12183 533627.360000
    984    985     1   0.15241 261918.400000
    985    990     1   0.12183 533627.360000
    985   1807     1   0.13789 357815.680000
    986    987     1   0.15375 251793.120000
    987    988     1   0.14619 275056.160000
   1005   1006     1   0.15110 237065.440000
   1005   1007     1   0.15110 237065.440000
   1005   1012     1   0.15110 237065.440000
   1006   1008     1   0.15375 251793.120000
   1007   1010     1   0.15375 251793.120000
   1008   1009     1   0.15241 261918.400000
   1009   1819     1   0.13789 357815.680000
   1009   1015     1   0.12183 533627.360000
   1010   1011     1   0.15241 261918.400000
   1011   1016     1   0.12183 533627.360000
   1011   1831     1   0.13789 357815.680000
   1012   1013     1   0.15375 251793.120000
   1013   1014     1   0.14619 275056.160000
   1031   1032     1   0.15110 237065.440000
   1031   1033     1   0.15110 237065.440000
   1031   1038     1   0.15110 237065.440000
   1032   1034     1   0.15375 251793.120000
   1033   1036     1   0.15375 251793.120000
   1034   1035     1   0.15241 261918.400000
   1035   1843     1   0.13789 357815.680000
   1035   1041     1   0.12183 533627.360000
   1036   1037     1   0.15241 261918.400000
   1037   1042     1   0.12183 533627.360000
   1037   1855     1   0.13789 357815.680000
   1038   1039     1   0.15375 251793.120000
   1039   1040     1   0.14619 275056.160000
   1057   1058     1   0.15110 237065.440000
   1057   1059     1   0.15110 237065.440000
   1057   1064     1   0.15110 237065.440000
   1058   1060     1   0.15375 251793.120000
   1059   1062     1   0.15375 251793.120000
   1060   1061     1   0.15241 261918.400000
   1061   1867     1   0.13789 357815.680000
   1061   1067     1   0.12183 533627.360000
   1062   1063     1   0.15241 261918.400000
   1063   1068     1   0.12183 533627.360000
   1063   1879     1   0.13789 357815.680000
   1064   1065     1   0.15375 251793.120000
   1065   1066     1   0.14619 275056.160000
   1083   1084     1   0.15110 237065.440000
   1083   1085     1   0.15110 237065.440000
   1083   1090     1   0.15110 237065.440000
   1084   1086     1   0.15375 251793.120000
   1085   1088     1   0.15375 251793.120000
   1086   1087     1   0.15241 261918.400000
   1087   1891     1   0.13789 357815.680000
   1087   1093     1   0.12183 533627.360000
   1088   1089     1   0.15241 261918.400000
   1089   1094     1   0.12183 533627.360000
   1089   1903     1   0.13789 357815.680000
   1090   1091     1   0.15375 251793.120000
   1091   1092     1   0.14619 275056.160000
   1109   1110     1   0.15110 237065.440000
   1109   1111     1   0.15110 237065.440000
   1109   1116     1   0.15110 237065.440000
   1110   1112     1   0.15375 251793.120000
   1111   1114     1   0.15375 251793.120000
   1112   1113     1   0.15241 261918.400000
   1113   1915     1   0.13789 357815.680000
   1113   1119     1   0.12183 533627.360000
   1114   1115     1   0.15241 261918.400000
   1115   1120     1   0.12183 533627.360000
   1115   1927     1   0.13789 357815.680000
   1116   1117     1   0.15375 251793.120000
   1117   1118     1   0.14619 275056.160000
   1135   1136     1   0.15110 237065.440000
   1135   1137     1   0.15110 237065.440000
   1135   1142     1   0.15110 237065.440000
   1136   1138     1   0.15375 251793.120000
   1137   1140     1   0.15375 251793.120000
   1138   1139     1   0.15241 261918.400000
   1139   1939     1   0.13789 357815.680000
   1139   1145     1   0.12183 533627.360000
   1140   1141     1   0.15241 261918.400000
   1141   1146     1   0.12183 533627.360000
   1141   1951     1   0.13789 357815.680000
   1142   1143     1   0.15375 251793.120000
   1143   1144     1   0.14619 275056.160000
   1161   1162     1   0.15110 237065.440000
   1161   1163     1   0.15110 237065.440000
   1161   1168     1   0.15110 237065.440000
   1162   1164     1   0.15375 251793.120000
   1163   1166     1   0.15375 251793.120000
   1164   1165     1   0.15241 261918.400000
   1165   1963     1   0.13789 357815.680000
   1165   1171     1   0.12183 533627.360000
   1166   1167     1   0.15241 261918.400000
   1167   1172     1   0.12183 533627.360000
   1167   1975     1   0.13789 357815.680000
   1168   1169     1   0.15375 251793.120000
   1169   1170     1   0.14619 275056.160000
   1187   1188     1   0.15110 237065.440000
   1187   1189     1   0.15110 237065.440000
   1187   1194     1   0.15110 237065.440000
   1188   1190     1   0.15375 251793.120000
   1189   1192     1   0.15375 251793.120000
   1190   1191     1   0.15241 261918.400000
   1191   1987     1   0.13789 357815.680000
   1191   1197     1   0.12183 533627.360000
   1192   1193     1   0.15241 261918.400000
   1193   1198     1   0.12183 533627.360000
   1193   1999     1   0.13789 357815.680000
   1194   1195     1   0.15375 251793.120000
   1195   1196     1   0.14619 275056.160000
   1213   1214     1   0.15110 237065.440000
   1213   1215     1   0.15110 237065.440000
   1213   1220     1   0.15110 237065.440000
   1214   1216     1   0.15375 251793.120000
   1215   1218     1   0.15375 251793.120000
   1216   1217     1   0.15241 261918.400000
   1217   2011     1   0.13789 357815.680000
   1217   1223     1   0.12183 533627.360000
   1218   1219     1   0.15241 261918.400000
   1219   1224     1   0.12183 533627.360000
   1219   2023     1   0.13789 357815.680000
   1220   1221     1   0.15375 251793.120000
   1221   1222     1   0.14619 275056.160000
   1239   1240     1   0.15110 237065.440000
   1239   1241     1   0.15110 237065.440000
   1239   1246     1   0.15110 237065.440000
   1240   1242     1   0.15375 251793.120000
   1241   1244     1   0.15375 251793.120000
   1242   1243     1   0.15241 261918.400000
   1243   2035     1   0.13789 357815.680000
   1243   1249     1   0.12183 533627.360000
   1244   1245     1   0.15241 261918.400000
   1245   1250     1   0.12183 533627.360000
   1245   2047     1   0.13789 357815.680000
   1246   1247     1   0.15375 251793.120000
   1247   1248     1   0.14619 275056.160000
   1265   1266     1   0.15110 237065.440000
   1265   1267     1   0.15110 237065.440000
   1265   1272     1   0.15110 237065.440000
   1266   1268     1   0.15375 251793.120000
   1267   1270     1   0.15375 251793.120000
   1268   1269     1   0.15241 261918.400000
   1269   2059     1   0.13789 357815.680000
   1269   1275     1   0.12183 533627.360000
   1270   1271     1   0.15241 261918.400000
   1271   1276     1   0.12183 533627.360000
   1271   2071     1   0.13789 357815.680000
   1272   1273     1   0.15375 251793.120000
   1273   1274     1   0.14619 275056.160000
   1291   1292     1   0.15110 237065.440000
   1291   1293     1   0.15110 237065.440000
   1291   1298     1   0.15110 237065.440000
   1292   1294     1   0.15375 251793.120000
   1293   1296     1   0.15375 251793.120000
   1294   1295     1   0.15241 261918.400000
   1295   2083     1   0.13789 357815.680000
   1295   1301     1   0.12183 533627.360000
   1296   1297     1   0.15241 261918.400000
   1297   1302     1   0.12183 533627.360000
   1297   2095     1   0.13789 357815.680000
   1298   1299     1   0.15375 251793.120000
   1299   1300     1   0.14619 275056.160000
   1317   1318     1   0.15110 237065.440000
   1317   1319     1   0.15110 237065.440000
   1317   1324     1   0.15110 237065.440000
   1318   1320     1   0.15375 251793.120000
   1319   1322     1   0.15375 251793.120000
   1320   1321     1   0.15241 261918.400000
   1321   2107     1   0.13789 357815.680000
   1321   1327     1   0.12183 533627.360000
   1322   1323     1   0.15241 261918.400000
   1323   1328     1   0.12183 533627.360000
   1323   2119     1   0.13789 357815.680000
   1324   1325     1   0.15375 251793.120000
   1325   1326     1   0.14619 275056.160000
   1343   1344     1   0.15110 237065.440000
   1343   1345     1   0.15110 237065.440000
   1343   1350     1   0.15110 237065.440000
   1344   1346     1   0.15375 251793.120000
   1345   1348     1   0.15375 251793.120000
   1346   1347     1   0.15241 261918.400000
   1347   2131     1   0.13789 357815.680000
   1347   1353     1   0.12183 533627.360000
   1348   1349     1   0.15241 261918.400000
   1349   1354     1   0.12183 533627.360000
   1349   2143     1   0.13789 357815.680000
   1350   1351     1   0.15375 251793.120000
   1351   1352     1   0.14619 275056.160000
   1369   1370     1   0.15110 237065.440000
   1369   1371     1   0.15110 237065.440000
   1369   1376     1   0.15110 237065.440000
   1370   1372     1   0.15375 251793.120000
   1371   1374     1   0.15375 251793.120000
   1372   1373     1   0.15241 261918.400000
   1373   2155     1   0.13789 357815.680000
   1373   1379     1   0.12183 533627.360000
   1374   1375     1   0.15241 261918.400000
   1375   1380     1   0.12183 533627.360000
   1375   2167     1   0.13789 357815.680000
   1376   1377     1   0.15375 251793.120000
   1377   1378     1   0.14619 275056.160000
   1395   1396     1   0.15110 237065.440000
   1395   1397     1   0.15110 237065.440000
   1395   1402     1   0.15110 237065.440000
   1396   1398     1   0.15375 251793.120000
   1397   1400     1   0.15375 251793.120000
   1398   1399     1   0.15241 261918.400000
   1399   2179     1   0.13789 357815.680000
   1399   1405     1   0.12183 533627.360000
   1400   1401     1   0.15241 261918.400000
   1401   1406     1   0.12183 533627.360000
   1401   2191     1   0.13789 357815.680000
   1402   1403     1   0.15375 251793.120000
   1403   1404     1   0.14619 275056.160000
   1421   1422     1   0.15110 237065.440000
   1421   1423     1   0.15110 237065.440000
   1421   1428     1   0.15110 237065.440000
   1422   1424     1   0.15375 251793.120000
   1423   1426     1   0.15375 251793.120000
   1424   1425     1   0.15241 261918.400000
   1425   2203     1   0.13789 357815.680000
   1425   1431     1   0.12183 533627.360000
   1426   1427     1   0.15241 261918.400000
   1427   1432     1   0.12183 533627.360000
   1427   2215     1   0.13789 357815.680000
   1428   1429     1   0.15375 251793.120000
   1429   1430     1   0.14619 275056.160000
   1447   1448     1   0.15110 237065.440000
   1447   1449     1   0.15110 237065.440000
   1447   1454     1   0.15110 237065.440000
   1448   1450     1   0.15375 251793.120000
   1449   1452     1   0.15375 251793.120000
   1450   1451     1   0.15241 261918.400000
   1451   2227     1   0.13789 357815.680000
   1451   1457     1   0.12183 533627.360000
   1452   1453     1   0.15241 261918.400000
   1453   1458     1   0.12183 533627.360000
   1453   2239     1   0.13789 357815.680000
   1454   1455     1   0.15375 251793.120000
   1455   1456     1   0.14619 275056.160000
   1473   1474     1   0.15110 237065.440000
   1473   1475     1   0.15110 237065.440000
   1473   1480     1   0.15110 237065.440000
   1474   1476     1   0.15375 251793.120000
   1475   1478     1   0.15375 251793.120000
   1476   1477     1   0.15241 261918.400000
   1477   2251     1   0.13789 357815.680000
   1477   1483     1   0.12183 533627.360000
   1478   1479     1   0.15241 261918.400000
   1479   1484     1   0.12183 533627.360000
   1479   2263     1   0.13789 357815.680000
   1480   1481     1   0.15375 251793.120000
   1481   1482     1   0.14619 275056.160000
   1499   1500     1   0.15110 237065.440000
   1499   1501     1   0.15110 237065.440000
   1499   1506     1   0.15110 237065.440000
   1500   1502     1   0.15375 251793.120000
   1501   1504     1   0.15375 251793.120000
   1502   1503     1   0.15241 261918.400000
   1503   2275     1   0.13789 357815.680000
   1503   1509     1   0.12183 533627.360000
   1504   1505     1   0.15241 261918.400000
   1505   1510     1   0.12183 533627.360000
   1505   2287     1   0.13789 357815.680000
   1506   1507     1   0.15375 251793.120000
   1507   1508     1   0.14619 275056.160000
   1525   1526     1   0.15110 237065.440000
   1525   1527     1   0.15110 237065.440000
   1525   1532     1   0.15110 237065.440000
   1526   1528     1   0.15375 251793.120000
   1527   1530     1   0.15375 251793.120000
   1528   1529     1   0.15241 261918.400000
   1529   2299     1   0.13789 357815.680000
   1529   1535     1   0.12183 533627.360000
   1530   1531     1   0.15241 261918.400000
   1531   1536     1   0.12183 533627.360000
   1531   2311     1   0.13789 357815.680000
   1532   1533     1   0.15375 251793.120000
   1533   1534     1   0.14619 275056.160000
   1551   1552     1   0.15110 237065.440000
   1551   1553     1   0.15110 237065.440000
   1551   1558     1   0.15110 237065.440000
   1552   1554     1   0.15375 251793.120000
   1553   1556     1   0.15375 251793.120000
   1554   1555     1   0.15241 261918.400000
   1555   2323     1   0.13789 357815.680000
   1555   1561     1   0.12183 533627.360000
   1556   1557     1   0.15241 261918.400000
   1557   1562     1   0.12183 533627.360000
   1557   2335     1   0.13789 357815.680000
   1558   1559     1   0.15375 251793.120000
   1559   1560     1   0.14619 275056.160000
   1577   1578     1   0.15110 237065.440000
   1577   1579     1   0.15110 237065.440000
   1577   1584     1   0.15110 237065.440000
   1578   1580     1   0.15375 251793.120000
   1579   1582     1   0.15375 251793.120000
   1580   1581     1   0.15241 261918.400000
   1581   2347     1   0.13789 357815.680000
   1581   1587     1   0.12183 533627.360000
   1582   1583     1   0.15241 261918.400000
   1583   2359     1   0.13789 357815.680000
   1583   1588     1   0.12183 533627.360000
   1584   1585     1   0.15375 251793.120000
   1585   1586     1   0.14619 275056.160000
   1603   1605     1   0.14619 275056.160000
   1605   1606     1   0.15375 251793.120000
   1606   1611     1   0.15110 237065.440000
   1615   1617     1   0.14619 275056.160000
   1617   1618     1   0.15375 251793.120000
   1618   1623     1   0.15110 237065.440000
   1627   1629     1   0.14619 275056.160000
   1629   1630     1   0.15375 251793.120000
   1630   1635     1   0.15110 237065.440000
   1639   1641     1   0.14619 275056.160000
   1641   1642     1   0.15375 251793.120000
   1642   1647     1   0.15110 237065.440000
   1651   1653     1   0.14619 275056.160000
   1653   1654     1   0.15375 251793.120000
   1654   1659     1   0.15110 237065.440000
   1663   1665     1   0.14619 275056.160000
   1665   1666     1   0.15375 251793.120000
   1666   1671     1   0.15110 237065.440000
   1675   1677     1   0.14619 275056.160000
   1677   1678     1   0.15375 251793.120000
   1678   1683     1   0.15110 237065.440000
   1687   1689     1   0.14619 275056.160000
   1689   1690     1   0.15375 251793.120000
   1690   1695     1   0.15110 237065.440000
   1699   1701     1   0.14619 275056.160000
   1701   1702     1   0.15375 251793.120000
   1702   1707     1   0.15110 237065.440000
   1711   1713     1   0.14619 275056.160000
   1713   1714     1   0.15375 251793.120000
   1714   1719     1   0.15110 237065.440000
   1723   1725     1   0.14619 275056.160000
   1725   1726     1   0.15375 251793.120000
   1726   1731     1   0.15110 237065.440000
   1735   1737     1   0.14619 275056.160000
   1737   1738     1   0.15375 251793.120000
   1738   1743     1   0.15110 237065.440000
   1747   1749     1   0.14619 275056.160000
   1749   1750     1   0.15375 251793.120000
   1750   1755     1   0.15110 237065.440000
   1759   1761     1   0.14619 275056.160000
   1761   1762     1   0.15375 251793.120000
   1762   1767     1   0.15110 237065.440000
   1771   1773     1   0.14619 275056.160000
   1773   1774     1   0.15375 251793.120000
   1774   1779     1   0.15110 237065.440000
   1783   1785     1   0.14619 275056.160000
   1785   1786     1   0.15375 251793.120000
   1786   1791     1   0.15110 237065.440000
   1795   1797     1   0.14619 275056.160000
   1797   1798     1   0.15375 251793.120000
   1798   1803     1   0.15110 237065.440000
   1807   1809     1   0.14619 275056.160000
   1809   1810     1   0.15375 251793.120000
   1810   1815     1   0.15110 237065.440000
   1819   1821     1   0.14619 275056.160000
   1821   1822     1   0.15375 251793.120000
   1822   1827     1   0.15110 237065.440000
   1831   1833     1   0.14619 275056.160000
   1833   1834     1   0.15375 251793.120000
   1834   1839     1   0.15110 237065.440000
   1843   1845     1   0.14619 275056.160000
   1845   1846     1   0.15375 251793.120000
   1846   1851     1   0.15110 237065.440000
   1855   1857     1   0.14619 275056.160000
   1857   1858     1   0.15375 251793.120000
   1858   1863     1   0.15110 237065.440000
   1867   1869     1   0.14619 275056.160000
   1869   1870     1   0.15375 251793.120000
   1870   1875     1   0.15110 237065.440000
   1879   1881     1   0.14619 275056.160000
   1881   1882     1   0.15375 251793.120000
   1882   1887     1   0.15110 237065.440000
   1891   1893     1   0.14619 275056.160000
   1893   1894     1   0.15375 251793.120000
   1894   1899     1   0.15110 237065.440000
   1903   1905     1   0.14619 275056.160000
   1905   1906     1   0.15375 251793.120000
   1906   1911     1   0.15110 237065.440000
   1915   1917     1   0.14619 275056.160000
   1917   1918     1   0.15375 251793.120000
   1918   1923     1   0.15110 237065.440000
   1927   1929     1   0.14619 275056.160000
   1929   1930     1   0.15375 251793.120000
   1930   1935     1   0.15110 237065.440000
   1939   1941     1   0.14619 275056.160000
   1941   1942     1   0.15375 251793.120000
   1942   1947     1   0.15110 237065.440000
   1951   1953     1   0.14619 275056.160000
   1953   1954     1   0.15375 251793.120000
   1954   1959     1   0.15110 237065.440000
   1963   1965     1   0.14619 275056.160000
   1965   1966     1   0.15375 251793.120000
   1966   1971     1   0.15110 237065.440000
   1975   1977     1   0.14619 275056.160000
   1977   1978     1   0.15375 251793.120000
   1978   1983     1   0.15110 237065.440000
   1987   1989     1   0.14619 275056.160000
   1989   1990     1   0.15375 251793.120000
   1990   1995     1   0.15110 237065.440000
   1999   2001     1   0.14619 275056.160000
   2001   2002     1   0.15375 251793.120000
   2002   2007     1   0.15110 237065.440000
   2011   2013     1   0.14619 275056.160000
   2013   2014     1   0.15375 251793.120000
   2014   2019     1   0.15110 237065.440000
   2023   2025     1   0.14619 275056.160000
   2025   2026     1   0.15375 251793.120000
   2026   2031     1   0.15110 237065.440000
   2035   2037     1   0.14619 275056.160000
   2037   2038     1   0.15375 251793.120000
   2038   2043     1   0.15110 237065.440000
   2047   2049     1   0.14619 275056.160000
   2049   2050     1   0.15375 251793.120000
   2050   2055     1   0.15110 237065.440000
   2059   2061     1   0.14619 275056.160000
   2061   2062     1   0.15375 251793.120000
   2062   2067     1   0.15110 237065.440000
   2071   2073     1   0.14619 275056.160000
   2073   2074     1   0.15375 251793.120000
   2074   2079     1   0.15110 237065.440000
   2083   2085     1   0.14619 275056.160000
   2085   2086     1   0.15375 251793.120000
   2086   2091     1   0.15110 237065.440000
   2095   2097     1   0.14619 275056.160000
   2097   2098     1   0.15375 251793.120000
   2098   2103     1   0.15110 237065.440000
   2107   2109     1   0.14619 275056.160000
   2109   2110     1   0.15375 251793.120000
   2110   2115     1   0.15110 237065.440000
   2119   2121     1   0.14619 275056.160000
   2121   2122     1   0.15375 251793.120000
   2122   2127     1   0.15110 237065.440000
   2131   2133     1   0.14619 275056.160000
   2133   2134     1   0.15375 251793.120000
   2134   2139     1   0.15110 237065.440000
   2143   2145     1   0.14619 275056.160000
   2145   2146     1   0.15375 251793.120000
   2146   2151     1   0.15110 237065.440000
   2155   2157     1   0.14619 275056.160000
   2157   2158     1   0.15375 251793.120000
   2158   2163     1   0.15110 237065.440000
   2167   2169     1   0.14619 275056.160000
   2169   2170     1   0.15375 251793.120000
   2170   2175     1   0.15110 237065.440000
   2179   2181     1   0.14619 275056.160000
   2181   2182     1   0.15375 251793.120000
   2182   2187     1   0.15110 237065.440000
   2191   2193     1   0.14619 275056.160000
   2193   2194     1   0.15375 251793.120000
   2194   2199     1   0.15110 237065.440000
   2203   2205     1   0.14619 275056.160000
   2205   2206     1   0.15375 251793.120000
   2206   2211     1   0.15110 237065.440000
   2215   2217     1   0.14619 275056.160000
   2217   2218     1   0.15375 251793.120000
   2218   2223     1   0.15110 237065.440000
   2227   2229     1   0.14619 275056.160000
   2229   2230     1   0.15375 251793.120000
   2230   2235     1   0.15110 237065.440000
   2239   2241     1   0.14619 275056.160000
   2241   2242     1   0.15375 251793.120000
   2242   2247     1   0.15110 237065.440000
   2251   2253     1   0.14619 275056.160000
   2253   2254     1   0.15375 251793.120000
   2254   2259     1   0.15110 237065.440000
   2263   2265     1   0.14619 275056.160000
   2265   2266     1   0.15375 251793.120000
   2266   2271     1   0.15110 237065.440000
   2275   2277     1   0.14619 275056.160000
   2277   2278     1   0.15375 251793.120000
   2278   2283     1   0.15110 237065.440000
   2287   2289     1   0.14619 275056.160000
   2289   2290     1   0.15375 251793.120000
   2290   2295     1   0.15110 237065.440000
   2299   2301     1   0.14619 275056.160000
   2301   2302     1   0.15375 251793.120000
   2302   2307     1   0.15110 237065.440000
   2311   2313     1   0.14619 275056.160000
   2313   2314     1   0.15375 251793.120000
   2314   2319     1   0.15110 237065.440000
   2323   2325     1   0.14619 275056.160000
   2325   2326     1   0.15375 251793.120000
   2326   2331     1   0.15110 237065.440000
   2335   2337     1   0.14619 275056.160000
   2337   2338     1   0.15375 251793.120000
   2338   2343     1   0.15110 237065.440000
   2347   2349     1   0.14619 275056.160000
   2349   2350     1   0.15375 251793.120000
   2350   2355     1   0.15110 237065.440000
   2359   2361     1   0.14619 275056.160000
   2361   2362     1   0.15375 251793.120000
   2362   2367     1   0.15110 237065.440000
      1     41     1   0.10304 312293.760000
      2     21     1   0.10910 283424.160000
      2     22     1   0.10910 283424.160000
      3     23     1   0.10910 283424.160000
      3     24     1   0.10910 283424.160000
      4     42     1   0.10304 312293.760000
      5     25     1   0.10910 283424.160000
      5     26     1   0.10910 283424.160000
      6     27     1   0.10910 283424.160000
      6     28     1   0.10910 283424.160000
      7     29     1   0.10910 283424.160000
      7     30     1   0.10910 283424.160000
      8     31     1   0.10910 283424.160000
      8     32     1   0.10910 283424.160000
      9     33     1   0.10969 276646.080000
      9     34     1   0.10969 276646.080000
     11     35     1   0.10969 276646.080000
     11     36     1   0.10969 276646.080000
     13     37     1   0.10969 276646.080000
     13     38     1   0.10969 276646.080000
     15     39     1   0.10969 276646.080000
     15     40     1   0.10969 276646.080000
     43     68     1   0.10304 312293.760000
     44     55     1   0.10910 283424.160000
     44     56     1   0.10910 283424.160000
     45     57     1   0.10910 283424.160000
     45     58     1   0.10910 283424.160000
     46     59     1   0.10969 276646.080000
     46     60     1   0.10969 276646.080000
     48     61     1   0.10969 276646.080000
     48     62     1   0.10969 276646.080000
     50     63     1   0.10910 283424.160000
     50     64     1   0.10910 283424.160000
     51     65     1   0.10969 276646.080000
     51     66     1   0.10969 276646.080000
     52     67     1   0.10129 337397.760000
     69     94     1   0.10304 312293.760000
     70     81     1   0.10910 283424.160000
     70     82     1   0.10910 283424.160000
     71     83     1   0.10910 283424.160000
     71     84     1   0.10910 283424.160000
     72     85     1   0.10969 276646.080000
     72     86     1   0.10969 276646.080000
     74     87     1   0.10969 276646.080000
     74     88     1   0.10969 276646.080000
     76     89     1   0.10910 283424.160000
     76     90     1   0.10910 283424.160000
     77     91     1   0.10969 276646.080000
     77     92     1   0.10969 276646.080000
     78     93     1   0.10129 337397.760000
     95    120     1   0.10304 312293.760000
     96    107     1   0.10910 283424.160000
     96    108     1   0.10910 283424.160000
     97    109     1   0.10910 283424.160000
     97    110     1   0.10910 283424.160000
     98    111     1   0.10969 276646.080000
     98    112     1   0.10969 276646.080000
    100    113     1   0.10969 276646.080000
    100    114     1   0.10969 276646.080000
    102    115     1   0.10910 283424.160000
    102    116     1   0.10910 283424.160000
    103    117     1   0.10969 276646.080000
    103    118     1   0.10969 276646.080000
    104    119     1   0.10129 337397.760000
    121    146     1   0.10304 312293.760000
    122    133     1   0.10910 283424.160000
    122    134     1   0.10910 283424.160000
    123    135     1   0.10910 283424.160000
    123    136     1   0.10910 283424.160000
    124    137     1   0.10969 276646.080000
    124    138     1   0.10969 276646.080000
    126    139     1   0.10969 276646.080000
    126    140     1   0.10969 276646.080000
    128    141     1   0.10910 283424.160000
    128    142     1   0.10910 283424.160000
    129    143     1   0.10969 276646.080000
    129    144     1   0.10969 276646.080000
    130    145     1   0.10129 337397.760000
    147    172     1   0.10304 312293.760000
    148    159     1   0.10910 283424.160000
    148    160     1   0.10910 283424.160000
    149    161     1   0.10910 283424.160000
    149    162     1   0.10910 283424.160000
    150    163     1   0.10969 276646.080000
    150    164     1   0.10969 276646.080000
    152    165     1   0.10969 276646.080000
    152    166     1   0.10969 276646.080000
    154    167     1   0.10910 283424.160000
    154    168     1   0.10910 283424.160000
    155    169     1   0.10969 276646.080000
    155    170     1   0.10969 276646.080000
    156    171     1   0.10129 337397.760000
    173    198     1   0.10304 312293.760000
    174    185     1   0.10910 283424.160000
    174    186     1   0.10910 283424.160000
    175    187     1   0.10910 283424.160000
    175    188     1   0.10910 283424.160000
    176    189     1   0.10969 276646.080000
    176    190     1   0.10969 276646.080000
    178    191     1   0.10969 276646.080000
    178    192     1   0.10969 276646.080000
    180    193     1   0.10910 283424.160000
    180    194     1   0.10910 283424.160000
    181    195     1   0.10969 276646.080000
    181    196     1   0.10969 276646.080000
    182    197     1   0.10129 337397.760000
    199    224     1   0.10304 312293.760000
    200    211     1   0.10910 283424.160000
    200    212     1   0.10910 283424.160000
    201    213     1   0.10910 283424.160000
    201    214     1   0.10910 283424.160000
    202    215     1   0.10969 276646.080000
    202    216     1   0.10969 276646.080000
    204    217     1   0.10969 276646.080000
    204    218     1   0.10969 276646.080000
    206    219     1   0.10910 283424.160000
    206    220     1   0.10910 283424.160000
    207    221     1   0.10969 276646.080000
    207    222     1   0.10969 276646.080000
    208    223     1   0.10129 337397.760000
    225    250     1   0.10304 312293.760000
    226    237     1   0.10910 283424.160000
    226    238     1   0.10910 283424.160000
    227    239     1   0.10910 283424.160000
    227    240     1   0.10910 283424.160000
    228    241     1   0.10969 276646.080000
    228    242     1   0.10969 276646.080000
    230    243     1   0.10969 276646.080000
    230    244     1   0.10969 276646.080000
    232    245     1   0.10910 283424.160000
    232    246     1   0.10910 283424.160000
    233    247     1   0.10969 276646.080000
    233    248     1   0.10969 276646.080000
    234    249     1   0.10129 337397.760000
    251    276     1   0.10304 312293.760000
    252    263     1   0.10910 283424.160000
    252    264     1   0.10910 283424.160000
    253    265     1   0.10910 283424.160000
    253    266     1   0.10910 283424.160000
    254    267     1   0.10969 276646.080000
    254    268     1   0.10969 276646.080000
    256    269     1   0.10969 276646.080000
    256    270     1   0.10969 276646.080000
    258    271     1   0.10910 283424.160000
    258    272     1   0.10910 283424.160000
    259    273     1   0.10969 276646.080000
    259    274     1   0.10969 276646.080000
    260    275     1   0.10129 337397.760000
    277    302     1   0.10304 312293.760000
    278    289     1   0.10910 283424.160000
    278    290     1   0.10910 283424.160000
    279    291     1   0.10910 283424.160000
    279    292     1   0.10910 283424.160000
    280    293     1   0.10969 276646.080000
    280    294     1   0.10969 276646.080000
    282    295     1   0.10969 276646.080000
    282    296     1   0.10969 276646.080000
    284    297     1   0.10910 283424.160000
    284    298     1   0.10910 283424.160000
    285    299     1   0.10969 276646.080000
    285    300     1   0.10969 276646.080000
    286    301     1   0.10129 337397.760000
    303    328     1   0.10304 312293.760000
    304    315     1   0.10910 283424.160000
    304    316     1   0.10910 283424.160000
    305    317     1   0.10910 283424.160000
    305    318     1   0.10910 283424.160000
    306    319     1   0.10969 276646.080000
    306    320     1   0.10969 276646.080000
    308    321     1   0.10969 276646.080000
    308    322     1   0.10969 276646.080000
    310    323     1   0.10910 283424.160000
    310    324     1   0.10910 283424.160000
    311    325     1   0.10969 276646.080000
    311    326     1   0.10969 276646.080000
    312    327     1   0.10129 337397.760000
    329    354     1   0.10304 312293.760000
    330    341     1   0.10910 283424.160000
    330    342     1   0.10910 283424.160000
    331    343     1   0.10910 283424.160000
    331    344     1   0.10910 283424.160000
    332    345     1   0.10969 276646.080000
    332    346     1   0.10969 276646.080000
    334    347     1   0.10969 276646.080000
    334    348     1   0.10969 276646.080000
    336    349     1   0.10910 283424.160000
    336    350     1   0.10910 283424.160000
    337    351     1   0.10969 276646.080000
    337    352     1   0.10969 276646.080000
    338    353     1   0.10129 337397.760000
    355    380     1   0.10304 312293.760000
    356    367     1   0.10910 283424.160000
    356    368     1   0.10910 283424.160000
    357    369     1   0.10910 283424.160000
    357    370     1   0.10910 283424.160000
    358    371     1   0.10969 276646.080000
    358    372     1   0.10969 276646.080000
    360    373     1   0.10969 276646.080000
    360    374     1   0.10969 276646.080000
    362    375     1   0.10910 283424.160000
    362    376     1   0.10910 283424.160000
    363    377     1   0.10969 276646.080000
    363    378     1   0.10969 276646.080000
    364    379     1   0.10129 337397.760000
    381    406     1   0.10304 312293.760000
    382    393     1   0.10910 283424.160000
    382    394     1   0.10910 283424.160000
    383    395     1   0.10910 283424.160000
    383    396     1   0.10910 283424.160000
    384    397     1   0.10969 276646.080000
    384    398     1   0.10969 276646.080000
    386    399     1   0.10969 276646.080000
    386    400     1   0.10969 276646.080000
    388    401     1   0.10910 283424.160000
    388    402     1   0.10910 283424.160000
    389    403     1   0.10969 276646.080000
    389    404     1   0.10969 276646.080000
    390    405     1   0.10129 337397.760000
    407    432     1   0.10304 312293.760000
    408    419     1   0.10910 283424.160000
    408    420     1   0.10910 283424.160000
    409    421     1   0.10910 283424.160000
    409    422     1   0.10910 283424.160000
    410    423     1   0.10969 276646.080000
    410    424     1   0.10969 276646.080000
    412    425     1   0.10969 276646.080000
    412    426     1   0.10969 276646.080000
    414    427     1   0.10910 283424.160000
    414    428     1   0.10910 283424.160000
    415    429     1   0.10969 276646.080000
    415    430     1   0.10969 276646.080000
    416    431     1   0.10129 337397.760000
    433    458     1   0.10304 312293.760000
    434    445     1   0.10910 283424.160000
    434    446     1   0.10910 283424.160000
    435    447     1   0.10910 283424.160000
    435    448     1   0.10910 283424.160000
    436    449     1   0.10969 276646.080000
    436    450     1   0.10969 276646.080000
    438    451     1   0.10969 276646.080000
    438    452     1   0.10969 276646.080000
    440    453     1   0.10910 283424.160000
    440    454     1   0.10910 283424.160000
    441    455     1   0.10969 276646.080000
    441    456     1   0.10969 276646.080000
    442    457     1   0.10129 337397.760000
    459    484     1   0.10304 312293.760000
    460    471     1   0.10910 283424.160000
    460    472     1   0.10910 283424.160000
    461    473     1   0.10910 283424.160000
    461    474     1   0.10910 283424.160000
    462    475     1   0.10969 276646.080000
    462    476     1   0.10969 276646.080000
    464    477     1   0.10969 276646.080000
    464    478     1   0.10969 276646.080000
    466    479     1   0.10910 283424.160000
    466    480     1   0.10910 283424.160000
    467    481     1   0.10969 276646.080000
    467    482     1   0.10969 276646.080000
    468    483     1   0.10129 337397.760000
    485    510     1   0.10304 312293.760000
    486    497     1   0.10910 283424.160000
    486    498     1   0.10910 283424.160000
    487    499     1   0.10910 283424.160000
    487    500     1   0.10910 283424.160000
    488    501     1   0.10969 276646.080000
    488    502     1   0.10969 276646.080000
    490    503     1   0.10969 276646.080000
    490    504     1   0.10969 276646.080000
    492    505     1   0.10910 283424.160000
    492    506     1   0.10910 283424.160000
    493    507     1   0.10969 276646.080000
    493    508     1   0.10969 276646.080000
    494    509     1   0.10129 337397.760000
    511    536     1   0.10304 312293.760000
    512    523     1   0.10910 283424.160000
    512    524     1   0.10910 283424.160000
    513    525     1   0.10910 283424.160000
    513    526     1   0.10910 283424.160000
    514    527     1   0.10969 276646.080000
    514    528     1   0.10969 276646.080000
    516    529     1   0.10969 276646.080000
    516    530     1   0.10969 276646.080000
    518    531     1   0.10910 283424.160000
    518    532     1   0.10910 283424.160000
    519    533     1   0.10969 276646.080000
    519    534     1   0.10969 276646.080000
    520    535     1   0.10129 337397.760000
    537    562     1   0.10304 312293.760000
    538    549     1   0.10910 283424.160000
    538    550     1   0.10910 283424.160000
    539    551     1   0.10910 283424.160000
    539    552     1   0.10910 283424.160000
    540    553     1   0.10969 276646.080000
    540    554     1   0.10969 276646.080000
    542    555     1   0.10969 276646.080000
    542    556     1   0.10969 276646.080000
    544    557     1   0.10910 283424.160000
    544    558     1   0.10910 283424.160000
    545    559     1   0.10969 276646.080000
    545    560     1   0.10969 276646.080000
    546    561     1   0.10129 337397.760000
    563    588     1   0.10304 312293.760000
    564    575     1   0.10910 283424.160000
    564    576     1   0.10910 283424.160000
    565    577     1   0.10910 283424.160000
    565    578     1   0.10910 283424.160000
    566    579     1   0.10969 276646.080000
    566    580     1   0.10969 276646.080000
    568    581     1   0.10969 276646.080000
    568    582     1   0.10969 276646.080000
    570    583     1   0.10910 283424.160000
    570    584     1   0.10910 283424.160000
    571    585     1   0.10969 276646.080000
    571    586     1   0.10969 276646.080000
    572    587     1   0.10129 337397.760000
    589    614     1   0.10304 312293.760000
    590    601     1   0.10910 283424.160000
    590    602     1   0.10910 283424.160000
    591    603     1   0.10910 283424.160000
    591    604     1   0.10910 283424.160000
    592    605     1   0.10969 276646.080000
    592    606     1   0.10969 276646.080000
    594    607     1   0.10969 276646.080000
    594    608     1   0.10969 276646.080000
    596    609     1   0.10910 283424.160000
    596    610     1   0.10910 283424.160000
    597    611     1   0.10969 276646.080000
    597    612     1   0.10969 276646.080000
    598    613     1   0.10129 337397.760000
    615    640     1   0.10304 312293.760000
    616    627     1   0.10910 283424.160000
    616    628     1   0.10910 283424.160000
    617    629     1   0.10910 283424.160000
    617    630     1   0.10910 283424.160000
    618    631     1   0.10969 276646.080000
    618    632     1   0.10969 276646.080000
    620    633     1   0.10969 276646.080000
    620    634     1   0.10969 276646.080000
    622    635     1   0.10910 283424.160000
    622    636     1   0.10910 283424.160000
    623    637     1   0.10969 276646.080000
    623    638     1   0.10969 276646.080000
    624    639     1   0.10129 337397.760000
    641    666     1   0.10304 312293.760000
    642    653     1   0.10910 283424.160000
    642    654     1   0.10910 283424.160000
    643    655     1   0.10910 283424.160000
    643    656     1   0.10910 283424.160000
    644    657     1   0.10969 276646.080000
    644    658     1   0.10969 276646.080000
    646    659     1   0.10969 276646.080000
    646    660     1   0.10969 276646.080000
    648    661     1   0.10910 283424.160000
    648    662     1   0.10910 283424.160000
    649    663     1   0.10969 276646.080000
    649    664     1   0.10969 276646.080000
    650    665     1   0.10129 337397.760000
    667    692     1   0.10304 312293.760000
    668    679     1   0.10910 283424.160000
    668    680     1   0.10910 283424.160000
    669    681     1   0.10910 283424.160000
    669    682     1   0.10910 283424.160000
    670    683     1   0.10969 276646.080000
    670    684     1   0.10969 276646.080000
    672    685     1   0.10969 276646.080000
    672    686     1   0.10969 276646.080000
    674    687     1   0.10910 283424.160000
    674    688     1   0.10910 283424.160000
    675    689     1   0.10969 276646.080000
    675    690     1   0.10969 276646.080000
    676    691     1   0.10129 337397.760000
    693    718     1   0.10304 312293.760000
    694    705     1   0.10910 283424.160000
    694    706     1   0.10910 283424.160000
    695    707     1   0.10910 283424.160000
    695    708     1   0.10910 283424.160000
    696    709     1   0.10969 276646.080000
    696    710     1   0.10969 276646.080000
    698    711     1   0.10969 276646.080000
    698    712     1   0.10969 276646.080000
    700    713     1   0.10910 283424.160000
    700    714     1   0.10910 283424.160000
    701    715     1   0.10969 276646.080000
    701    716     1   0.10969 276646.080000
    702    717     1   0.10129 337397.760000
    719    744     1   0.10304 312293.760000
    720    731     1   0.10910 283424.160000
    720    732     1   0.10910 283424.160000
    721    733     1   0.10910 283424.160000
    721    734     1   0.10910 283424.160000
    722    735     1   0.10969 276646.080000
    722    736     1   0.10969 276646.080000
    724    737     1   0.10969 276646.080000
    724    738     1   0.10969 276646.080000
    726    739     1   0.10910 283424.160000
    726    740     1   0.10910 283424.160000
    727    741     1   0.10969 276646.080000
    727    742     1   0.10969 276646.080000
    728    743     1   0.10129 337397.760000
    745    770     1   0.10304 312293.760000
    746    757     1   0.10910 283424.160000
    746    758     1   0.10910 283424.160000
    747    759     1   0.10910 283424.160000
    747    760     1   0.10910 283424.160000
    748    761     1   0.10969 276646.080000
    748    762     1   0.10969 276646.080000
    750    763     1   0.10969 276646.080000
    750    764     1   0.10969 276646.080000
    752    765     1   0.10910 283424.160000
    752    766     1   0.10910 283424.160000
    753    767     1   0.10969 276646.080000
    753    768     1   0.10969 276646.080000
    754    769     1   0.10129 337397.760000
    771    796     1   0.10304 312293.760000
    772    783     1   0.10910 283424.160000
    772    784     1   0.10910 283424.160000
    773    785     1   0.10910 283424.160000
    773    786     1   0.10910 283424.160000
    774    787     1   0.10969 276646.080000
    774    788     1   0.10969 276646.080000
    776    789     1   0.10969 276646.080000
    776    790     1   0.10969 276646.080000
    778    791     1   0.10910 283424.160000
    778    792     1   0.10910 283424.160000
    779    793     1   0.10969 276646.080000
    779    794     1   0.10969 276646.080000
    780    795     1   0.10129 337397.760000
    797    822     1   0.10304 312293.760000
    798    809     1   0.10910 283424.160000
    798    810     1   0.10910 283424.160000
    799    811     1   0.10910 283424.160000
    799    812     1   0.10910 283424.160000
    800    813     1   0.10969 276646.080000
    800    814     1   0.10969 276646.080000
    802    815     1   0.10969 276646.080000
    802    816     1   0.10969 276646.080000
    804    817     1   0.10910 283424.160000
    804    818     1   0.10910 283424.160000
    805    819     1   0.10969 276646.080000
    805    820     1   0.10969 276646.080000
    806    821     1   0.10129 337397.760000
    823    848     1   0.10304 312293.760000
    824    835     1   0.10910 283424.160000
    824    836     1   0.10910 283424.160000
    825    837     1   0.10910 283424.160000
    825    838     1   0.10910 283424.160000
    826    839     1   0.10969 276646.080000
    826    840     1   0.10969 276646.080000
    828    841     1   0.10969 276646.080000
    828    842     1   0.10969 276646.080000
    830    843     1   0.10910 283424.160000
    830    844     1   0.10910 283424.160000
    831    845     1   0.10969 276646.080000
    831    846     1   0.10969 276646.080000
    832    847     1   0.10129 337397.760000
    849    874     1   0.10304 312293.760000
    850    861     1   0.10910 283424.160000
    850    862     1   0.10910 283424.160000
    851    863     1   0.10910 283424.160000
    851    864     1   0.10910 283424.160000
    852    865     1   0.10969 276646.080000
    852    866     1   0.10969 276646.080000
    854    867     1   0.10969 276646.080000
    854    868     1   0.10969 276646.080000
    856    869     1   0.10910 283424.160000
    856    870     1   0.10910 283424.160000
    857    871     1   0.10969 276646.080000
    857    872     1   0.10969 276646.080000
    858    873     1   0.10129 337397.760000
    875    900     1   0.10304 312293.760000
    876    887     1   0.10910 283424.160000
    876    888     1   0.10910 283424.160000
    877    889     1   0.10910 283424.160000
    877    890     1   0.10910 283424.160000
    878    891     1   0.10969 276646.080000
    878    892     1   0.10969 276646.080000
    880    893     1   0.10969 276646.080000
    880    894     1   0.10969 276646.080000
    882    895     1   0.10910 283424.160000
    882    896     1   0.10910 283424.160000
    883    897     1   0.10969 276646.080000
    883    898     1   0.10969 276646.080000
    884    899     1   0.10129 337397.760000
    901    926     1   0.10304 312293.760000
    902    913     1   0.10910 283424.160000
    902    914     1   0.10910 283424.160000
    903    915     1   0.10910 283424.160000
    903    916     1   0.10910 283424.160000
    904    917     1   0.10969 276646.080000
    904    918     1   0.10969 276646.080000
    906    919     1   0.10969 276646.080000
    906    920     1   0.10969 276646.080000
    908    921     1   0.10910 283424.160000
    908    922     1   0.10910 283424.160000
    909    923     1   0.10969 276646.080000
    909    924     1   0.10969 276646.080000
    910    925     1   0.10129 337397.760000
    927    952     1   0.10304 312293.760000
    928    939     1   0.10910 283424.160000
    928    940     1   0.10910 283424.160000
    929    941     1   0.10910 283424.160000
    929    942     1   0.10910 283424.160000
    930    943     1   0.10969 276646.080000
    930    944     1   0.10969 276646.080000
    932    945     1   0.10969 276646.080000
    932    946     1   0.10969 276646.080000
    934    947     1   0.10910 283424.160000
    934    948     1   0.10910 283424.160000
    935    949     1   0.10969 276646.080000
    935    950     1   0.10969 276646.080000
    936    951     1   0.10129 337397.760000
    953    978     1   0.10304 312293.760000
    954    965     1   0.10910 283424.160000
    954    966     1   0.10910 283424.160000
    955    967     1   0.10910 283424.160000
    955    968     1   0.10910 283424.160000
    956    969     1   0.10969 276646.080000
    956    970     1   0.10969 276646.080000
    958    971     1   0.10969 276646.080000
    958    972     1   0.10969 276646.080000
    960    973     1   0.10910 283424.160000
    960    974     1   0.10910 283424.160000
    961    975     1   0.10969 276646.080000
    961    976     1   0.10969 276646.080000
    962    977     1   0.10129 337397.760000
    979   1004     1   0.10304 312293.760000
    980    991     1   0.10910 283424.160000
    980    992     1   0.10910 283424.160000
    981    993     1   0.10910 283424.160000
    981    994     1   0.10910 283424.160000
    982    995     1   0.10969 276646.080000
    982    996     1   0.10969 276646.080000
    984    997     1   0.10969 276646.080000
    984    998     1   0.10969 276646.080000
    986    999     1   0.10910 283424.160000
    986   1000     1   0.10910 283424.160000
    987   1001     1   0.10969 276646.080000
    987   1002     1   0.10969 276646.080000
    988   1003     1   0.10129 337397.760000
   1005   1030     1   0.10304 312293.760000
   1006   1017     1   0.10910 283424.160000
   1006   1018     1   0.10910 283424.160000
   1007   1019     1   0.10910 283424.160000
   1007   1020     1   0.10910 283424.160000
   1008   1021     1   0.10969 276646.080000
   1008   1022     1   0.10969 276646.080000
   1010   1023     1   0.10969 276646.080000
   1010   1024     1   0.10969 276646.080000
   1012   1025     1   0.10910 283424.160000
   1012   1026     1   0.10910 283424.160000
   1013   1027     1   0.10969 276646.080000
   1013   1028     1   0.10969 276646.080000
   1014   1029     1   0.10129 337397.760000
   1031   1056     1   0.10304 312293.760000
   1032   1043     1   0.10910 283424.160000
   1032   1044     1   0.10910 283424.160000
   1033   1045     1   0.10910 283424.160000
   1033   1046     1   0.10910 283424.160000
   1034   1047     1   0.10969 276646.080000
   1034   1048     1   0.10969 276646.080000
   1036   1049     1   0.10969 276646.080000
   1036   1050     1   0.10969 276646.080000
   1038   1051     1   0.10910 283424.160000
   1038   1052     1   0.10910 283424.160000
   1039   1053     1   0.10969 276646.080000
   1039   1054     1   0.10969 276646.080000
   1040   1055     1   0.10129 337397.760000
   1057   1082     1   0.10304 312293.760000
   1058   1069     1   0.10910 283424.160000
   1058   1070     1   0.10910 283424.160000
   1059   1071     1   0.10910 283424.160000
   1059   1072     1   0.10910 283424.160000
   1060   1073     1   0.10969 276646.080000
   1060   1074     1   0.10969 276646.080000
   1062   1075     1   0.10969 276646.080000
   1062   1076     1   0.10969 276646.080000
   1064   1077     1   0.10910 283424.160000
   1064   1078     1   0.10910 283424.160000
   1065   1079     1   0.10969 276646.080000
   1065   1080     1   0.10969 276646.080000
   1066   1081     1   0.10129 337397.760000
   1083   1108     1   0.10304 312293.760000
   1084   1095     1   0.10910 283424.160000
   1084   1096     1   0.10910 283424.160000
   1085   1097     1   0.10910 283424.160000
   1085   1098     1   0.10910 283424.160000
   1086   1099     1   0.10969 276646.080000
   1086   1100     1   0.10969 276646.080000
   1088   1101     1   0.10969 276646.080000
   1088   1102     1   0.10969 276646.080000
   1090   1103     1   0.10910 283424.160000
   1090   1104     1   0.10910 283424.160000
   1091   1105     1   0.10969 276646.080000
   1091   1106     1   0.10969 276646.080000
   1092   1107     1   0.10129 337397.760000
   1109   1134     1   0.10304 312293.760000
   1110   1121     1   0.10910 283424.160000
   1110   1122     1   0.10910 283424.160000
   1111   1123     1   0.10910 283424.160000
   1111   1124     1   0.10910 283424.160000
   1112   1125     1   0.10969 276646.080000
   1112   1126     1   0.10969 276646.080000
   1114   1127     1   0.10969 276646.080000
   1114   1128     1   0.10969 276646.080000
   1116   1129     1   0.10910 283424.160000
   1116   1130     1   0.10910 283424.160000
   1117   1131     1   0.10969 276646.080000
   1117   1132     1   0.10969 276646.080000
   1118   1133     1   0.10129 337397.760000
   1135   1160     1   0.10304 312293.760000
   1136   1147     1   0.10910 283424.160000
   1136   1148     1   0.10910 283424.160000
   1137   1149     1   0.10910 283424.160000
   1137   1150     1   0.10910 283424.160000
   1138   1151     1   0.10969 276646.080000
   1138   1152     1   0.10969 276646.080000
   1140   1153     1   0.10969 276646.080000
   1140   1154     1   0.10969 276646.080000
   1142   1155     1   0.10910 283424.160000
   1142   1156     1   0.10910 283424.160000
   1143   1157     1   0.10969 276646.080000
   1143   1158     1   0.10969 276646.080000
   1144   1159     1   0.10129 337397.760000
   1161   1186     1   0.10304 312293.760000
   1162   1173     1   0.10910 283424.160000
   1162   1174     1   0.10910 283424.160000
   1163   1175     1   0.10910 283424.160000
   1163   1176     1   0.10910 283424.160000
   1164   1177     1   0.10969 276646.080000
   1164   1178     1   0.10969 276646.080000
   1166   1179     1   0.10969 276646.080000
   1166   1180     1   0.10969 276646.080000
   1168   1181     1   0.10910 283424.160000
   1168   1182     1   0.10910 283424.160000
   1169   1183     1   0.10969 276646.080000
   1169   1184     1   0.10969 276646.080000
   1170   1185     1   0.10129 337397.760000
   1187   1212     1   0.10304 312293.760000
   1188   1199     1   0.10910 283424.160000
   1188   1200     1   0.10910 283424.160000
   1189   1201     1   0.10910 283424.160000
   1189   1202     1   0.10910 283424.160000
   1190   1203     1   0.10969 276646.080000
   1190   1204     1   0.10969 276646.080000
   1192   1205     1   0.10969 276646.080000
   1192   1206     1   0.10969 276646.080000
   1194   1207     1   0.10910 283424.160000
   1194   1208     1   0.10910 283424.160000
   1195   1209     1   0.10969 276646.080000
   1195   1210     1   0.10969 276646.080000
   1196   1211     1   0.10129 337397.760000
   1213   1238     1   0.10304 312293.760000
   1214   1225     1   0.10910 283424.160000
   1214   1226     1   0.10910 283424.160000
   1215   1227     1   0.10910 283424.160000
   1215   1228     1   0.10910 283424.160000
   1216   1229     1   0.10969 276646.080000
   1216   1230     1   0.10969 276646.080000
   1218   1231     1   0.10969 276646.080000
   1218   1232     1   0.10969 276646.080000
   1220   1233     1   0.10910 283424.160000
   1220   1234     1   0.10910 283424.160000
   1221   1235     1   0.10969 276646.080000
   1221   1236     1   0.10969 276646.080000
   1222   1237     1   0.10129 337397.760000
   1239   1264     1   0.10304 312293.760000
   1240   1251     1   0.10910 283424.160000
   1240   1252     1   0.10910 283424.160000
   1241   1253     1   0.10910 283424.160000
   1241   1254     1   0.10910 283424.160000
   1242   1255     1   0.10969 276646.080000
   1242   1256     1   0.10969 276646.080000
   1244   1257     1   0.10969 276646.080000
   1244   1258     1   0.10969 276646.080000
   1246   1259     1   0.10910 283424.160000
   1246   1260     1   0.10910 283424.160000
   1247   1261     1   0.10969 276646.080000
   1247   1262     1   0.10969 276646.080000
   1248   1263     1   0.10129 337397.760000
   1265   1290     1   0.10304 312293.760000
   1266   1277     1   0.10910 283424.160000
   1266   1278     1   0.10910 283424.160000
   1267   1279     1   0.10910 283424.160000
   1267   1280     1   0.10910 283424.160000
   1268   1281     1   0.10969 276646.080000
   1268   1282     1   0.10969 276646.080000
   1270   1283     1   0.10969 276646.080000
   1270   1284     1   0.10969 276646.080000
   1272   1285     1   0.10910 283424.160000
   1272   1286     1   0.10910 283424.160000
   1273   1287     1   0.10969 276646.080000
   1273   1288     1   0.10969 276646.080000
   1274   1289     1   0.10129 337397.760000
   1291   1316     1   0.10304 312293.760000
   1292   1303     1   0.10910 283424.160000
   1292   1304     1   0.10910 283424.160000
   1293   1305     1   0.10910 283424.160000
   1293   1306     1   0.10910 283424.160000
   1294   1307     1   0.10969 276646.080000
   1294   1308     1   0.10969 276646.080000
   1296   1309     1   0.10969 276646.080000
   1296   1310     1   0.10969 276646.080000
   1298   1311     1   0.10910 283424.160000
   1298   1312     1   0.10910 283424.160000
   1299   1313     1   0.10969 276646.080000
   1299   1314     1   0.10969 276646.080000
   1300   1315     1   0.10129 337397.760000
   1317   1342     1   0.10304 312293.760000
   1318   1329     1   0.10910 283424.160000
   1318   1330     1   0.10910 283424.160000
   1319   1331     1   0.10910 283424.160000
   1319   1332     1   0.10910 283424.160000
   1320   1333     1   0.10969 276646.080000
   1320   1334     1   0.10969 276646.080000
   1322   1335     1   0.10969 276646.080000
   1322   1336     1   0.10969 276646.080000
   1324   1337     1   0.10910 283424.160000
   1324   1338     1   0.10910 283424.160000
   1325   1339     1   0.10969 276646.080000
   1325   1340     1   0.10969 276646.080000
   1326   1341     1   0.10129 337397.760000
   1343   1368     1   0.10304 312293.760000
   1344   1355     1   0.10910 283424.160000
   1344   1356     1   0.10910 283424.160000
   1345   1357     1   0.10910 283424.160000
   1345   1358     1   0.10910 283424.160000
   1346   1359     1   0.10969 276646.080000
   1346   1360     1   0.10969 276646.080000
   1348   1361     1   0.10969 276646.080000
   1348   1362     1   0.10969 276646.080000
   1350   1363     1   0.10910 283424.160000
   1350   1364     1   0.10910 283424.160000
   1351   1365     1   0.10969 276646.080000
   1351   1366     1   0.10969 276646.080000
   1352   1367     1   0.10129 337397.760000
   1369   1394     1   0.10304 312293.760000
   1370   1381     1   0.10910 283424.160000
   1370   1382     1   0.10910 283424.160000
   1371   1383     1   0.10910 283424.160000
   1371   1384     1   0.10910 283424.160000
   1372   1385     1   0.10969 276646.080000
   1372   1386     1   0.10969 276646.080000
   1374   1387     1   0.10969 276646.080000
   1374   1388     1   0.10969 276646.080000
   1376   1389     1   0.10910 283424.160000
   1376   1390     1   0.10910 283424.160000
   1377   1391     1   0.10969 276646.080000
   1377   1392     1   0.10969 276646.080000
   1378   1393     1   0.10129 337397.760000
   1395   1420     1   0.10304 312293.760000
   1396   1407     1   0.10910 283424.160000
   1396   1408     1   0.10910 283424.160000
   1397   1409     1   0.10910 283424.160000
   1397   1410     1   0.10910 283424.160000
   1398   1411     1   0.10969 276646.080000
   1398   1412     1   0.10969 276646.080000
   1400   1413     1   0.10969 276646.080000
   1400   1414     1   0.10969 276646.080000
   1402   1415     1   0.10910 283424.160000
   1402   1416     1   0.10910 283424.160000
   1403   1417     1   0.10969 276646.080000
   1403   1418     1   0.10969 276646.080000
   1404   1419     1   0.10129 337397.760000
   1421   1446     1   0.10304 312293.760000
   1422   1433     1   0.10910 283424.160000
   1422   1434     1   0.10910 283424.160000
   1423   1435     1   0.10910 283424.160000
   1423   1436     1   0.10910 283424.160000
   1424   1437     1   0.10969 276646.080000
   1424   1438     1   0.10969 276646.080000
   1426   1439     1   0.10969 276646.080000
   1426   1440     1   0.10969 276646.080000
   1428   1441     1   0.10910 283424.160000
   1428   1442     1   0.10910 283424.160000
   1429   1443     1   0.10969 276646.080000
   1429   1444     1   0.10969 276646.080000
   1430   1445     1   0.10129 337397.760000
   1447   1472     1   0.10304 312293.760000
   1448   1459     1   0.10910 283424.160000
   1448   1460     1   0.10910 283424.160000
   1449   1461     1   0.10910 283424.160000
   1449   1462     1   0.10910 283424.160000
   1450   1463     1   0.10969 276646.080000
   1450   1464     1   0.10969 276646.080000
   1452   1465     1   0.10969 276646.080000
   1452   1466     1   0.10969 276646.080000
   1454   1467     1   0.10910 283424.160000
   1454   1468     1   0.10910 283424.160000
   1455   1469     1   0.10969 276646.080000
   1455   1470     1   0.10969 276646.080000
   1456   1471     1   0.10129 337397.760000
   1473   1498     1   0.10304 312293.760000
   1474   1485     1   0.10910 283424.160000
   1474   1486     1   0.10910 283424.160000
   1475   1487     1   0.10910 283424.160000
   1475   1488     1   0.10910 283424.160000
   1476   1489     1   0.10969 276646.080000
   1476   1490     1   0.10969 276646.080000
   1478   1491     1   0.10969 276646.080000
   1478   1492     1   0.10969 276646.080000
   1480   1493     1   0.10910 283424.160000
   1480   1494     1   0.10910 283424.160000
   1481   1495     1   0.10969 276646.080000
   1481   1496     1   0.10969 276646.080000
   1482   1497     1   0.10129 337397.760000
   1499   1524     1   0.10304 312293.760000
   1500   1511     1   0.10910 283424.160000
   1500   1512     1   0.10910 283424.160000
   1501   1513     1   0.10910 283424.160000
   1501   1514     1   0.10910 283424.160000
   1502   1515     1   0.10969 276646.080000
   1502   1516     1   0.10969 276646.080000
   1504   1517     1   0.10969 276646.080000
   1504   1518     1   0.10969 276646.080000
   1506   1519     1   0.10910 283424.160000
   1506   1520     1   0.10910 283424.160000
   1507   1521     1   0.10969 276646.080000
   1507   1522     1   0.10969 276646.080000
   1508   1523     1   0.10129 337397.760000
   1525   1550     1   0.10304 312293.760000
   1526   1537     1   0.10910 283424.160000
   1526   1538     1   0.10910 283424.160000
   1527   1539     1   0.10910 283424.160000
   1527   1540     1   0.10910 283424.160000
   1528   1541     1   0.10969 276646.080000
   1528   1542     1   0.10969 276646.080000
   1530   1543     1   0.10969 276646.080000
   1530   1544     1   0.10969 276646.080000
   1532   1545     1   0.10910 283424.160000
   1532   1546     1   0.10910 283424.160000
   1533   1547     1   0.10969 276646.080000
   1533   1548     1   0.10969 276646.080000
   1534   1549     1   0.10129 337397.760000
   1551   1576     1   0.10304 312293.760000
   1552   1563     1   0.10910 283424.160000
   1552   1564     1   0.10910 283424.160000
   1553   1565     1   0.10910 283424.160000
   1553   1566     1   0.10910 283424.160000
   1554   1567     1   0.10969 276646.080000
   1554   1568     1   0.10969 276646.080000
   1556   1569     1   0.10969 276646.080000
   1556   1570     1   0.10969 276646.080000
   1558   1571     1   0.10910 283424.160000
   1558   1572     1   0.10910 283424.160000
   1559   1573     1   0.10969 276646.080000
   1559   1574     1   0.10969 276646.080000
   1560   1575     1   0.10129 337397.760000
   1577   1602     1   0.10304 312293.760000
   1578   1589     1   0.10910 283424.160000
   1578   1590     1   0.10910 283424.160000
   1579   1591     1   0.10910 283424.160000
   1579   1592     1   0.10910 283424.160000
   1580   1593     1   0.10969 276646.080000
   1580   1594     1   0.10969 276646.080000
   1582   1595     1   0.10969 276646.080000
   1582   1596     1   0.10969 276646.080000
   1584   1597     1   0.10910 283424.160000
   1584   1598     1   0.10910 283424.160000
   1585   1599     1   0.10969 276646.080000
   1585   1600     1   0.10969 276646.080000
   1586   1601     1   0.10129 337397.760000
   1603   1604     1   0.10129 337397.760000
   1605   1607     1   0.10969 276646.080000
   1605   1608     1   0.10969 276646.080000
   1606   1609     1   0.10910 283424.160000
   1606   1610     1   0.10910 283424.160000
   1611   1612     1   0.10304 312293.760000
   1611   1613     1   0.10304 312293.760000
   1611   1614     1   0.10304 312293.760000
   1615   1616     1   0.10129 337397.760000
   1617   1619     1   0.10969 276646.080000
   1617   1620     1   0.10969 276646.080000
   1618   1621     1   0.10910 283424.160000
   1618   1622     1   0.10910 283424.160000
   1623   1624     1   0.10304 312293.760000
   1623   1625     1   0.10304 312293.760000
   1623   1626     1   0.10304 312293.760000
   1627   1628     1   0.10129 337397.760000
   1629   1631     1   0.10969 276646.080000
   1629   1632     1   0.10969 276646.080000
   1630   1633     1   0.10910 283424.160000
   1630   1634     1   0.10910 283424.160000
   1635   1636     1   0.10304 312293.760000
   1635   1637     1   0.10304 312293.760000
   1635   1638     1   0.10304 312293.760000
   1639   1640     1   0.10129 337397.760000
   1641   1643     1   0.10969 276646.080000
   1641   1644     1   0.10969 276646.080000
   1642   1645     1   0.10910 283424.160000
   1642   1646     1   0.10910 283424.160000
   1647   1648     1   0.10304 312293.760000
   1647   1649     1   0.10304 312293.760000
   1647   1650     1   0.10304 312293.760000
   1651   1652     1   0.10129 337397.760000
   1653   1655     1   0.10969 276646.080000
   1653   1656     1   0.10969 276646.080000
   1654   1657     1   0.10910 283424.160000
   1654   1658     1   0.10910 283424.160000
   1659   1660     1   0.10304 312293.760000
   1659   1661     1   0.10304 312293.760000
   1659   1662     1   0.10304 312293.760000
   1663   1664     1   0.10129 337397.760000
   1665   1667     1   0.10969 276646.080000
   1665   1668     1   0.10969 276646.080000
   1666   1669     1   0.10910 283424.160000
   1666   1670     1   0.10910 283424.160000
   1671   1672     1   0.10304 312293.760000
   1671   1673     1   0.10304 312293.760000
   1671   1674     1   0.10304 312293.760000
   1675   1676     1   0.10129 337397.760000
   1677   1679     1   0.10969 276646.080000
   1677   1680     1   0.10969 276646.080000
   1678   1681     1   0.10910 283424.160000
   1678   1682     1   0.10910 283424.160000
   1683   1684     1   0.10304 312293.760000
   1683   1685     1   0.10304 312293.760000
   1683   1686     1   0.10304 312293.760000
   1687   1688     1   0.10129 337397.760000
   1689   1691     1   0.10969 276646.080000
   1689   1692     1   0.10969 276646.080000
   1690   1693     1   0.10910 283424.160000
   1690   1694     1   0.10910 283424.160000
   1695   1696     1   0.10304 312293.760000
   1695   1697     1   0.10304 312293.760000
   1695   1698     1   0.10304 312293.760000
   1699   1700     1   0.10129 337397.760000
   1701   1703     1   0.10969 276646.080000
   1701   1704     1   0.10969 276646.080000
   1702   1705     1   0.10910 283424.160000
   1702   1706     1   0.10910 283424.160000
   1707   1708     1   0.10304 312293.760000
   1707   1709     1   0.10304 312293.760000
   1707   1710     1   0.10304 312293.760000
   1711   1712     1   0.10129 337397.760000
   1713   1715     1   0.10969 276646.080000
   1713   1716     1   0.10969 276646.080000
   1714   1717     1   0.10910 283424.160000
   1714   1718     1   0.10910 283424.160000
   1719   1720     1   0.10304 312293.760000
   1719   1721     1   0.10304 312293.760000
   1719   1722     1   0.10304 312293.760000
   1723   1724     1   0.10129 337397.760000
   1725   1727     1   0.10969 276646.080000
   1725   1728     1   0.10969 276646.080000
   1726   1729     1   0.10910 283424.160000
   1726   1730     1   0.10910 283424.160000
   1731   1732     1   0.10304 312293.760000
   1731   1733     1   0.10304 312293.760000
   1731   1734     1   0.10304 312293.760000
   1735   1736     1   0.10129 337397.760000
   1737   1739     1   0.10969 276646.080000
   1737   1740     1   0.10969 276646.080000
   1738   1741     1   0.10910 283424.160000
   1738   1742     1   0.10910 283424.160000
   1743   1744     1   0.10304 312293.760000
   1743   1745     1   0.10304 312293.760000
   1743   1746     1   0.10304 312293.760000
   1747   1748     1   0.10129 337397.760000
   1749   1751     1   0.10969 276646.080000
   1749   1752     1   0.10969 276646.080000
   1750   1753     1   0.10910 283424.160000
   1750   1754     1   0.10910 283424.160000
   1755   1756     1   0.10304 312293.760000
   1755   1757     1   0.10304 312293.760000
   1755   1758     1   0.10304 312293.760000
   1759   1760     1   0.10129 337397.760000
   1761   1763     1   0.10969 276646.080000
   1761   1764     1   0.10969 276646.080000
   1762   1765     1   0.10910 283424.160000
   1762   1766     1   0.10910 283424.160000
   1767   1768     1   0.10304 312293.760000
   1767   1769     1   0.10304 312293.760000
   1767   1770     1   0.10304 312293.760000
   1771   1772     1   0.10129 337397.760000
   1773   1775     1   0.10969 276646.080000
   1773   1776     1   0.10969 276646.080000
   1774   1777     1   0.10910 283424.160000
   1774   1778     1   0.10910 283424.160000
   1779   1780     1   0.10304 312293.760000
   1779   1781     1   0.10304 312293.760000
   1779   1782     1   0.10304 312293.760000
   1783   1784     1   0.10129 337397.760000
   1785   1787     1   0.10969 276646.080000
   1785   1788     1   0.10969 276646.080000
   1786   1789     1   0.10910 283424.160000
   1786   1790     1   0.10910 283424.160000
   1791   1792     1   0.10304 312293.760000
   1791   1793     1   0.10304 312293.760000
   1791   1794     1   0.10304 312293.760000
   1795   1796     1   0.10129 337397.760000
   1797   1799     1   0.10969 276646.080000
   1797   1800     1   0.10969 276646.080000
   1798   1801     1   0.10910 283424.160000
   1798   1802     1   0.10910 283424.160000
   1803   1804     1   0.10304 312293.760000
   1803   1805     1   0.10304 312293.760000
   1803   1806     1   0.10304 312293.760000
   1807   1808     1   0.10129 337397.760000
   1809   1811     1   0.10969 276646.080000
   1809   1812     1   0.10969 276646.080000
   1810   1813     1   0.10910 283424.160000
   1810   1814     1   0.10910 283424.160000
   1815   1816     1   0.10304 312293.760000
   1815   1817     1   0.10304 312293.760000
   1815   1818     1   0.10304 312293.760000
   1819   1820     1   0.10129 337397.760000
   1821   1823     1   0.10969 276646.080000
   1821   1824     1   0.10969 276646.080000
   1822   1825     1   0.10910 283424.160000
   1822   1826     1   0.10910 283424.160000
   1827   1828     1   0.10304 312293.760000
   1827   1829     1   0.10304 312293.760000
   1827   1830     1   0.10304 312293.760000
   1831   1832     1   0.10129 337397.760000
   1833   1835     1   0.10969 276646.080000
   1833   1836     1   0.10969 276646.080000
   1834   1837     1   0.10910 283424.160000
   1834   1838     1   0.10910 283424.160000
   1839   1840     1   0.10304 312293.760000
   1839   1841     1   0.10304 312293.760000
   1839   1842     1   0.10304 312293.760000
   1843   1844     1   0.10129 337397.760000
   1845   1847     1   0.10969 276646.080000
   1845   1848     1   0.10969 276646.080000
   1846   1849     1   0.10910 283424.160000
   1846   1850     1   0.10910 283424.160000
   1851   1852     1   0.10304 312293.760000
   1851   1853     1   0.10304 312293.760000
   1851   1854     1   0.10304 312293.760000
   1855   1856     1   0.10129 337397.760000
   1857   1859     1   0.10969 276646.080000
   1857   1860     1   0.10969 276646.080000
   1858   1861     1   0.10910 283424.160000
   1858   1862     1   0.10910 283424.160000
   1863   1864     1   0.10304 312293.760000
   1863   1865     1   0.10304 312293.760000
   1863   1866     1   0.10304 312293.760000
   1867   1868     1   0.10129 337397.760000
   1869   1871     1   0.10969 276646.080000
   1869   1872     1   0.10969 276646.080000
   1870   1873     1   0.10910 283424.160000
   1870   1874     1   0.10910 283424.160000
   1875   1876     1   0.10304 312293.760000
   1875   1877     1   0.10304 312293.760000
   1875   1878     1   0.10304 312293.760000
   1879   1880     1   0.10129 337397.760000
   1881   1883     1   0.10969 276646.080000
   1881   1884     1   0.10969 276646.080000
   1882   1885     1   0.10910 283424.160000
   1882   1886     1   0.10910 283424.160000
   1887   1888     1   0.10304 312293.760000
   1887   1889     1   0.10304 312293.760000
   1887   1890     1   0.10304 312293.760000
   1891   1892     1   0.10129 337397.760000
   1893   1895     1   0.10969 276646.080000
   1893   1896     1   0.10969 276646.080000
   1894   1897     1   0.10910 283424.160000
   1894   1898     1   0.10910 283424.160000
   1899   1900     1   0.10304 312293.760000
   1899   1901     1   0.10304 312293.760000
   1899   1902     1   0.10304 312293.760000
   1903   1904     1   0.10129 337397.760000
   1905   1907     1   0.10969 276646.080000
   1905   1908     1   0.10969 276646.080000
   1906   1909     1   0.10910 283424.160000
   1906   1910     1   0.10910 283424.160000
   1911   1912     1   0.10304 312293.760000
   1911   1913     1   0.10304 312293.760000
   1911   1914     1   0.10304 312293.760000
   1915   1916     1   0.10129 337397.760000
   1917   1919     1   0.10969 276646.080000
   1917   1920     1   0.10969 276646.080000
   1918   1921     1   0.10910 283424.160000
   1918   1922     1   0.10910 283424.160000
   1923   1924     1   0.10304 312293.760000
   1923   1925     1   0.10304 312293.760000
   1923   1926     1   0.10304 312293.760000
   1927   1928     1   0.10129 337397.760000
   1929   1931     1   0.10969 276646.080000
   1929   1932     1   0.10969 276646.080000
   1930   1933     1   0.10910 283424.160000
   1930   1934     1   0.10910 283424.160000
   1935   1936     1   0.10304 312293.760000
   1935   1937     1   0.10304 312293.760000
   1935   1938     1   0.10304 312293.760000
   1939   1940     1   0.10129 337397.760000
   1941   1943     1   0.10969 276646.080000
   1941   1944     1   0.10969 276646.080000
   1942   1945     1   0.10910 283424.160000
   1942   1946     1   0.10910 283424.160000
   1947   1948     1   0.10304 312293.760000
   1947   1949     1   0.10304 312293.760000
   1947   1950     1   0.10304 312293.760000
   1951   1952     1   0.10129 337397.760000
   1953   1955     1   0.10969 276646.080000
   1953   1956     1   0.10969 276646.080000
   1954   1957     1   0.10910 283424.160000
   1954   1958     1   0.10910 283424.160000
   1959   1960     1   0.10304 312293.760000
   1959   1961     1   0.10304 312293.760000
   1959   1962     1   0.10304 312293.760000
   1963   1964     1   0.10129 337397.760000
   1965   1967     1   0.10969 276646.080000
   1965   1968     1   0.10969 276646.080000
   1966   1969     1   0.10910 283424.160000
   1966   1970     1   0.10910 283424.160000
   1971   1972     1   0.10304 312293.760000
   1971   1973     1   0.10304 312293.760000
   1971   1974     1   0.10304 312293.760000
   1975   1976     1   0.10129 337397.760000
   1977   1979     1   0.10969 276646.080000
   1977   1980     1   0.10969 276646.080000
   1978   1981     1   0.10910 283424.160000
   1978   1982     1   0.10910 283424.160000
   1983   1984     1   0.10304 312293.760000
   1983   1985     1   0.10304 312293.760000
   1983   1986     1   0.10304 312293.760000
   1987   1988     1   0.10129 337397.760000
   1989   1991     1   0.10969 276646.080000
   1989   1992     1   0.10969 276646.080000
   1990   1993     1   0.10910 283424.160000
   1990   1994     1   0.10910 283424.160000
   1995   1996     1   0.10304 312293.760000
   1995   1997     1   0.10304 312293.760000
   1995   1998     1   0.10304 312293.760000
   1999   2000     1   0.10129 337397.760000
   2001   2003     1   0.10969 276646.080000
   2001   2004     1   0.10969 276646.080000
   2002   2005     1   0.10910 283424.160000
   2002   2006     1   0.10910 283424.160000
   2007   2008     1   0.10304 312293.760000
   2007   2009     1   0.10304 312293.760000
   2007   2010     1   0.10304 312293.760000
   2011   2012     1   0.10129 337397.760000
   2013   2015     1   0.10969 276646.080000
   2013   2016     1   0.10969 276646.080000
   2014   2017     1   0.10910 283424.160000
   2014   2018     1   0.10910 283424.160000
   2019   2020     1   0.10304 312293.760000
   2019   2021     1   0.10304 312293.760000
   2019   2022     1   0.10304 312293.760000
   2023   2024     1   0.10129 337397.760000
   2025   2027     1   0.10969 276646.080000
   2025   2028     1   0.10969 276646.080000
   2026   2029     1   0.10910 283424.160000
   2026   2030     1   0.10910 283424.160000
   2031   2032     1   0.10304 312293.760000
   2031   2033     1   0.10304 312293.760000
   2031   2034     1   0.10304 312293.760000
   2035   2036     1   0.10129 337397.760000
   2037   2039     1   0.10969 276646.080000
   2037   2040     1   0.10969 276646.080000
   2038   2041     1   0.10910 283424.160000
   2038   2042     1   0.10910 283424.160000
   2043   2044     1   0.10304 312293.760000
   2043   2045     1   0.10304 312293.760000
   2043   2046     1   0.10304 312293.760000
   2047   2048     1   0.10129 337397.760000
   2049   2051     1   0.10969 276646.080000
   2049   2052     1   0.10969 276646.080000
   2050   2053     1   0.10910 283424.160000
   2050   2054     1   0.10910 283424.160000
   2055   2056     1   0.10304 312293.760000
   2055   2057     1   0.10304 312293.760000
   2055   2058     1   0.10304 312293.760000
   2059   2060     1   0.10129 337397.760000
   2061   2063     1   0.10969 276646.080000
   2061   2064     1   0.10969 276646.080000
   2062   2065     1   0.10910 283424.160000
   2062   2066     1   0.10910 283424.160000
   2067   2068     1   0.10304 312293.760000
   2067   2069     1   0.10304 312293.760000
   2067   2070     1   0.10304 312293.760000
   2071   2072     1   0.10129 337397.760000
   2073   2075     1   0.10969 276646.080000
   2073   2076     1   0.10969 276646.080000
   2074   2077     1   0.10910 283424.160000
   2074   2078     1   0.10910 283424.160000
   2079   2080     1   0.10304 312293.760000
   2079   2081     1   0.10304 312293.760000
   2079   2082     1   0.10304 312293.760000
   2083   2084     1   0.10129 337397.760000
   2085   2087     1   0.10969 276646.080000
   2085   2088     1   0.10969 276646.080000
   2086   2089     1   0.10910 283424.160000
   2086   2090     1   0.10910 283424.160000
   2091   2092     1   0.10304 312293.760000
   2091   2093     1   0.10304 312293.760000
   2091   2094     1   0.10304 312293.760000
   2095   2096     1   0.10129 337397.760000
   2097   2099     1   0.10969 276646.080000
   2097   2100     1   0.10969 276646.080000
   2098   2101     1   0.10910 283424.160000
   2098   2102     1   0.10910 283424.160000
   2103   2104     1   0.10304 312293.760000
   2103   2105     1   0.10304 312293.760000
   2103   2106     1   0.10304 312293.760000
   2107   2108     1   0.10129 337397.760000
   2109   2111     1   0.10969 276646.080000
   2109   2112     1   0.10969 276646.080000
   2110   2113     1   0.10910 283424.160000
   2110   2114     1   0.10910 283424.160000
   2115   2116     1   0.10304 312293.760000
   2115   2117     1   0.10304 312293.760000
   2115   2118     1   0.10304 312293.760000
   2119   2120     1   0.10129 337397.760000
   2121   2123     1   0.10969 276646.080000
   2121   2124     1   0.10969 276646.080000
   2122   2125     1   0.10910 283424.160000
   2122   2126     1   0.10910 283424.160000
   2127   2128     1   0.10304 312293.760000
   2127   2129     1   0.10304 312293.760000
   2127   2130     1   0.10304 312293.760000
   2131   2132     1   0.10129 337397.760000
   2133   2135     1   0.10969 276646.080000
   2133   2136     1   0.10969 276646.080000
   2134   2137     1   0.10910 283424.160000
   2134   2138     1   0.10910 283424.160000
   2139   2140     1   0.10304 312293.760000
   2139   2141     1   0.10304 312293.760000
   2139   2142     1   0.10304 312293.760000
   2143   2144     1   0.10129 337397.760000
   2145   2147     1   0.10969 276646.080000
   2145   2148     1   0.10969 276646.080000
   2146   2149     1   0.10910 283424.160000
   2146   2150     1   0.10910 283424.160000
   2151   2152     1   0.10304 312293.760000
   2151   2153     1   0.10304 312293.760000
   2151   2154     1   0.10304 312293.760000
   2155   2156     1   0.10129 337397.760000
   2157   2159     1   0.10969 276646.080000
   2157   2160     1   0.10969 276646.080000
   2158   2161     1   0.10910 283424.160000
   2158   2162     1   0.10910 283424.160000
   2163   2164     1   0.10304 312293.760000
   2163   2165     1   0.10304 312293.760000
   2163   2166     1   0.10304 312293.760000
   2167   2168     1   0.10129 337397.760000
   2169   2171     1   0.10969 276646.080000
   2169   2172     1   0.10969 276646.080000
   2170   2173     1   0.10910 283424.160000
   2170   2174     1   0.10910 283424.160000
   2175   2176     1   0.10304 312293.760000
   2175   2177     1   0.10304 312293.760000
   2175   2178     1   0.10304 312293.760000
   2179   2180     1   0.10129 337397.760000
   2181   2183     1   0.10969 276646.080000
   2181   2184     1   0.10969 276646.080000
   2182   2185     1   0.10910 283424.160000
   2182   2186     1   0.10910 283424.160000
   2187   2188     1   0.10304 312293.760000
   2187   2189     1   0.10304 312293.760000
   2187   2190     1   0.10304 312293.760000
   2191   2192     1   0.10129 337397.760000
   2193   2195     1   0.10969 276646.080000
   2193   2196     1   0.10969 276646.080000
   2194   2197     1   0.10910 283424.160000
   2194   2198     1   0.10910 283424.160000
   2199   2200     1   0.10304 312293.760000
   2199   2201     1   0.10304 312293.760000
   2199   2202     1   0.10304 312293.760000
   2203   2204     1   0.10129 337397.760000
   2205   2207     1   0.10969 276646.080000
   2205   2208     1   0.10969 276646.080000
   2206   2209     1   0.10910 283424.160000
   2206   2210     1   0.10910 283424.160000
   2211   2212     1   0.10304 312293.760000
   2211   2213     1   0.10304 312293.760000
   2211   2214     1   0.10304 312293.760000
   2215   2216     1   0.10129 337397.760000
   2217   2219     1   0.10969 276646.080000
   2217   2220     1   0.10969 276646.080000
   2218   2221     1   0.10910 283424.160000
   2218   2222     1   0.10910 283424.160000
   2223   2224     1   0.10304 312293.760000
   2223   2225     1   0.10304 312293.760000
   2223   2226     1   0.10304 312293.760000
   2227   2228     1   0.10129 337397.760000
   2229   2231     1   0.10969 276646.080000
   2229   2232     1   0.10969 276646.080000
   2230   2233     1   0.10910 283424.160000
   2230   2234     1   0.10910 283424.160000
   2235   2236     1   0.10304 312293.760000
   2235   2237     1   0.10304 312293.760000
   2235   2238     1   0.10304 312293.760000
   2239   2240     1   0.10129 337397.760000
   2241   2243     1   0.10969 276646.080000
   2241   2244     1   0.10969 276646.080000
   2242   2245     1   0.10910 283424.160000
   2242   2246     1   0.10910 283424.160000
   2247   2248     1   0.10304 312293.760000
   2247   2249     1   0.10304 312293.760000
   2247   2250     1   0.10304 312293.760000
   2251   2252     1   0.10129 337397.760000
   2253   2255     1   0.10969 276646.080000
   2253   2256     1   0.10969 276646.080000
   2254   2257     1   0.10910 283424.160000
   2254   2258     1   0.10910 283424.160000
   2259   2260     1   0.10304 312293.760000
   2259   2261     1   0.10304 312293.760000
   2259   2262     1   0.10304 312293.760000
   2263   2264     1   0.10129 337397.760000
   2265   2267     1   0.10969 276646.080000
   2265   2268     1   0.10969 276646.080000
   2266   2269     1   0.10910 283424.160000
   2266   2270     1   0.10910 283424.160000
   2271   2272     1   0.10304 312293.760000
   2271   2273     1   0.10304 312293.760000
   2271   2274     1   0.10304 312293.760000
   2275   2276     1   0.10129 337397.760000
   2277   2279     1   0.10969 276646.080000
   2277   2280     1   0.10969 276646.080000
   2278   2281     1   0.10910 283424.160000
   2278   2282     1   0.10910 283424.160000
   2283   2284     1   0.10304 312293.760000
   2283   2285     1   0.10304 312293.760000
   2283   2286     1   0.10304 312293.760000
   2287   2288     1   0.10129 337397.760000
   2289   2291     1   0.10969 276646.080000
   2289   2292     1   0.10969 276646.080000
   2290   2293     1   0.10910 283424.160000
   2290   2294     1   0.10910 283424.160000
   2295   2296     1   0.10304 312293.760000
   2295   2297     1   0.10304 312293.760000
   2295   2298     1   0.10304 312293.760000
   2299   2300     1   0.10129 337397.760000
   2301   2303     1   0.10969 276646.080000
   2301   2304     1   0.10969 276646.080000
   2302   2305     1   0.10910 283424.160000
   2302   2306     1   0.10910 283424.160000
   2307   2308     1   0.10304 312293.760000
   2307   2309     1   0.10304 312293.760000
   2307   2310     1   0.10304 312293.760000
   2311   2312     1   0.10129 337397.760000
   2313   2315     1   0.10969 276646.080000
   2313   2316     1   0.10969 276646.080000
   2314   2317     1   0.10910 283424.160000
   2314   2318     1   0.10910 283424.160000
   2319   2320     1   0.10304 312293.760000
   2319   2321     1   0.10304 312293.760000
   2319   2322     1   0.10304 312293.760000
   2323   2324     1   0.10129 337397.760000
   2325   2327     1   0.10969 276646.080000
   2325   2328     1   0.10969 276646.080000
   2326   2329     1   0.10910 283424.160000
   2326   2330     1   0.10910 283424.160000
   2331   2332     1   0.10304 312293.760000
   2331   2333     1   0.10304 312293.760000
   2331   2334     1   0.10304 312293.760000
   2335   2336     1   0.10129 337397.760000
   2337   2339     1   0.10969 276646.080000
   2337   2340     1   0.10969 276646.080000
   2338   2341     1   0.10910 283424.160000
   2338   2342     1   0.10910 283424.160000
   2343   2344     1   0.10304 312293.760000
   2343   2345     1   0.10304 312293.760000
   2343   2346     1   0.10304 312293.760000
   2347   2348     1   0.10129 337397.760000
   2349   2351     1   0.10969 276646.080000
   2349   2352     1   0.10969 276646.080000
   2350   2353     1   0.10910 283424.160000
   2350   2354     1   0.10910 283424.160000
   2355   2356     1   0.10304 312293.760000
   2355   2357     1   0.10304 312293.760000
   2355   2358     1   0.10304 312293.760000
   2359   2360     1   0.10129 337397.760000
   2361   2363     1   0.10969 276646.080000
   2361   2364     1   0.10969 276646.080000
   2362   2365     1   0.10910 283424.160000
   2362   2366     1   0.10910 283424.160000
   2367   2368     1   0.10304 312293.760000
   2367   2369     1   0.10304 312293.760000
   2367   2370     1   0.10304 312293.760000

[ pairs ]
;    ai     aj funct         c0         c1         c2         c3
      1      4     1
      1     14     1
      1     16     1
      2     13     1
      2     15     1
      2      5     1
      2      6     1
      7      3     1
      8      3     1
      3     11     1
      3      9     1
      4     12     1
      4     10     1
      5      9     1
      5     17     1
      5     78     1
      6     11     1
      6     18     1
      6     52     1
      7     15     1
      7     20     1
      7    104     1
      8     13     1
      8     19     1
      8    130     1
      9     51     1
     10     50     1
     11     77     1
     12     76     1
     13    103     1
     14    102     1
     15    129     1
     16    128     1
     17     77     1
     18     51     1
     19    129     1
     20    103     1
     43     47     1
     43     49     1
     43     52     1
     44     48     1
     44     51     1
     44     53     1
     44    156     1
     45     46     1
     45     51     1
     45     54     1
     45    182     1
     46     50     1
     46    155     1
     47    154     1
     48     50     1
     48    181     1
     49    180     1
     53    155     1
     54    181     1
     69     73     1
     69     75     1
     69     78     1
     70     74     1
     70     77     1
     70     79     1
     70    208     1
     71     72     1
     71     77     1
     71     80     1
     71    234     1
     72     76     1
     72    207     1
     73    206     1
     74     76     1
     74    233     1
     75    232     1
     79    207     1
     80    233     1
     95     99     1
     95    101     1
     95    104     1
     96    100     1
     96    103     1
     96    105     1
     96    260     1
     97     98     1
     97    103     1
     97    106     1
     97    286     1
     98    102     1
     98    259     1
     99    258     1
    100    102     1
    100    285     1
    101    284     1
    105    259     1
    106    285     1
    121    125     1
    121    127     1
    121    130     1
    122    126     1
    122    129     1
    122    131     1
    122    312     1
    123    124     1
    123    129     1
    123    132     1
    123    338     1
    124    128     1
    124    311     1
    125    310     1
    126    128     1
    126    337     1
    127    336     1
    131    311     1
    132    337     1
    147    151     1
    147    153     1
    147    156     1
    148    152     1
    148    155     1
    148    157     1
    148    364     1
    149    150     1
    149    155     1
    149    158     1
    149    390     1
    150    154     1
    150    363     1
    151    362     1
    152    154     1
    152    389     1
    153    388     1
    157    363     1
    158    389     1
    173    177     1
    173    179     1
    173    182     1
    174    178     1
    174    181     1
    174    183     1
    174    416     1
    175    176     1
    175    181     1
    175    184     1
    175    442     1
    176    180     1
    176    415     1
    177    414     1
    178    180     1
    178    441     1
    179    440     1
    183    415     1
    184    441     1
    199    203     1
    199    205     1
    199    208     1
    200    204     1
    200    207     1
    200    209     1
    200    468     1
    201    202     1
    201    207     1
    201    210     1
    201    494     1
    202    206     1
    202    467     1
    203    466     1
    204    206     1
    204    493     1
    205    492     1
    209    467     1
    210    493     1
    225    229     1
    225    231     1
    225    234     1
    226    230     1
    226    233     1
    226    235     1
    226    520     1
    227    228     1
    227    233     1
    227    236     1
    227    546     1
    228    232     1
    228    519     1
    229    518     1
    230    232     1
    230    545     1
    231    544     1
    235    519     1
    236    545     1
    251    255     1
    251    257     1
    251    260     1
    252    256     1
    252    259     1
    252    261     1
    252    572     1
    253    254     1
    253    259     1
    253    262     1
    253    598     1
    254    258     1
    254    571     1
    255    570     1
    256    258     1
    256    597     1
    257    596     1
    261    571     1
    262    597     1
    277    281     1
    277    283     1
    277    286     1
    278    282     1
    278    285     1
    278    287     1
    278    624     1
    279    280     1
    279    285     1
    279    288     1
    279    650     1
    280    284     1
    280    623     1
    281    622     1
    282    284     1
    282    649     1
    283    648     1
    287    623     1
    288    649     1
    303    307     1
    303    309     1
    303    312     1
    304    308     1
    304    311     1
    304    313     1
    304    676     1
    305    306     1
    305    311     1
    305    314     1
    305    702     1
    306    310     1
    306    675     1
    307    674     1
    308    310     1
    308    701     1
    309    700     1
    313    675     1
    314    701     1
    329    333     1
    329    335     1
    329    338     1
    330    334     1
    330    337     1
    330    339     1
    330    728     1
    331    332     1
    331    337     1
    331    340     1
    331    754     1
    332    336     1
    332    727     1
    333    726     1
    334    336     1
    334    753     1
    335    752     1
    339    727     1
    340    753     1
    355    359     1
    355    361     1
    355    364     1
    356    360     1
    356    363     1
    356    365     1
    356    780     1
    357    358     1
    357    363     1
    357    366     1
    357    806     1
    358    362     1
    358    779     1
    359    778     1
    360    362     1
    360    805     1
    361    804     1
    365    779     1
    366    805     1
    381    385     1
    381    387     1
    381    390     1
    382    386     1
    382    389     1
    382    391     1
    382    832     1
    383    384     1
    383    389     1
    383    392     1
    383    858     1
    384    388     1
    384    831     1
    385    830     1
    386    388     1
    386    857     1
    387    856     1
    391    831     1
    392    857     1
    407    411     1
    407    413     1
    407    416     1
    408    412     1
    408    415     1
    408    417     1
    408    884     1
    409    410     1
    409    415     1
    409    418     1
    409    910     1
    410    414     1
    410    883     1
    411    882     1
    412    414     1
    412    909     1
    413    908     1
    417    883     1
    418    909     1
    433    437     1
    433    439     1
    433    442     1
    434    438     1
    434    441     1
    434    443     1
    434    936     1
    435    436     1
    435    441     1
    435    444     1
    435    962     1
    436    440     1
    436    935     1
    437    934     1
    438    440     1
    438    961     1
    439    960     1
    443    935     1
    444    961     1
    459    463     1
    459    465     1
    459    468     1
    460    464     1
    460    467     1
    460    469     1
    460    988     1
    461    462     1
    461    467     1
    461    470     1
    461   1014     1
    462    466     1
    462    987     1
    463    986     1
    464    466     1
    464   1013     1
    465   1012     1
    469    987     1
    470   1013     1
    485    489     1
    485    491     1
    485    494     1
    486    490     1
    486    493     1
    486    495     1
    486   1040     1
    487    488     1
    487    493     1
    487    496     1
    487   1066     1
    488    492     1
    488   1039     1
    489   1038     1
    490    492     1
    490   1065     1
    491   1064     1
    495   1039     1
    496   1065     1
    511    515     1
    511    517     1
    511    520     1
    512    516     1
    512    519     1
    512    521     1
    512   1092     1
    513    514     1
    513    519     1
    513    522     1
    513   1118     1
    514    518     1
    514   1091     1
    515   1090     1
    516    518     1
    516   1117     1
    517   1116     1
    521   1091     1
    522   1117     1
    537    541     1
    537    543     1
    537    546     1
    538    542     1
    538    545     1
    538    547     1
    538   1144     1
    539    540     1
    539    545     1
    539    548     1
    539   1170     1
    540    544     1
    540   1143     1
    541   1142     1
    542    544     1
    542   1169     1
    543   1168     1
    547   1143     1
    548   1169     1
    563    567     1
    563    569     1
    563    572     1
    564    568     1
    564    571     1
    564    573     1
    564   1196     1
    565    566     1
    565    571     1
    565    574     1
    565   1222     1
    566    570     1
    566   1195     1
    567   1194     1
    568    570     1
    568   1221     1
    569   1220     1
    573   1195     1
    574   1221     1
    589    593     1
    589    595     1
    589    598     1
    590    594     1
    590    597     1
    590    599     1
    590   1248     1
    591    592     1
    591    597     1
    591    600     1
    591   1274     1
    592    596     1
    592   1247     1
    593   1246     1
    594    596     1
    594   1273     1
    595   1272     1
    599   1247     1
    600   1273     1
    615    619     1
    615    621     1
    615    624     1
    616    620     1
    616    623     1
    616    625     1
    616   1300     1
    617    618     1
    617    623     1
    617    626     1
    617   1326     1
    618    622     1
    618   1299     1
    619   1298     1
    620    622     1
    620   1325     1
    621   1324     1
    625   1299     1
    626   1325     1
    641    645     1
    641    647     1
    641    650     1
    642    646     1
    642    649     1
    642    651     1
    642   1352     1
    643    644     1
    643    649     1
    643    652     1
    643   1378     1
    644    648     1
    644   1351     1
    645   1350     1
    646    648     1
    646   1377     1
    647   1376     1
    651   1351     1
    652   1377     1
    667    671     1
    667    673     1
    667    676     1
    668    672     1
    668    675     1
    668    677     1
    668   1404     1
    669    670     1
    669    675     1
    669    678     1
    669   1430     1
    670    674     1
    670   1403     1
    671   1402     1
    672    674     1
    672   1429     1
    673   1428     1
    677   1403     1
    678   1429     1
    693    697     1
    693    699     1
    693    702     1
    694    698     1
    694    701     1
    694    703     1
    694   1456     1
    695    696     1
    695    701     1
    695    704     1
    695   1482     1
    696    700     1
    696   1455     1
    697   1454     1
    698    700     1
    698   1481     1
    699   1480     1
    703   1455     1
    704   1481     1
    719    723     1
    719    725     1
    719    728     1
    720    724     1
    720    727     1
    720    729     1
    720   1508     1
    721    722     1
    721    727     1
    721    730     1
    721   1534     1
    722    726     1
    722   1507     1
    723   1506     1
    724    726     1
    724   1533     1
    725   1532     1
    729   1507     1
    730   1533     1
    745    749     1
    745    751     1
    745    754     1
    746    750     1
    746    753     1
    746    755     1
    746   1560     1
    747    748     1
    747    753     1
    747    756     1
    747   1586     1
    748    752     1
    748   1559     1
    749   1558     1
    750    752     1
    750   1585     1
    751   1584     1
    755   1559     1
    756   1585     1
    771    775     1
    771    777     1
    771    780     1
    772    776     1
    772    779     1
    772   1603     1
    772    781     1
    773    774     1
    773    779     1
    773    782     1
    773   1615     1
    774    778     1
    774   1605     1
    775   1606     1
    776    778     1
    776   1617     1
    777   1618     1
    781   1605     1
    782   1617     1
    797    801     1
    797    803     1
    797    806     1
    798    802     1
    798    805     1
    798   1627     1
    798    807     1
    799    800     1
    799    805     1
    799    808     1
    799   1639     1
    800    804     1
    800   1629     1
    801   1630     1
    802    804     1
    802   1641     1
    803   1642     1
    807   1629     1
    808   1641     1
    823    827     1
    823    829     1
    823    832     1
    824    828     1
    824    831     1
    824   1651     1
    824    833     1
    825    826     1
    825    831     1
    825    834     1
    825   1663     1
    826    830     1
    826   1653     1
    827   1654     1
    828    830     1
    828   1665     1
    829   1666     1
    833   1653     1
    834   1665     1
    849    853     1
    849    855     1
    849    858     1
    850    854     1
    850    857     1
    850   1675     1
    850    859     1
    851    852     1
    851    857     1
    851    860     1
    851   1687     1
    852    856     1
    852   1677     1
    853   1678     1
    854    856     1
    854   1689     1
    855   1690     1
    859   1677     1
    860   1689     1
    875    879     1
    875    881     1
    875    884     1
    876    880     1
    876    883     1
    876   1699     1
    876    885     1
    877    878     1
    877    883     1
    877    886     1
    877   1711     1
    878    882     1
    878   1701     1
    879   1702     1
    880    882     1
    880   1713     1
    881   1714     1
    885   1701     1
    886   1713     1
    901    905     1
    901    907     1
    901    910     1
    902    906     1
    902    909     1
    902   1723     1
    902    911     1
    903    904     1
    903    909     1
    903    912     1
    903   1735     1
    904    908     1
    904   1725     1
    905   1726     1
    906    908     1
    906   1737     1
    907   1738     1
    911   1725     1
    912   1737     1
    927    931     1
    927    933     1
    927    936     1
    928    932     1
    928    935     1
    928   1747     1
    928    937     1
    929    930     1
    929    935     1
    929    938     1
    929   1759     1
    930    934     1
    930   1749     1
    931   1750     1
    932    934     1
    932   1761     1
    933   1762     1
    937   1749     1
    938   1761     1
    953    957     1
    953    959     1
    953    962     1
    954    958     1
    954    961     1
    954   1771     1
    954    963     1
    955    956     1
    955    961     1
    955    964     1
    955   1783     1
    956    960     1
    956   1773     1
    957   1774     1
    958    960     1
    958   1785     1
    959   1786     1
    963   1773     1
    964   1785     1
    979    983     1
    979    985     1
    979    988     1
    980    984     1
    980    987     1
    980   1795     1
    980    989     1
    981    982     1
    981    987     1
    981    990     1
    981   1807     1
    982    986     1
    982   1797     1
    983   1798     1
    984    986     1
    984   1809     1
    985   1810     1
    989   1797     1
    990   1809     1
   1005   1009     1
   1005   1011     1
   1005   1014     1
   1006   1010     1
   1006   1013     1
   1006   1819     1
   1006   1015     1
   1007   1008     1
   1007   1013     1
   1007   1016     1
   1007   1831     1
   1008   1012     1
   1008   1821     1
   1009   1822     1
   1010   1012     1
   1010   1833     1
   1011   1834     1
   1015   1821     1
   1016   1833     1
   1031   1035     1
   1031   1037     1
   1031   1040     1
   1032   1036     1
   1032   1039     1
   1032   1843     1
   1032   1041     1
   1033   1034     1
   1033   1039     1
   1033   1042     1
   1033   1855     1
   1034   1038     1
   1034   1845     1
   1035   1846     1
   1036   1038     1
   1036   1857     1
   1037   1858     1
   1041   1845     1
   1042   1857     1
   1057   1061     1
   1057   1063     1
   1057   1066     1
   1058   1062     1
   1058   1065     1
   1058   1867     1
   1058   1067     1
   1059   1060     1
   1059   1065     1
   1059   1068     1
   1059   1879     1
   1060   1064     1
   1060   1869     1
   1061   1870     1
   1062   1064     1
   1062   1881     1
   1063   1882     1
   1067   1869     1
   1068   1881     1
   1083   1087     1
   1083   1089     1
   1083   1092     1
   1084   1088     1
   1084   1091     1
   1084   1891     1
   1084   1093     1
   1085   1086     1
   1085   1091     1
   1085   1094     1
   1085   1903     1
   1086   1090     1
   1086   1893     1
   1087   1894     1
   1088   1090     1
   1088   1905     1
   1089   1906     1
   1093   1893     1
   1094   1905     1
   1109   1113     1
   1109   1115     1
   1109   1118     1
   1110   1114     1
   1110   1117     1
   1110   1915     1
   1110   1119     1
   1111   1112     1
   1111   1117     1
   1111   1120     1
   1111   1927     1
   1112   1116     1
   1112   1917     1
   1113   1918     1
   1114   1116     1
   1114   1929     1
   1115   1930     1
   1119   1917     1
   1120   1929     1
   1135   1139     1
   1135   1141     1
   1135   1144     1
   1136   1140     1
   1136   1143     1
   1136   1939     1
   1136   1145     1
   1137   1138     1
   1137   1143     1
   1137   1146     1
   1137   1951     1
   1138   1142     1
   1138   1941     1
   1139   1942     1
   1140   1142     1
   1140   1953     1
   1141   1954     1
   1145   1941     1
   1146   1953     1
   1161   1165     1
   1161   1167     1
   1161   1170     1
   1162   1166     1
   1162   1169     1
   1162   1963     1
   1162   1171     1
   1163   1164     1
   1163   1169     1
   1163   1172     1
   1163   1975     1
   1164   1168     1
   1164   1965     1
   1165   1966     1
   1166   1168     1
   1166   1977     1
   1167   1978     1
   1171   1965     1
   1172   1977     1
   1187   1191     1
   1187   1193     1
   1187   1196     1
   1188   1192     1
   1188   1195     1
   1188   1987     1
   1188   1197     1
   1189   1190     1
   1189   1195     1
   1189   1198     1
   1189   1999     1
   1190   1194     1
   1190   1989     1
   1191   1990     1
   1192   1194     1
   1192   2001     1
   1193   2002     1
   1197   1989     1
   1198   2001     1
   1213   1217     1
   1213   1219     1
   1213   1222     1
   1214   1218     1
   1214   1221     1
   1214   2011     1
   1214   1223     1
   1215   1216     1
   1215   1221     1
   1215   1224     1
   1215   2023     1
   1216   1220     1
   1216   2013     1
   1217   2014     1
   1218   1220     1
   1218   2025     1
   1219   2026     1
   1223   2013     1
   1224   2025     1
   1239   1243     1
   1239   1245     1
   1239   1248     1
   1240   1244     1
   1240   1247     1
   1240   2035     1
   1240   1249     1
   1241   1242     1
   1241   1247     1
   1241   1250     1
   1241   2047     1
   1242   1246     1
   1242   2037     1
   1243   2038     1
   1244   1246     1
   1244   2049     1
   1245   2050     1
   1249   2037     1
   1250   2049     1
   1265   1269     1
   1265   1271     1
   1265   1274     1
   1266   1270     1
   1266   1273     1
   1266   2059     1
   1266   1275     1
   1267   1268     1
   1267   1273     1
   1267   1276     1
   1267   2071     1
   1268   1272     1
   1268   2061     1
   1269   2062     1
   1270   1272     1
   1270   2073     1
   1271   2074     1
   1275   2061     1
   1276   2073     1
   1291   1295     1
   1291   1297     1
   1291   1300     1
   1292   1296     1
   1292   1299     1
   1292   2083     1
   1292   1301     1
   1293   1294     1
   1293   1299     1
   1293   1302     1
   1293   2095     1
   1294   1298     1
   1294   2085     1
   1295   2086     1
   1296   1298     1
   1296   2097     1
   1297   2098     1
   1301   2085     1
   1302   2097     1
   1317   1321     1
   1317   1323     1
   1317   1326     1
   1318   1322     1
   1318   1325     1
   1318   2107     1
   1318   1327     1
   1319   1320     1
   1319   1325     1
   1319   1328     1
   1319   2119     1
   1320   1324     1
   1320   2109     1
   1321   2110     1
   1322   1324     1
   1322   2121     1
   1323   2122     1
   1327   2109     1
   1328   2121     1
   1343   1347     1
   1343   1349     1
   1343   1352     1
   1344   1348     1
   1344   1351     1
   1344   2131     1
   1344   1353     1
   1345   1346     1
   1345   1351     1
   1345   1354     1
   1345   2143     1
   1346   1350     1
   1346   2133     1
   1347   2134     1
   1348   1350     1
   1348   2145     1
   1349   2146     1
   1353   2133     1
   1354   2145     1
   1369   1373     1
   1369   1375     1
   1369   1378     1
   1370   1374     1
   1370   1377     1
   1370   2155     1
   1370   1379     1
   1371   1372     1
   1371   1377     1
   1371   1380     1
   1371   2167     1
   1372   1376     1
   1372   2157     1
   1373   2158     1
   1374   1376     1
   1374   2169     1
   1375   2170     1
   1379   2157     1
   1380   2169     1
   1395   1399     1
   1395   1401     1
   1395   1404     1
   1396   1400     1
   1396   1403     1
   1396   2179     1
   1396   1405     1
   1397   1398     1
   1397   1403     1
   1397   1406     1
   1397   2191     1
   1398   1402     1
   1398   2181     1
   1399   2182     1
   1400   1402     1
   1400   2193     1
   1401   2194     1
   1405   2181     1
   1406   2193     1
   1421   1425     1
   1421   1427     1
   1421   1430     1
   1422   1426     1
   1422   1429     1
   1422   2203     1
   1422   1431     1
   1423   1424     1
   1423   1429     1
   1423   1432     1
   1423   2215     1
   1424   1428     1
   1424   2205     1
   1425   2206     1
   1426   1428     1
   1426   2217     1
   1427   2218     1
   1431   2205     1
   1432   2217     1
   1447   1451     1
   1447   1453     1
   1447   1456     1
   1448   1452     1
   1448   1455     1
   1448   2227     1
   1448   1457     1
   1449   1450     1
   1449   1455     1
   1449   1458     1
   1449   2239     1
   1450   1454     1
   1450   2229     1
   1451   2230     1
   1452   1454     1
   1452   2241     1
   1453   2242     1
   1457   2229     1
   1458   2241     1
   1473   1477     1
   1473   1479     1
   1473   1482     1
   1474   1478     1
   1474   1481     1
   1474   2251     1
   1474   1483     1
   1475   1476     1
   1475   1481     1
   1475   1484     1
   1475   2263     1
   1476   1480     1
   1476   2253     1
   1477   2254     1
   1478   1480     1
   1478   2265     1
   1479   2266     1
   1483   2253     1
   1484   2265     1
   1499   1503     1
   1499   1505     1
   1499   1508     1
   1500   1504     1
   1500   1507     1
   1500   2275     1
   1500   1509     1
   1501   1502     1
   1501   1507     1
   1501   1510     1
   1501   2287     1
   1502   1506     1
   1502   2277     1
   1503   2278     1
   1504   1506     1
   1504   2289     1
   1505   2290     1
   1509   2277     1
   1510   2289     1
   1525   1529     1
   1525   1531     1
   1525   1534     1
   1526   1530     1
   1526   1533     1
   1526   2299     1
   1526   1535     1
   1527   1528     1
   1527   1533     1
   1527   1536     1
   1527   2311     1
   1528   1532     1
   1528   2301     1
   1529   2302     1
   1530   1532     1
   1530   2313     1
   1531   2314     1
   1535   2301     1
   1536   2313     1
   1551   1555     1
   1551   1557     1
   1551   1560     1
   1552   1556     1
   1552   1559     1
   1552   2323     1
   1552   1561     1
   1553   1554     1
   1553   1559     1
   1553   1562     1
   1553   2335     1
   1554   1558     1
   1554   2325     1
   1555   2326     1
   1556   1558     1
   1556   2337     1
   1557   2338     1
   1561   2325     1
   1562   2337     1
   1577   1581     1
   1577   1583     1
   1577   1586     1
   1578   1582     1
   1578   1585     1
   1578   2347     1
   1578   1587     1
   1579   1580     1
   1579   1585     1
   1579   2359     1
   1579   1588     1
   1580   1584     1
   1580   2349     1
   1581   2350     1
   1582   1584     1
   1582   2361     1
   1583   2362     1
   1587   2349     1
   1588   2361     1
   1603   1611     1
   1615   1623     1
   1627   1635     1
   1639   1647     1
   1651   1659     1
   1663   1671     1
   1675   1683     1
   1687   1695     1
   1699   1707     1
   1711   1719     1
   1723   1731     1
   1735   1743     1
   1747   1755     1
   1759   1767     1
   1771   1779     1
   1783   1791     1
   1795   1803     1
   1807   1815     1
   1819   1827     1
   1831   1839     1
   1843   1851     1
   1855   1863     1
   1867   1875     1
   1879   1887     1
   1891   1899     1
   1903   1911     1
   1915   1923     1
   1927   1935     1
   1939   1947     1
   1951   1959     1
   1963   1971     1
   1975   1983     1
   1987   1995     1
   1999   2007     1
   2011   2019     1
   2023   2031     1
   2035   2043     1
   2047   2055     1
   2059   2067     1
   2071   2079     1
   2083   2091     1
   2095   2103     1
   2107   2115     1
   2119   2127     1
   2131   2139     1
   2143   2151     1
   2155   2163     1
   2167   2175     1
   2179   2187     1
   2191   2199     1
   2203   2211     1
   2215   2223     1
   2227   2235     1
   2239   2247     1
   2251   2259     1
   2263   2271     1
   2275   2283     1
   2287   2295     1
   2299   2307     1
   2311   2319     1
   2323   2331     1
   2335   2343     1
   2347   2355     1
   2359   2367     1
      1     23     1
      1     24     1
      1     37     1
      1     38     1
      1     39     1
      1     40     1
      2     29     1
      2     30     1
      2     31     1
      2     32     1
      2     42     1
     41      3     1
      3     25     1
      3     26     1
      3     27     1
      3     28     1
      4     21     1
      4     22     1
      4     35     1
      4     36     1
      4     33     1
      4     34     1
      5     23     1
      5     24     1
      5     27     1
      5     28     1
      6     23     1
      6     24     1
      6     25     1
      6     26     1
      7     21     1
      7     22     1
      7     31     1
      7     32     1
      8     21     1
      8     22     1
      8     29     1
      8     30     1
      9     42     1
      9     67     1
     10     27     1
     10     28     1
     10     65     1
     10     66     1
     11     42     1
     11     93     1
     12     25     1
     12     26     1
     12     91     1
     12     92     1
     41     13     1
     13    119     1
     14     29     1
     14     30     1
     14    117     1
     14    118     1
     41     15     1
     15    145     1
     16     31     1
     16     32     1
     16    143     1
     16    144     1
     17     35     1
     17     36     1
     17     93     1
     18     33     1
     18     34     1
     18     67     1
     19     39     1
     19     40     1
     19    145     1
     20     37     1
     20     38     1
     20    119     1
     41     21     1
     21     23     1
     21     24     1
     41     22     1
     22     23     1
     22     24     1
     23     42     1
     24     42     1
     25     42     1
     25     35     1
     25     36     1
     26     42     1
     26     35     1
     26     36     1
     27     42     1
     27     33     1
     27     34     1
     28     42     1
     28     33     1
     28     34     1
     41     29     1
     29     37     1
     29     38     1
     41     30     1
     30     37     1
     30     38     1
     41     31     1
     31     39     1
     31     40     1
     41     32     1
     32     39     1
     32     40     1
     33     52     1
     34     52     1
     35     78     1
     36     78     1
     37    104     1
     38    104     1
     39    130     1
     40    130     1
     43     59     1
     43     60     1
     43     61     1
     43     62     1
     43     65     1
     43     66     1
     44     57     1
     44     58     1
     44     63     1
     44     64     1
     45     55     1
     45     56     1
     45     63     1
     45     64     1
     46     68     1
     46    171     1
     47     55     1
     47     56     1
     47    169     1
     47    170     1
     48     68     1
     48    197     1
     49     57     1
     49     58     1
     49    195     1
     49    196     1
     50     55     1
     50     56     1
     50     57     1
     50     58     1
     50     67     1
     51     68     1
     52     63     1
     52     64     1
     53     59     1
     53     60     1
     53    171     1
     54     61     1
     54     62     1
     54    197     1
     55     68     1
     55     59     1
     55     60     1
     56     68     1
     56     59     1
     56     60     1
     57     68     1
     57     61     1
     57     62     1
     58     68     1
     58     61     1
     58     62     1
     59    156     1
     60    156     1
     61    182     1
     62    182     1
     63     68     1
     63     65     1
     63     66     1
     64     68     1
     64     65     1
     64     66     1
     65     67     1
     66     67     1
     69     85     1
     69     86     1
     69     87     1
     69     88     1
     69     91     1
     69     92     1
     70     83     1
     70     84     1
     70     89     1
     70     90     1
     71     81     1
     71     82     1
     71     89     1
     71     90     1
     72     94     1
     72    223     1
     73     81     1
     73     82     1
     73    221     1
     73    222     1
     74     94     1
     74    249     1
     75     83     1
     75     84     1
     75    247     1
     75    248     1
     76     81     1
     76     82     1
     76     83     1
     76     84     1
     76     93     1
     77     94     1
     78     89     1
     78     90     1
     79     85     1
     79     86     1
     79    223     1
     80     87     1
     80     88     1
     80    249     1
     81     94     1
     81     85     1
     81     86     1
     82     94     1
     82     85     1
     82     86     1
     83     94     1
     83     87     1
     83     88     1
     84     94     1
     84     87     1
     84     88     1
     85    208     1
     86    208     1
     87    234     1
     88    234     1
     89     94     1
     89     91     1
     89     92     1
     90     94     1
     90     91     1
     90     92     1
     91     93     1
     92     93     1
     95    111     1
     95    112     1
     95    113     1
     95    114     1
     95    117     1
     95    118     1
     96    109     1
     96    110     1
     96    115     1
     96    116     1
     97    107     1
     97    108     1
     97    115     1
     97    116     1
     98    120     1
     98    275     1
     99    107     1
     99    108     1
     99    273     1
     99    274     1
    100    120     1
    100    301     1
    101    109     1
    101    110     1
    101    299     1
    101    300     1
    102    107     1
    102    108     1
    102    109     1
    102    110     1
    102    119     1
    103    120     1
    104    115     1
    104    116     1
    105    111     1
    105    112     1
    105    275     1
    106    113     1
    106    114     1
    106    301     1
    107    120     1
    107    111     1
    107    112     1
    108    120     1
    108    111     1
    108    112     1
    109    120     1
    109    113     1
    109    114     1
    110    120     1
    110    113     1
    110    114     1
    111    260     1
    112    260     1
    113    286     1
    114    286     1
    115    120     1
    115    117     1
    115    118     1
    116    120     1
    116    117     1
    116    118     1
    117    119     1
    118    119     1
    121    137     1
    121    138     1
    121    139     1
    121    140     1
    121    143     1
    121    144     1
    122    135     1
    122    136     1
    122    141     1
    122    142     1
    123    133     1
    123    134     1
    123    141     1
    123    142     1
    124    146     1
    124    327     1
    125    133     1
    125    134     1
    125    325     1
    125    326     1
    126    146     1
    126    353     1
    127    135     1
    127    136     1
    127    351     1
    127    352     1
    128    133     1
    128    134     1
    128    135     1
    128    136     1
    128    145     1
    129    146     1
    130    141     1
    130    142     1
    131    137     1
    131    138     1
    131    327     1
    132    139     1
    132    140     1
    132    353     1
    133    146     1
    133    137     1
    133    138     1
    134    146     1
    134    137     1
    134    138     1
    135    146     1
    135    139     1
    135    140     1
    136    146     1
    136    139     1
    136    140     1
    137    312     1
    138    312     1
    139    338     1
    140    338     1
    141    146     1
    141    143     1
    141    144     1
    142    146     1
    142    143     1
    142    144     1
    143    145     1
    144    145     1
    147    163     1
    147    164     1
    147    165     1
    147    166     1
    147    169     1
    147    170     1
    148    161     1
    148    162     1
    148    167     1
    148    168     1
    149    159     1
    149    160     1
    149    167     1
    149    168     1
    150    172     1
    150    379     1
    151    159     1
    151    160     1
    151    377     1
    151    378     1
    152    172     1
    152    405     1
    153    161     1
    153    162     1
    153    403     1
    153    404     1
    154    159     1
    154    160     1
    154    161     1
    154    162     1
    154    171     1
    155    172     1
    156    167     1
    156    168     1
    157    163     1
    157    164     1
    157    379     1
    158    165     1
    158    166     1
    158    405     1
    159    172     1
    159    163     1
    159    164     1
    160    172     1
    160    163     1
    160    164     1
    161    172     1
    161    165     1
    161    166     1
    162    172     1
    162    165     1
    162    166     1
    163    364     1
    164    364     1
    165    390     1
    166    390     1
    167    172     1
    167    169     1
    167    170     1
    168    172     1
    168    169     1
    168    170     1
    169    171     1
    170    171     1
    173    189     1
    173    190     1
    173    191     1
    173    192     1
    173    195     1
    173    196     1
    174    187     1
    174    188     1
    174    193     1
    174    194     1
    175    185     1
    175    186     1
    175    193     1
    175    194     1
    176    198     1
    176    431     1
    177    185     1
    177    186     1
    177    429     1
    177    430     1
    178    198     1
    178    457     1
    179    187     1
    179    188     1
    179    455     1
    179    456     1
    180    185     1
    180    186     1
    180    187     1
    180    188     1
    180    197     1
    181    198     1
    182    193     1
    182    194     1
    183    189     1
    183    190     1
    183    431     1
    184    191     1
    184    192     1
    184    457     1
    185    198     1
    185    189     1
    185    190     1
    186    198     1
    186    189     1
    186    190     1
    187    198     1
    187    191     1
    187    192     1
    188    198     1
    188    191     1
    188    192     1
    189    416     1
    190    416     1
    191    442     1
    192    442     1
    193    198     1
    193    195     1
    193    196     1
    194    198     1
    194    195     1
    194    196     1
    195    197     1
    196    197     1
    199    215     1
    199    216     1
    199    217     1
    199    218     1
    199    221     1
    199    222     1
    200    213     1
    200    214     1
    200    219     1
    200    220     1
    201    211     1
    201    212     1
    201    219     1
    201    220     1
    202    224     1
    202    483     1
    203    211     1
    203    212     1
    203    481     1
    203    482     1
    204    224     1
    204    509     1
    205    213     1
    205    214     1
    205    507     1
    205    508     1
    206    211     1
    206    212     1
    206    213     1
    206    214     1
    206    223     1
    207    224     1
    208    219     1
    208    220     1
    209    215     1
    209    216     1
    209    483     1
    210    217     1
    210    218     1
    210    509     1
    211    224     1
    211    215     1
    211    216     1
    212    224     1
    212    215     1
    212    216     1
    213    224     1
    213    217     1
    213    218     1
    214    224     1
    214    217     1
    214    218     1
    215    468     1
    216    468     1
    217    494     1
    218    494     1
    219    224     1
    219    221     1
    219    222     1
    220    224     1
    220    221     1
    220    222     1
    221    223     1
    222    223     1
    225    241     1
    225    242     1
    225    243     1
    225    244     1
    225    247     1
    225    248     1
    226    239     1
    226    240     1
    226    245     1
    226    246     1
    227    237     1
    227    238     1
    227    245     1
    227    246     1
    228    250     1
    228    535     1
    229    237     1
    229    238     1
    229    533     1
    229    534     1
    230    250     1
    230    561     1
    231    239     1
    231    240     1
    231    559     1
    231    560     1
    232    237     1
    232    238     1
    232    239     1
    232    240     1
    232    249     1
    233    250     1
    234    245     1
    234    246     1
    235    241     1
    235    242     1
    235    535     1
    236    243     1
    236    244     1
    236    561     1
    237    250     1
    237    241     1
    237    242     1
    238    250     1
    238    241     1
    238    242     1
    239    250     1
    239    243     1
    239    244     1
    240    250     1
    240    243     1
    240    244     1
    241    520     1
    242    520     1
    243    546     1
    244    546     1
    245    250     1
    245    247     1
    245    248     1
    246    250     1
    246    247     1
    246    248     1
    247    249     1
    248    249     1
    251    267     1
    251    268     1
    251    269     1
    251    270     1
    251    273     1
    251    274     1
    252    265     1
    252    266     1
    252    271     1
    252    272     1
    253    263     1
    253    264     1
    253    271     1
    253    272     1
    254    276     1
    254    587     1
    255    263     1
    255    264     1
    255    585     1
    255    586     1
    256    276     1
    256    613     1
    257    265     1
    257    266     1
    257    611     1
    257    612     1
    258    263     1
    258    264     1
    258    265     1
    258    266     1
    258    275     1
    259    276     1
    260    271     1
    260    272     1
    261    267     1
    261    268     1
    261    587     1
    262    269     1
    262    270     1
    262    613     1
    263    276     1
    263    267     1
    263    268     1
    264    276     1
    264    267     1
    264    268     1
    265    276     1
    265    269     1
    265    270     1
    266    276     1
    266    269     1
    266    270     1
    267    572     1
    268    572     1
    269    598     1
    270    598     1
    271    276     1
    271    273     1
    271    274     1
    272    276     1
    272    273     1
    272    274     1
    273    275     1
    274    275     1
    277    293     1
    277    294     1
    277    295     1
    277    296     1
    277    299     1
    277    300     1
    278    291     1
    278    292     1
    278    297     1
    278    298     1
    279    289     1
    279    290     1
    279    297     1
    279    298     1
    280    302     1
    280    639     1
    281    289     1
    281    290     1
    281    637     1
    281    638     1
    282    302     1
    282    665     1
    283    291     1
    283    292     1
    283    663     1
    283    664     1
    284    289     1
    284    290     1
    284    291     1
    284    292     1
    284    301     1
    285    302     1
    286    297     1
    286    298     1
    287    293     1
    287    294     1
    287    639     1
    288    295     1
    288    296     1
    288    665     1
    289    302     1
    289    293     1
    289    294     1
    290    302     1
    290    293     1
    290    294     1
    291    302     1
    291    295     1
    291    296     1
    292    302     1
    292    295     1
    292    296     1
    293    624     1
    294    624     1
    295    650     1
    296    650     1
    297    302     1
    297    299     1
    297    300     1
    298    302     1
    298    299     1
    298    300     1
    299    301     1
    300    301     1
    303    319     1
    303    320     1
    303    321     1
    303    322     1
    303    325     1
    303    326     1
    304    317     1
    304    318     1
    304    323     1
    304    324     1
    305    315     1
    305    316     1
    305    323     1
    305    324     1
    306    328     1
    306    691     1
    307    315     1
    307    316     1
    307    689     1
    307    690     1
    308    328     1
    308    717     1
    309    317     1
    309    318     1
    309    715     1
    309    716     1
    310    315     1
    310    316     1
    310    317     1
    310    318     1
    310    327     1
    311    328     1
    312    323     1
    312    324     1
    313    319     1
    313    320     1
    313    691     1
    314    321     1
    314    322     1
    314    717     1
    315    328     1
    315    319     1
    315    320     1
    316    328     1
    316    319     1
    316    320     1
    317    328     1
    317    321     1
    317    322     1
    318    328     1
    318    321     1
    318    322     1
    319    676     1
    320    676     1
    321    702     1
    322    702     1
    323    328     1
    323    325     1
    323    326     1
    324    328     1
    324    325     1
    324    326     1
    325    327     1
    326    327     1
    329    345     1
    329    346     1
    329    347     1
    329    348     1
    329    351     1
    329    352     1
    330    343     1
    330    344     1
    330    349     1
    330    350     1
    331    341     1
    331    342     1
    331    349     1
    331    350     1
    332    354     1
    332    743     1
    333    341     1
    333    342     1
    333    741     1
    333    742     1
    334    354     1
    334    769     1
    335    343     1
    335    344     1
    335    767     1
    335    768     1
    336    341     1
    336    342     1
    336    343     1
    336    344     1
    336    353     1
    337    354     1
    338    349     1
    338    350     1
    339    345     1
    339    346     1
    339    743     1
    340    347     1
    340    348     1
    340    769     1
    341    354     1
    341    345     1
    341    346     1
    342    354     1
    342    345     1
    342    346     1
    343    354     1
    343    347     1
    343    348     1
    344    354     1
    344    347     1
    344    348     1
    345    728     1
    346    728     1
    347    754     1
    348    754     1
    349    354     1
    349    351     1
    349    352     1
    350    354     1
    350    351     1
    350    352     1
    351    353     1
    352    353     1
    355    371     1
    355    372     1
    355    373     1
    355    374     1
    355    377     1
    355    378     1
    356    369     1
    356    370     1
    356    375     1
    356    376     1
    357    367     1
    357    368     1
    357    375     1
    357    376     1
    358    380     1
    358    795     1
    359    367     1
    359    368     1
    359    793     1
    359    794     1
    360    380     1
    360    821     1
    361    369     1
    361    370     1
    361    819     1
    361    820     1
    362    367     1
    362    368     1
    362    369     1
    362    370     1
    362    379     1
    363    380     1
    364    375     1
    364    376     1
    365    371     1
    365    372     1
    365    795     1
    366    373     1
    366    374     1
    366    821     1
    367    380     1
    367    371     1
    367    372     1
    368    380     1
    368    371     1
    368    372     1
    369    380     1
    369    373     1
    369    374     1
    370    380     1
    370    373     1
    370    374     1
    371    780     1
    372    780     1
    373    806     1
    374    806     1
    375    380     1
    375    377     1
    375    378     1
    376    380     1
    376    377     1
    376    378     1
    377    379     1
    378    379     1
    381    397     1
    381    398     1
    381    399     1
    381    400     1
    381    403     1
    381    404     1
    382    395     1
    382    396     1
    382    401     1
    382    402     1
    383    393     1
    383    394     1
    383    401     1
    383    402     1
    384    406     1
    384    847     1
    385    393     1
    385    394     1
    385    845     1
    385    846     1
    386    406     1
    386    873     1
    387    395     1
    387    396     1
    387    871     1
    387    872     1
    388    393     1
    388    394     1
    388    395     1
    388    396     1
    388    405     1
    389    406     1
    390    401     1
    390    402     1
    391    397     1
    391    398     1
    391    847     1
    392    399     1
    392    400     1
    392    873     1
    393    406     1
    393    397     1
    393    398     1
    394    406     1
    394    397     1
    394    398     1
    395    406     1
    395    399     1
    395    400     1
    396    406     1
    396    399     1
    396    400     1
    397    832     1
    398    832     1
    399    858     1
    400    858     1
    401    406     1
    401    403     1
    401    404     1
    402    406     1
    402    403     1
    402    404     1
    403    405     1
    404    405     1
    407    423     1
    407    424     1
    407    425     1
    407    426     1
    407    429     1
    407    430     1
    408    421     1
    408    422     1
    408    427     1
    408    428     1
    409    419     1
    409    420     1
    409    427     1
    409    428     1
    410    432     1
    410    899     1
    411    419     1
    411    420     1
    411    897     1
    411    898     1
    412    432     1
    412    925     1
    413    421     1
    413    422     1
    413    923     1
    413    924     1
    414    419     1
    414    420     1
    414    421     1
    414    422     1
    414    431     1
    415    432     1
    416    427     1
    416    428     1
    417    423     1
    417    424     1
    417    899     1
    418    425     1
    418    426     1
    418    925     1
    419    432     1
    419    423     1
    419    424     1
    420    432     1
    420    423     1
    420    424     1
    421    432     1
    421    425     1
    421    426     1
    422    432     1
    422    425     1
    422    426     1
    423    884     1
    424    884     1
    425    910     1
    426    910     1
    427    432     1
    427    429     1
    427    430     1
    428    432     1
    428    429     1
    428    430     1
    429    431     1
    430    431     1
    433    449     1
    433    450     1
    433    451     1
    433    452     1
    433    455     1
    433    456     1
    434    447     1
    434    448     1
    434    453     1
    434    454     1
    435    445     1
    435    446     1
    435    453     1
    435    454     1
    436    458     1
    436    951     1
    437    445     1
    437    446     1
    437    949     1
    437    950     1
    438    458     1
    438    977     1
    439    447     1
    439    448     1
    439    975     1
    439    976     1
    440    445     1
    440    446     1
    440    447     1
    440    448     1
    440    457     1
    441    458     1
    442    453     1
    442    454     1
    443    449     1
    443    450     1
    443    951     1
    444    451     1
    444    452     1
    444    977     1
    445    458     1
    445    449     1
    445    450     1
    446    458     1
    446    449     1
    446    450     1
    447    458     1
    447    451     1
    447    452     1
    448    458     1
    448    451     1
    448    452     1
    449    936     1
    450    936     1
    451    962     1
    452    962     1
    453    458     1
    453    455     1
    453    456     1
    454    458     1
    454    455     1
    454    456     1
    455    457     1
    456    457     1
    459    475     1
    459    476     1
    459    477     1
    459    478     1
    459    481     1
    459    482     1
    460    473     1
    460    474     1
    460    479     1
    460    480     1
    461    471     1
    461    472     1
    461    479     1
    461    480     1
    462    484     1
    462   1003     1
    463    471     1
    463    472     1
    463   1001     1
    463   1002     1
    464    484     1
    464   1029     1
    465    473     1
    465    474     1
    465   1027     1
    465   1028     1
    466    471     1
    466    472     1
    466    473     1
    466    474     1
    466    483     1
    467    484     1
    468    479     1
    468    480     1
    469    475     1
    469    476     1
    469   1003     1
    470    477     1
    470    478     1
    470   1029     1
    471    484     1
    471    475     1
    471    476     1
    472    484     1
    472    475     1
    472    476     1
    473    484     1
    473    477     1
    473    478     1
    474    484     1
    474    477     1
    474    478     1
    475    988     1
    476    988     1
    477   1014     1
    478   1014     1
    479    484     1
    479    481     1
    479    482     1
    480    484     1
    480    481     1
    480    482     1
    481    483     1
    482    483     1
    485    501     1
    485    502     1
    485    503     1
    485    504     1
    485    507     1
    485    508     1
    486    499     1
    486    500     1
    486    505     1
    486    506     1
    487    497     1
    487    498     1
    487    505     1
    487    506     1
    488    510     1
    488   1055     1
    489    497     1
    489    498     1
    489   1053     1
    489   1054     1
    490    510     1
    490   1081     1
    491    499     1
    491    500     1
    491   1079     1
    491   1080     1
    492    497     1
    492    498     1
    492    499     1
    492    500     1
    492    509     1
    493    510     1
    494    505     1
    494    506     1
    495    501     1
    495    502     1
    495   1055     1
    496    503     1
    496    504     1
    496   1081     1
    497    510     1
    497    501     1
    497    502     1
    498    510     1
    498    501     1
    498    502     1
    499    510     1
    499    503     1
    499    504     1
    500    510     1
    500    503     1
    500    504     1
    501   1040     1
    502   1040     1
    503   1066     1
    504   1066     1
    505    510     1
    505    507     1
    505    508     1
    506    510     1
    506    507     1
    506    508     1
    507    509     1
    508    509     1
    511    527     1
    511    528     1
    511    529     1
    511    530     1
    511    533     1
    511    534     1
    512    525     1
    512    526     1
    512    531     1
    512    532     1
    513    523     1
    513    524     1
    513    531     1
    513    532     1
    514    536     1
    514   1107     1
    515    523     1
    515    524     1
    515   1105     1
    515   1106     1
    516    536     1
    516   1133     1
    517    525     1
    517    526     1
    517   1131     1
    517   1132     1
    518    523     1
    518    524     1
    518    525     1
    518    526     1
    518    535     1
    519    536     1
    520    531     1
    520    532     1
    521    527     1
    521    528     1
    521   1107     1
    522    529     1
    522    530     1
    522   1133     1
    523    536     1
    523    527     1
    523    528     1
    524    536     1
    524    527     1
    524    528     1
    525    536     1
    525    529     1
    525    530     1
    526    536     1
    526    529     1
    526    530     1
    527   1092     1
    528   1092     1
    529   1118     1
    530   1118     1
    531    536     1
    531    533     1
    531    534     1
    532    536     1
    532    533     1
    532    534     1
    533    535     1
    534    535     1
    537    553     1
    537    554     1
    537    555     1
    537    556     1
    537    559     1
    537    560     1
    538    551     1
    538    552     1
    538    557     1
    538    558     1
    539    549     1
    539    550     1
    539    557     1
    539    558     1
    540    562     1
    540   1159     1
    541    549     1
    541    550     1
    541   1157     1
    541   1158     1
    542    562     1
    542   1185     1
    543    551     1
    543    552     1
    543   1183     1
    543   1184     1
    544    549     1
    544    550     1
    544    551     1
    544    552     1
    544    561     1
    545    562     1
    546    557     1
    546    558     1
    547    553     1
    547    554     1
    547   1159     1
    548    555     1
    548    556     1
    548   1185     1
    549    562     1
    549    553     1
    549    554     1
    550    562     1
    550    553     1
    550    554     1
    551    562     1
    551    555     1
    551    556     1
    552    562     1
    552    555     1
    552    556     1
    553   1144     1
    554   1144     1
    555   1170     1
    556   1170     1
    557    562     1
    557    559     1
    557    560     1
    558    562     1
    558    559     1
    558    560     1
    559    561     1
    560    561     1
    563    579     1
    563    580     1
    563    581     1
    563    582     1
    563    585     1
    563    586     1
    564    577     1
    564    578     1
    564    583     1
    564    584     1
    565    575     1
    565    576     1
    565    583     1
    565    584     1
    566    588     1
    566   1211     1
    567    575     1
    567    576     1
    567   1209     1
    567   1210     1
    568    588     1
    568   1237     1
    569    577     1
    569    578     1
    569   1235     1
    569   1236     1
    570    575     1
    570    576     1
    570    577     1
    570    578     1
    570    587     1
    571    588     1
    572    583     1
    572    584     1
    573    579     1
    573    580     1
    573   1211     1
    574    581     1
    574    582     1
    574   1237     1
    575    588     1
    575    579     1
    575    580     1
    576    588     1
    576    579     1
    576    580     1
    577    588     1
    577    581     1
    577    582     1
    578    588     1
    578    581     1
    578    582     1
    579   1196     1
    580   1196     1
    581   1222     1
    582   1222     1
    583    588     1
    583    585     1
    583    586     1
    584    588     1
    584    585     1
    584    586     1
    585    587     1
    586    587     1
    589    605     1
    589    606     1
    589    607     1
    589    608     1
    589    611     1
    589    612     1
    590    603     1
    590    604     1
    590    609     1
    590    610     1
    591    601     1
    591    602     1
    591    609     1
    591    610     1
    592    614     1
    592   1263     1
    593    601     1
    593    602     1
    593   1261     1
    593   1262     1
    594    614     1
    594   1289     1
    595    603     1
    595    604     1
    595   1287     1
    595   1288     1
    596    601     1
    596    602     1
    596    603     1
    596    604     1
    596    613     1
    597    614     1
    598    609     1
    598    610     1
    599    605     1
    599    606     1
    599   1263     1
    600    607     1
    600    608     1
    600   1289     1
    601    614     1
    601    605     1
    601    606     1
    602    614     1
    602    605     1
    602    606     1
    603    614     1
    603    607     1
    603    608     1
    604    614     1
    604    607     1
    604    608     1
    605   1248     1
    606   1248     1
    607   1274     1
    608   1274     1
    609    614     1
    609    611     1
    609    612     1
    610    614     1
    610    611     1
    610    612     1
    611    613     1
    612    613     1
    615    631     1
    615    632     1
    615    633     1
    615    634     1
    615    637     1
    615    638     1
    616    629     1
    616    630     1
    616    635     1
    616    636     1
    617    627     1
    617    628     1
    617    635     1
    617    636     1
    618    640     1
    618   1315     1
    619    627     1
    619    628     1
    619   1313     1
    619   1314     1
    620    640     1
    620   1341     1
    621    629     1
    621    630     1
    621   1339     1
    621   1340     1
    622    627     1
    622    628     1
    622    629     1
    622    630     1
    622    639     1
    623    640     1
    624    635     1
    624    636     1
    625    631     1
    625    632     1
    625   1315     1
    626    633     1
    626    634     1
    626   1341     1
    627    640     1
    627    631     1
    627    632     1
    628    640     1
    628    631     1
    628    632     1
    629    640     1
    629    633     1
    629    634     1
    630    640     1
    630    633     1
    630    634     1
    631   1300     1
    632   1300     1
    633   1326     1
    634   1326     1
    635    640     1
    635    637     1
    635    638     1
    636    640     1
    636    637     1
    636    638     1
    637    639     1
    638    639     1
    641    657     1
    641    658     1
    641    659     1
    641    660     1
    641    663     1
    641    664     1
    642    655     1
    642    656     1
    642    661     1
    642    662     1
    643    653     1
    643    654     1
    643    661     1
    643    662     1
    644    666     1
    644   1367     1
    645    653     1
    645    654     1
    645   1365     1
    645   1366     1
    646    666     1
    646   1393     1
    647    655     1
    647    656     1
    647   1391     1
    647   1392     1
    648    653     1
    648    654     1
    648    655     1
    648    656     1
    648    665     1
    649    666     1
    650    661     1
    650    662     1
    651    657     1
    651    658     1
    651   1367     1
    652    659     1
    652    660     1
    652   1393     1
    653    666     1
    653    657     1
    653    658     1
    654    666     1
    654    657     1
    654    658     1
    655    666     1
    655    659     1
    655    660     1
    656    666     1
    656    659     1
    656    660     1
    657   1352     1
    658   1352     1
    659   1378     1
    660   1378     1
    661    666     1
    661    663     1
    661    664     1
    662    666     1
    662    663     1
    662    664     1
    663    665     1
    664    665     1
    667    683     1
    667    684     1
    667    685     1
    667    686     1
    667    689     1
    667    690     1
    668    681     1
    668    682     1
    668    687     1
    668    688     1
    669    679     1
    669    680     1
    669    687     1
    669    688     1
    670    692     1
    670   1419     1
    671    679     1
    671    680     1
    671   1417     1
    671   1418     1
    672    692     1
    672   1445     1
    673    681     1
    673    682     1
    673   1443     1
    673   1444     1
    674    679     1
    674    680     1
    674    681     1
    674    682     1
    674    691     1
    675    692     1
    676    687     1
    676    688     1
    677    683     1
    677    684     1
    677   1419     1
    678    685     1
    678    686     1
    678   1445     1
    679    692     1
    679    683     1
    679    684     1
    680    692     1
    680    683     1
    680    684     1
    681    692     1
    681    685     1
    681    686     1
    682    692     1
    682    685     1
    682    686     1
    683   1404     1
    684   1404     1
    685   1430     1
    686   1430     1
    687    692     1
    687    689     1
    687    690     1
    688    692     1
    688    689     1
    688    690     1
    689    691     1
    690    691     1
    693    709     1
    693    710     1
    693    711     1
    693    712     1
    693    715     1
    693    716     1
    694    707     1
    694    708     1
    694    713     1
    694    714     1
    695    705     1
    695    706     1
    695    713     1
    695    714     1
    696    718     1
    696   1471     1
    697    705     1
    697    706     1
    697   1469     1
    697   1470     1
    698    718     1
    698   1497     1
    699    707     1
    699    708     1
    699   1495     1
    699   1496     1
    700    705     1
    700    706     1
    700    707     1
    700    708     1
    700    717     1
    701    718     1
    702    713     1
    702    714     1
    703    709     1
    703    710     1
    703   1471     1
    704    711     1
    704    712     1
    704   1497     1
    705    718     1
    705    709     1
    705    710     1
    706    718     1
    706    709     1
    706    710     1
    707    718     1
    707    711     1
    707    712     1
    708    718     1
    708    711     1
    708    712     1
    709   1456     1
    710   1456     1
    711   1482     1
    712   1482     1
    713    718     1
    713    715     1
    713    716     1
    714    718     1
    714    715     1
    714    716     1
    715    717     1
    716    717     1
    719    735     1
    719    736     1
    719    737     1
    719    738     1
    719    741     1
    719    742     1
    720    733     1
    720    734     1
    720    739     1
    720    740     1
    721    731     1
    721    732     1
    721    739     1
    721    740     1
    722    744     1
    722   1523     1
    723    731     1
    723    732     1
    723   1521     1
    723   1522     1
    724    744     1
    724   1549     1
    725    733     1
    725    734     1
    725   1547     1
    725   1548     1
    726    731     1
    726    732     1
    726    733     1
    726    734     1
    726    743     1
    727    744     1
    728    739     1
    728    740     1
    729    735     1
    729    736     1
    729   1523     1
    730    737     1
    730    738     1
    730   1549     1
    731    744     1
    731    735     1
    731    736     1
    732    744     1
    732    735     1
    732    736     1
    733    744     1
    733    737     1
    733    738     1
    734    744     1
    734    737     1
    734    738     1
    735   1508     1
    736   1508     1
    737   1534     1
    738   1534     1
    739    744     1
    739    741     1
    739    742     1
    740    744     1
    740    741     1
    740    742     1
    741    743     1
    742    743     1
    745    761     1
    745    762     1
    745    763     1
    745    764     1
    745    767     1
    745    768     1
    746    759     1
    746    760     1
    746    765     1
    746    766     1
    747    757     1
    747    758     1
    747    765     1
    747    766     1
    748    770     1
    748   1575     1
    749    757     1
    749    758     1
    749   1573     1
    749   1574     1
    750    770     1
    750   1601     1
    751    759     1
    751    760     1
    751   1599     1
    751   1600     1
    752    757     1
    752    758     1
    752    759     1
    752    760     1
    752    769     1
    753    770     1
    754    765     1
    754    766     1
    755    761     1
    755    762     1
    755   1575     1
    756    763     1
    756    764     1
    756   1601     1
    757    770     1
    757    761     1
    757    762     1
    758    770     1
    758    761     1
    758    762     1
    759    770     1
    759    763     1
    759    764     1
    760    770     1
    760    763     1
    760    764     1
    761   1560     1
    762   1560     1
    763   1586     1
    764   1586     1
    765    770     1
    765    767     1
    765    768     1
    766    770     1
    766    767     1
    766    768     1
    767    769     1
    768    769     1
    771    787     1
    771    788     1
    771    789     1
    771    790     1
    771    793     1
    771    794     1
    772    785     1
    772    786     1
    772    791     1
    772    792     1
    773    783     1
    773    784     1
    773    791     1
    773    792     1
    774    796     1
    774   1604     1
    775    783     1
    775    784     1
    775   1607     1
    775   1608     1
    776    796     1
    776   1616     1
    777    785     1
    777    786     1
    777   1619     1
    777   1620     1
    778    783     1
    778    784     1
    778    785     1
    778    786     1
    778    795     1
    779    796     1
    780    791     1
    780    792     1
    781    787     1
    781    788     1
    781   1604     1
    782    789     1
    782    790     1
    782   1616     1
    783    796     1
    783    787     1
    783    788     1
    784    796     1
    784    787     1
    784    788     1
    785    796     1
    785    789     1
    785    790     1
    786    796     1
    786    789     1
    786    790     1
    787   1603     1
    788   1603     1
    789   1615     1
    790   1615     1
    791    796     1
    791    793     1
    791    794     1
    792    796     1
    792    793     1
    792    794     1
    793    795     1
    794    795     1
    797    813     1
    797    814     1
    797    815     1
    797    816     1
    797    819     1
    797    820     1
    798    811     1
    798    812     1
    798    817     1
    798    818     1
    799    809     1
    799    810     1
    799    817     1
    799    818     1
    800    822     1
    800   1628     1
    801    809     1
    801    810     1
    801   1631     1
    801   1632     1
    802    822     1
    802   1640     1
    803    811     1
    803    812     1
    803   1643     1
    803   1644     1
    804    809     1
    804    810     1
    804    811     1
    804    812     1
    804    821     1
    805    822     1
    806    817     1
    806    818     1
    807    813     1
    807    814     1
    807   1628     1
    808    815     1
    808    816     1
    808   1640     1
    809    822     1
    809    813     1
    809    814     1
    810    822     1
    810    813     1
    810    814     1
    811    822     1
    811    815     1
    811    816     1
    812    822     1
    812    815     1
    812    816     1
    813   1627     1
    814   1627     1
    815   1639     1
    816   1639     1
    817    822     1
    817    819     1
    817    820     1
    818    822     1
    818    819     1
    818    820     1
    819    821     1
    820    821     1
    823    839     1
    823    840     1
    823    841     1
    823    842     1
    823    845     1
    823    846     1
    824    837     1
    824    838     1
    824    843     1
    824    844     1
    825    835     1
    825    836     1
    825    843     1
    825    844     1
    826    848     1
    826   1652     1
    827    835     1
    827    836     1
    827   1655     1
    827   1656     1
    828    848     1
    828   1664     1
    829    837     1
    829    838     1
    829   1667     1
    829   1668     1
    830    835     1
    830    836     1
    830    837     1
    830    838     1
    830    847     1
    831    848     1
    832    843     1
    832    844     1
    833    839     1
    833    840     1
    833   1652     1
    834    841     1
    834    842     1
    834   1664     1
    835    848     1
    835    839     1
    835    840     1
    836    848     1
    836    839     1
    836    840     1
    837    848     1
    837    841     1
    837    842     1
    838    848     1
    838    841     1
    838    842     1
    839   1651     1
    840   1651     1
    841   1663     1
    842   1663     1
    843    848     1
    843    845     1
    843    846     1
    844    848     1
    844    845     1
    844    846     1
    845    847     1
    846    847     1
    849    865     1
    849    866     1
    849    867     1
    849    868     1
    849    871     1
    849    872     1
    850    863     1
    850    864     1
    850    869     1
    850    870     1
    851    861     1
    851    862     1
    851    869     1
    851    870     1
    852    874     1
    852   1676     1
    853    861     1
    853    862     1
    853   1679     1
    853   1680     1
    854    874     1
    854   1688     1
    855    863     1
    855    864     1
    855   1691     1
    855   1692     1
    856    861     1
    856    862     1
    856    863     1
    856    864     1
    856    873     1
    857    874     1
    858    869     1
    858    870     1
    859    865     1
    859    866     1
    859   1676     1
    860    867     1
    860    868     1
    860   1688     1
    861    874     1
    861    865     1
    861    866     1
    862    874     1
    862    865     1
    862    866     1
    863    874     1
    863    867     1
    863    868     1
    864    874     1
    864    867     1
    864    868     1
    865   1675     1
    866   1675     1
    867   1687     1
    868   1687     1
    869    874     1
    869    871     1
    869    872     1
    870    874     1
    870    871     1
    870    872     1
    871    873     1
    872    873     1
    875    891     1
    875    892     1
    875    893     1
    875    894     1
    875    897     1
    875    898     1
    876    889     1
    876    890     1
    876    895     1
    876    896     1
    877    887     1
    877    888     1
    877    895     1
    877    896     1
    878    900     1
    878   1700     1
    879    887     1
    879    888     1
    879   1703     1
    879   1704     1
    880    900     1
    880   1712     1
    881    889     1
    881    890     1
    881   1715     1
    881   1716     1
    882    887     1
    882    888     1
    882    889     1
    882    890     1
    882    899     1
    883    900     1
    884    895     1
    884    896     1
    885    891     1
    885    892     1
    885   1700     1
    886    893     1
    886    894     1
    886   1712     1
    887    900     1
    887    891     1
    887    892     1
    888    900     1
    888    891     1
    888    892     1
    889    900     1
    889    893     1
    889    894     1
    890    900     1
    890    893     1
    890    894     1
    891   1699     1
    892   1699     1
    893   1711     1
    894   1711     1
    895    900     1
    895    897     1
    895    898     1
    896    900     1
    896    897     1
    896    898     1
    897    899     1
    898    899     1
    901    917     1
    901    918     1
    901    919     1
    901    920     1
    901    923     1
    901    924     1
    902    915     1
    902    916     1
    902    921     1
    902    922     1
    903    913     1
    903    914     1
    903    921     1
    903    922     1
    904    926     1
    904   1724     1
    905    913     1
    905    914     1
    905   1727     1
    905   1728     1
    906    926     1
    906   1736     1
    907    915     1
    907    916     1
    907   1739     1
    907   1740     1
    908    913     1
    908    914     1
    908    915     1
    908    916     1
    908    925     1
    909    926     1
    910    921     1
    910    922     1
    911    917     1
    911    918     1
    911   1724     1
    912    919     1
    912    920     1
    912   1736     1
    913    926     1
    913    917     1
    913    918     1
    914    926     1
    914    917     1
    914    918     1
    915    926     1
    915    919     1
    915    920     1
    916    926     1
    916    919     1
    916    920     1
    917   1723     1
    918   1723     1
    919   1735     1
    920   1735     1
    921    926     1
    921    923     1
    921    924     1
    922    926     1
    922    923     1
    922    924     1
    923    925     1
    924    925     1
    927    943     1
    927    944     1
    927    945     1
    927    946     1
    927    949     1
    927    950     1
    928    941     1
    928    942     1
    928    947     1
    928    948     1
    929    939     1
    929    940     1
    929    947     1
    929    948     1
    930    952     1
    930   1748     1
    931    939     1
    931    940     1
    931   1751     1
    931   1752     1
    932    952     1
    932   1760     1
    933    941     1
    933    942     1
    933   1763     1
    933   1764     1
    934    939     1
    934    940     1
    934    941     1
    934    942     1
    934    951     1
    935    952     1
    936    947     1
    936    948     1
    937    943     1
    937    944     1
    937   1748     1
    938    945     1
    938    946     1
    938   1760     1
    939    952     1
    939    943     1
    939    944     1
    940    952     1
    940    943     1
    940    944     1
    941    952     1
    941    945     1
    941    946     1
    942    952     1
    942    945     1
    942    946     1
    943   1747     1
    944   1747     1
    945   1759     1
    946   1759     1
    947    952     1
    947    949     1
    947    950     1
    948    952     1
    948    949     1
    948    950     1
    949    951     1
    950    951     1
    953    969     1
    953    970     1
    953    971     1
    953    972     1
    953    975     1
    953    976     1
    954    967     1
    954    968     1
    954    973     1
    954    974     1
    955    965     1
    955    966     1
    955    973     1
    955    974     1
    956    978     1
    956   1772     1
    957    965     1
    957    966     1
    957   1775     1
    957   1776     1
    958    978     1
    958   1784     1
    959    967     1
    959    968     1
    959   1787     1
    959   1788     1
    960    965     1
    960    966     1
    960    967     1
    960    968     1
    960    977     1
    961    978     1
    962    973     1
    962    974     1
    963    969     1
    963    970     1
    963   1772     1
    964    971     1
    964    972     1
    964   1784     1
    965    978     1
    965    969     1
    965    970     1
    966    978     1
    966    969     1
    966    970     1
    967    978     1
    967    971     1
    967    972     1
    968    978     1
    968    971     1
    968    972     1
    969   1771     1
    970   1771     1
    971   1783     1
    972   1783     1
    973    978     1
    973    975     1
    973    976     1
    974    978     1
    974    975     1
    974    976     1
    975    977     1
    976    977     1
    979    995     1
    979    996     1
    979    997     1
    979    998     1
    979   1001     1
    979   1002     1
    980    993     1
    980    994     1
    980    999     1
    980   1000     1
    981    991     1
    981    992     1
    981    999     1
    981   1000     1
    982   1004     1
    982   1796     1
    983    991     1
    983    992     1
    983   1799     1
    983   1800     1
    984   1004     1
    984   1808     1
    985    993     1
    985    994     1
    985   1811     1
    985   1812     1
    986    991     1
    986    992     1
    986    993     1
    986    994     1
    986   1003     1
    987   1004     1
    988    999     1
    988   1000     1
    989    995     1
    989    996     1
    989   1796     1
    990    997     1
    990    998     1
    990   1808     1
    991   1004     1
    991    995     1
    991    996     1
    992   1004     1
    992    995     1
    992    996     1
    993   1004     1
    993    997     1
    993    998     1
    994   1004     1
    994    997     1
    994    998     1
    995   1795     1
    996   1795     1
    997   1807     1
    998   1807     1
    999   1004     1
    999   1001     1
    999   1002     1
   1000   1004     1
   1000   1001     1
   1000   1002     1
   1001   1003     1
   1002   1003     1
   1005   1021     1
   1005   1022     1
   1005   1023     1
   1005   1024     1
   1005   1027     1
   1005   1028     1
   1006   1019     1
   1006   1020     1
   1006   1025     1
   1006   1026     1
   1007   1017     1
   1007   1018     1
   1007   1025     1
   1007   1026     1
   1008   1030     1
   1008   1820     1
   1009   1017     1
   1009   1018     1
   1009   1823     1
   1009   1824     1
   1010   1030     1
   1010   1832     1
   1011   1019     1
   1011   1020     1
   1011   1835     1
   1011   1836     1
   1012   1017     1
   1012   1018     1
   1012   1019     1
   1012   1020     1
   1012   1029     1
   1013   1030     1
   1014   1025     1
   1014   1026     1
   1015   1021     1
   1015   1022     1
   1015   1820     1
   1016   1023     1
   1016   1024     1
   1016   1832     1
   1017   1030     1
   1017   1021     1
   1017   1022     1
   1018   1030     1
   1018   1021     1
   1018   1022     1
   1019   1030     1
   1019   1023     1
   1019   1024     1
   1020   1030     1
   1020   1023     1
   1020   1024     1
   1021   1819     1
   1022   1819     1
   1023   1831     1
   1024   1831     1
   1025   1030     1
   1025   1027     1
   1025   1028     1
   1026   1030     1
   1026   1027     1
   1026   1028     1
   1027   1029     1
   1028   1029     1
   1031   1047     1
   1031   1048     1
   1031   1049     1
   1031   1050     1
   1031   1053     1
   1031   1054     1
   1032   1045     1
   1032   1046     1
   1032   1051     1
   1032   1052     1
   1033   1043     1
   1033   1044     1
   1033   1051     1
   1033   1052     1
   1034   1056     1
   1034   1844     1
   1035   1043     1
   1035   1044     1
   1035   1847     1
   1035   1848     1
   1036   1056     1
   1036   1856     1
   1037   1045     1
   1037   1046     1
   1037   1859     1
   1037   1860     1
   1038   1043     1
   1038   1044     1
   1038   1045     1
   1038   1046     1
   1038   1055     1
   1039   1056     1
   1040   1051     1
   1040   1052     1
   1041   1047     1
   1041   1048     1
   1041   1844     1
   1042   1049     1
   1042   1050     1
   1042   1856     1
   1043   1056     1
   1043   1047     1
   1043   1048     1
   1044   1056     1
   1044   1047     1
   1044   1048     1
   1045   1056     1
   1045   1049     1
   1045   1050     1
   1046   1056     1
   1046   1049     1
   1046   1050     1
   1047   1843     1
   1048   1843     1
   1049   1855     1
   1050   1855     1
   1051   1056     1
   1051   1053     1
   1051   1054     1
   1052   1056     1
   1052   1053     1
   1052   1054     1
   1053   1055     1
   1054   1055     1
   1057   1073     1
   1057   1074     1
   1057   1075     1
   1057   1076     1
   1057   1079     1
   1057   1080     1
   1058   1071     1
   1058   1072     1
   1058   1077     1
   1058   1078     1
   1059   1069     1
   1059   1070     1
   1059   1077     1
   1059   1078     1
   1060   1082     1
   1060   1868     1
   1061   1069     1
   1061   1070     1
   1061   1871     1
   1061   1872     1
   1062   1082     1
   1062   1880     1
   1063   1071     1
   1063   1072     1
   1063   1883     1
   1063   1884     1
   1064   1069     1
   1064   1070     1
   1064   1071     1
   1064   1072     1
   1064   1081     1
   1065   1082     1
   1066   1077     1
   1066   1078     1
   1067   1073     1
   1067   1074     1
   1067   1868     1
   1068   1075     1
   1068   1076     1
   1068   1880     1
   1069   1082     1
   1069   1073     1
   1069   1074     1
   1070   1082     1
   1070   1073     1
   1070   1074     1
   1071   1082     1
   1071   1075     1
   1071   1076     1
   1072   1082     1
   1072   1075     1
   1072   1076     1
   1073   1867     1
   1074   1867     1
   1075   1879     1
   1076   1879     1
   1077   1082     1
   1077   1079     1
   1077   1080     1
   1078   1082     1
   1078   1079     1
   1078   1080     1
   1079   1081     1
   1080   1081     1
   1083   1099     1
   1083   1100     1
   1083   1101     1
   1083   1102     1
   1083   1105     1
   1083   1106     1
   1084   1097     1
   1084   1098     1
   1084   1103     1
   1084   1104     1
   1085   1095     1
   1085   1096     1
   1085   1103     1
   1085   1104     1
   1086   1108     1
   1086   1892     1
   1087   1095     1
   1087   1096     1
   1087   1895     1
   1087   1896     1
   1088   1108     1
   1088   1904     1
   1089   1097     1
   1089   1098     1
   1089   1907     1
   1089   1908     1
   1090   1095     1
   1090   1096     1
   1090   1097     1
   1090   1098     1
   1090   1107     1
   1091   1108     1
   1092   1103     1
   1092   1104     1
   1093   1099     1
   1093   1100     1
   1093   1892     1
   1094   1101     1
   1094   1102     1
   1094   1904     1
   1095   1108     1
   1095   1099     1
   1095   1100     1
   1096   1108     1
   1096   1099     1
   1096   1100     1
   1097   1108     1
   1097   1101     1
   1097   1102     1
   1098   1108     1
   1098   1101     1
   1098   1102     1
   1099   1891     1
   1100   1891     1
   1101   1903     1
   1102   1903     1
   1103   1108     1
   1103   1105     1
   1103   1106     1
   1104   1108     1
   1104   1105     1
   1104   1106     1
   1105   1107     1
   1106   1107     1
   1109   1125     1
   1109   1126     1
   1109   1127     1
   1109   1128     1
   1109   1131     1
   1109   1132     1
   1110   1123     1
   1110   1124     1
   1110   1129     1
   1110   1130     1
   1111   1121     1
   1111   1122     1
   1111   1129     1
   1111   1130     1
   1112   1134     1
   1112   1916     1
   1113   1121     1
   1113   1122     1
   1113   1919     1
   1113   1920     1
   1114   1134     1
   1114   1928     1
   1115   1123     1
   1115   1124     1
   1115   1931     1
   1115   1932     1
   1116   1121     1
   1116   1122     1
   1116   1123     1
   1116   1124     1
   1116   1133     1
   1117   1134     1
   1118   1129     1
   1118   1130     1
   1119   1125     1
   1119   1126     1
   1119   1916     1
   1120   1127     1
   1120   1128     1
   1120   1928     1
   1121   1134     1
   1121   1125     1
   1121   1126     1
   1122   1134     1
   1122   1125     1
   1122   1126     1
   1123   1134     1
   1123   1127     1
   1123   1128     1
   1124   1134     1
   1124   1127     1
   1124   1128     1
   1125   1915     1
   1126   1915     1
   1127   1927     1
   1128   1927     1
   1129   1134     1
   1129   1131     1
   1129   1132     1
   1130   1134     1
   1130   1131     1
   1130   1132     1
   1131   1133     1
   1132   1133     1
   1135   1151     1
   1135   1152     1
   1135   1153     1
   1135   1154     1
   1135   1157     1
   1135   1158     1
   1136   1149     1
   1136   1150     1
   1136   1155     1
   1136   1156     1
   1137   1147     1
   1137   1148     1
   1137   1155     1
   1137   1156     1
   1138   1160     1
   1138   1940     1
   1139   1147     1
   1139   1148     1
   1139   1943     1
   1139   1944     1
   1140   1160     1
   1140   1952     1
   1141   1149     1
   1141   1150     1
   1141   1955     1
   1141   1956     1
   1142   1147     1
   1142   1148     1
   1142   1149     1
   1142   1150     1
   1142   1159     1
   1143   1160     1
   1144   1155     1
   1144   1156     1
   1145   1151     1
   1145   1152     1
   1145   1940     1
   1146   1153     1
   1146   1154     1
   1146   1952     1
   1147   1160     1
   1147   1151     1
   1147   1152     1
   1148   1160     1
   1148   1151     1
   1148   1152     1
   1149   1160     1
   1149   1153     1
   1149   1154     1
   1150   1160     1
   1150   1153     1
   1150   1154     1
   1151   1939     1
   1152   1939     1
   1153   1951     1
   1154   1951     1
   1155   1160     1
   1155   1157     1
   1155   1158     1
   1156   1160     1
   1156   1157     1
   1156   1158     1
   1157   1159     1
   1158   1159     1
   1161   1177     1
   1161   1178     1
   1161   1179     1
   1161   1180     1
   1161   1183     1
   1161   1184     1
   1162   1175     1
   1162   1176     1
   1162   1181     1
   1162   1182     1
   1163   1173     1
   1163   1174     1
   1163   1181     1
   1163   1182     1
   1164   1186     1
   1164   1964     1
   1165   1173     1
   1165   1174     1
   1165   1967     1
   1165   1968     1
   1166   1186     1
   1166   1976     1
   1167   1175     1
   1167   1176     1
   1167   1979     1
   1167   1980     1
   1168   1173     1
   1168   1174     1
   1168   1175     1
   1168   1176     1
   1168   1185     1
   1169   1186     1
   1170   1181     1
   1170   1182     1
   1171   1177     1
   1171   1178     1
   1171   1964     1
   1172   1179     1
   1172   1180     1
   1172   1976     1
   1173   1186     1
   1173   1177     1
   1173   1178     1
   1174   1186     1
   1174   1177     1
   1174   1178     1
   1175   1186     1
   1175   1179     1
   1175   1180     1
   1176   1186     1
   1176   1179     1
   1176   1180     1
   1177   1963     1
   1178   1963     1
   1179   1975     1
   1180   1975     1
   1181   1186     1
   1181   1183     1
   1181   1184     1
   1182   1186     1
   1182   1183     1
   1182   1184     1
   1183   1185     1
   1184   1185     1
   1187   1203     1
   1187   1204     1
   1187   1205     1
   1187   1206     1
   1187   1209     1
   1187   1210     1
   1188   1201     1
   1188   1202     1
   1188   1207     1
   1188   1208     1
   1189   1199     1
   1189   1200     1
   1189   1207     1
   1189   1208     1
   1190   1212     1
   1190   1988     1
   1191   1199     1
   1191   1200     1
   1191   1991     1
   1191   1992     1
   1192   1212     1
   1192   2000     1
   1193   1201     1
   1193   1202     1
   1193   2003     1
   1193   2004     1
   1194   1199     1
   1194   1200     1
   1194   1201     1
   1194   1202     1
   1194   1211     1
   1195   1212     1
   1196   1207     1
   1196   1208     1
   1197   1203     1
   1197   1204     1
   1197   1988     1
   1198   1205     1
   1198   1206     1
   1198   2000     1
   1199   1212     1
   1199   1203     1
   1199   1204     1
   1200   1212     1
   1200   1203     1
   1200   1204     1
   1201   1212     1
   1201   1205     1
   1201   1206     1
   1202   1212     1
   1202   1205     1
   1202   1206     1
   1203   1987     1
   1204   1987     1
   1205   1999     1
   1206   1999     1
   1207   1212     1
   1207   1209     1
   1207   1210     1
   1208   1212     1
   1208   1209     1
   1208   1210     1
   1209   1211     1
   1210   1211     1
   1213   1229     1
   1213   1230     1
   1213   1231     1
   1213   1232     1
   1213   1235     1
   1213   1236     1
   1214   1227     1
   1214   1228     1
   1214   1233     1
   1214   1234     1
   1215   1225     1
   1215   1226     1
   1215   1233     1
   1215   1234     1
   1216   1238     1
   1216   2012     1
   1217   1225     1
   1217   1226     1
   1217   2015     1
   1217   2016     1
   1218   1238     1
   1218   2024     1
   1219   1227     1
   1219   1228     1
   1219   2027     1
   1219   2028     1
   1220   1225     1
   1220   1226     1
   1220   1227     1
   1220   1228     1
   1220   1237     1
   1221   1238     1
   1222   1233     1
   1222   1234     1
   1223   1229     1
   1223   1230     1
   1223   2012     1
   1224   1231     1
   1224   1232     1
   1224   2024     1
   1225   1238     1
   1225   1229     1
   1225   1230     1
   1226   1238     1
   1226   1229     1
   1226   1230     1
   1227   1238     1
   1227   1231     1
   1227   1232     1
   1228   1238     1
   1228   1231     1
   1228   1232     1
   1229   2011     1
   1230   2011     1
   1231   2023     1
   1232   2023     1
   1233   1238     1
   1233   1235     1
   1233   1236     1
   1234   1238     1
   1234   1235     1
   1234   1236     1
   1235   1237     1
   1236   1237     1
   1239   1255     1
   1239   1256     1
   1239   1257     1
   1239   1258     1
   1239   1261     1
   1239   1262     1
   1240   1253     1
   1240   1254     1
   1240   1259     1
   1240   1260     1
   1241   1251     1
   1241   1252     1
   1241   1259     1
   1241   1260     1
   1242   1264     1
   1242   2036     1
   1243   1251     1
   1243   1252     1
   1243   2039     1
   1243   2040     1
   1244   1264     1
   1244   2048     1
   1245   1253     1
   1245   1254     1
   1245   2051     1
   1245   2052     1
   1246   1251     1
   1246   1252     1
   1246   1253     1
   1246   1254     1
   1246   1263     1
   1247   1264     1
   1248   1259     1
   1248   1260     1
   1249   1255     1
   1249   1256     1
   1249   2036     1
   1250   1257     1
   1250   1258     1
   1250   2048     1
   1251   1264     1
   1251   1255     1
   1251   1256     1
   1252   1264     1
   1252   1255     1
   1252   1256     1
   1253   1264     1
   1253   1257     1
   1253   1258     1
   1254   1264     1
   1254   1257     1
   1254   1258     1
   1255   2035     1
   1256   2035     1
   1257   2047     1
   1258   2047     1
   1259   1264     1
   1259   1261     1
   1259   1262     1
   1260   1264     1
   1260   1261     1
   1260   1262     1
   1261   1263     1
   1262   1263     1
   1265   1281     1
   1265   1282     1
   1265   1283     1
   1265   1284     1
   1265   1287     1
   1265   1288     1
   1266   1279     1
   1266   1280     1
   1266   1285     1
   1266   1286     1
   1267   1277     1
   1267   1278     1
   1267   1285     1
   1267   1286     1
   1268   1290     1
   1268   2060     1
   1269   1277     1
   1269   1278     1
   1269   2063     1
   1269   2064     1
   1270   1290     1
   1270   2072     1
   1271   1279     1
   1271   1280     1
   1271   2075     1
   1271   2076     1
   1272   1277     1
   1272   1278     1
   1272   1279     1
   1272   1280     1
   1272   1289     1
   1273   1290     1
   1274   1285     1
   1274   1286     1
   1275   1281     1
   1275   1282     1
   1275   2060     1
   1276   1283     1
   1276   1284     1
   1276   2072     1
   1277   1290     1
   1277   1281     1
   1277   1282     1
   1278   1290     1
   1278   1281     1
   1278   1282     1
   1279   1290     1
   1279   1283     1
   1279   1284     1
   1280   1290     1
   1280   1283     1
   1280   1284     1
   1281   2059     1
   1282   2059     1
   1283   2071     1
   1284   2071     1
   1285   1290     1
   1285   1287     1
   1285   1288     1
   1286   1290     1
   1286   1287     1
   1286   1288     1
   1287   1289     1
   1288   1289     1
   1291   1307     1
   1291   1308     1
   1291   1309     1
   1291   1310     1
   1291   1313     1
   1291   1314     1
   1292   1305     1
   1292   1306     1
   1292   1311     1
   1292   1312     1
   1293   1303     1
   1293   1304     1
   1293   1311     1
   1293   1312     1
   1294   1316     1
   1294   2084     1
   1295   1303     1
   1295   1304     1
   1295   2087     1
   1295   2088     1
   1296   1316     1
   1296   2096     1
   1297   1305     1
   1297   1306     1
   1297   2099     1
   1297   2100     1
   1298   1303     1
   1298   1304     1
   1298   1305     1
   1298   1306     1
   1298   1315     1
   1299   1316     1
   1300   1311     1
   1300   1312     1
   1301   1307     1
   1301   1308     1
   1301   2084     1
   1302   1309     1
   1302   1310     1
   1302   2096     1
   1303   1316     1
   1303   1307     1
   1303   1308     1
   1304   1316     1
   1304   1307     1
   1304   1308     1
   1305   1316     1
   1305   1309     1
   1305   1310     1
   1306   1316     1
   1306   1309     1
   1306   1310     1
   1307   2083     1
   1308   2083     1
   1309   2095     1
   1310   2095     1
   1311   1316     1
   1311   1313     1
   1311   1314     1
   1312   1316     1
   1312   1313     1
   1312   1314     1
   1313   1315     1
   1314   1315     1
   1317   1333     1
   1317   1334     1
   1317   1335     1
   1317   1336     1
   1317   1339     1
   1317   1340     1
   1318   1331     1
   1318   1332     1
   1318   1337     1
   1318   1338     1
   1319   1329     1
   1319   1330     1
   1319   1337     1
   1319   1338     1
   1320   1342     1
   1320   2108     1
   1321   1329     1
   1321   1330     1
   1321   2111     1
   1321   2112     1
   1322   1342     1
   1322   2120     1
   1323   1331     1
   1323   1332     1
   1323   2123     1
   1323   2124     1
   1324   1329     1
   1324   1330     1
   1324   1331     1
   1324   1332     1
   1324   1341     1
   1325   1342     1
   1326   1337     1
   1326   1338     1
   1327   1333     1
   1327   1334     1
   1327   2108     1
   1328   1335     1
   1328   1336     1
   1328   2120     1
   1329   1342     1
   1329   1333     1
   1329   1334     1
   1330   1342     1
   1330   1333     1
   1330   1334     1
   1331   1342     1
   1331   1335     1
   1331   1336     1
   1332   1342     1
   1332   1335     1
   1332   1336     1
   1333   2107     1
   1334   2107     1
   1335   2119     1
   1336   2119     1
   1337   1342     1
   1337   1339     1
   1337   1340     1
   1338   1342     1
   1338   1339     1
   1338   1340     1
   1339   1341     1
   1340   1341     1
   1343   1359     1
   1343   1360     1
   1343   1361     1
   1343   1362     1
   1343   1365     1
   1343   1366     1
   1344   1357     1
   1344   1358     1
   1344   1363     1
   1344   1364     1
   1345   1355     1
   1345   1356     1
   1345   1363     1
   1345   1364     1
   1346   1368     1
   1346   2132     1
   1347   1355     1
   1347   1356     1
   1347   2135     1
   1347   2136     1
   1348   1368     1
   1348   2144     1
   1349   1357     1
   1349   1358     1
   1349   2147     1
   1349   2148     1
   1350   1355     1
   1350   1356     1
   1350   1357     1
   1350   1358     1
   1350   1367     1
   1351   1368     1
   1352   1363     1
   1352   1364     1
   1353   1359     1
   1353   1360     1
   1353   2132     1
   1354   1361     1
   1354   1362     1
   1354   2144     1
   1355   1368     1
   1355   1359     1
   1355   1360     1
   1356   1368     1
   1356   1359     1
   1356   1360     1
   1357   1368     1
   1357   1361     1
   1357   1362     1
   1358   1368     1
   1358   1361     1
   1358   1362     1
   1359   2131     1
   1360   2131     1
   1361   2143     1
   1362   2143     1
   1363   1368     1
   1363   1365     1
   1363   1366     1
   1364   1368     1
   1364   1365     1
   1364   1366     1
   1365   1367     1
   1366   1367     1
   1369   1385     1
   1369   1386     1
   1369   1387     1
   1369   1388     1
   1369   1391     1
   1369   1392     1
   1370   1383     1
   1370   1384     1
   1370   1389     1
   1370   1390     1
   1371   1381     1
   1371   1382     1
   1371   1389     1
   1371   1390     1
   1372   1394     1
   1372   2156     1
   1373   1381     1
   1373   1382     1
   1373   2159     1
   1373   2160     1
   1374   1394     1
   1374   2168     1
   1375   1383     1
   1375   1384     1
   1375   2171     1
   1375   2172     1
   1376   1381     1
   1376   1382     1
   1376   1383     1
   1376   1384     1
   1376   1393     1
   1377   1394     1
   1378   1389     1
   1378   1390     1
   1379   1385     1
   1379   1386     1
   1379   2156     1
   1380   1387     1
   1380   1388     1
   1380   2168     1
   1381   1394     1
   1381   1385     1
   1381   1386     1
   1382   1394     1
   1382   1385     1
   1382   1386     1
   1383   1394     1
   1383   1387     1
   1383   1388     1
   1384   1394     1
   1384   1387     1
   1384   1388     1
   1385   2155     1
   1386   2155     1
   1387   2167     1
   1388   2167     1
   1389   1394     1
   1389   1391     1
   1389   1392     1
   1390   1394     1
   1390   1391     1
   1390   1392     1
   1391   1393     1
   1392   1393     1
   1395   1411     1
   1395   1412     1
   1395   1413     1
   1395   1414     1
   1395   1417     1
   1395   1418     1
   1396   1409     1
   1396   1410     1
   1396   1415     1
   1396   1416     1
   1397   1407     1
   1397   1408     1
   1397   1415     1
   1397   1416     1
   1398   1420     1
   1398   2180     1
   1399   1407     1
   1399   1408     1
   1399   2183     1
   1399   2184     1
   1400   1420     1
   1400   2192     1
   1401   1409     1
   1401   1410     1
   1401   2195     1
   1401   2196     1
   1402   1407     1
   1402   1408     1
   1402   1409     1
   1402   1410     1
   1402   1419     1
   1403   1420     1
   1404   1415     1
   1404   1416     1
   1405   1411     1
   1405   1412     1
   1405   2180     1
   1406   1413     1
   1406   1414     1
   1406   2192     1
   1407   1420     1
   1407   1411     1
   1407   1412     1
   1408   1420     1
   1408   1411     1
   1408   1412     1
   1409   1420     1
   1409   1413     1
   1409   1414     1
   1410   1420     1
   1410   1413     1
   1410   1414     1
   1411   2179     1
   1412   2179     1
   1413   2191     1
   1414   2191     1
   1415   1420     1
   1415   1417     1
   1415   1418     1
   1416   1420     1
   1416   1417     1
   1416   1418     1
   1417   1419     1
   1418   1419     1
   1421   1437     1
   1421   1438     1
   1421   1439     1
   1421   1440     1
   1421   1443     1
   1421   1444     1
   1422   1435     1
   1422   1436     1
   1422   1441     1
   1422   1442     1
   1423   1433     1
   1423   1434     1
   1423   1441     1
   1423   1442     1
   1424   1446     1
   1424   2204     1
   1425   1433     1
   1425   1434     1
   1425   2207     1
   1425   2208     1
   1426   1446     1
   1426   2216     1
   1427   1435     1
   1427   1436     1
   1427   2219     1
   1427   2220     1
   1428   1433     1
   1428   1434     1
   1428   1435     1
   1428   1436     1
   1428   1445     1
   1429   1446     1
   1430   1441     1
   1430   1442     1
   1431   1437     1
   1431   1438     1
   1431   2204     1
   1432   1439     1
   1432   1440     1
   1432   2216     1
   1433   1446     1
   1433   1437     1
   1433   1438     1
   1434   1446     1
   1434   1437     1
   1434   1438     1
   1435   1446     1
   1435   1439     1
   1435   1440     1
   1436   1446     1
   1436   1439     1
   1436   1440     1
   1437   2203     1
   1438   2203     1
   1439   2215     1
   1440   2215     1
   1441   1446     1
   1441   1443     1
   1441   1444     1
   1442   1446     1
   1442   1443     1
   1442   1444     1
   1443   1445     1
   1444   1445     1
   1447   1463     1
   1447   1464     1
   1447   1465     1
   1447   1466     1
   1447   1469     1
   1447   1470     1
   1448   1461     1
   1448   1462     1
   1448   1467     1
   1448   1468     1
   1449   1459     1
   1449   1460     1
   1449   1467     1
   1449   1468     1
   1450   1472     1
   1450   2228     1
   1451   1459     1
   1451   1460     1
   1451   2231     1
   1451   2232     1
   1452   1472     1
   1452   2240     1
   1453   1461     1
   1453   1462     1
   1453   2243     1
   1453   2244     1
   1454   1459     1
   1454   1460     1
   1454   1461     1
   1454   1462     1
   1454   1471     1
   1455   1472     1
   1456   1467     1
   1456   1468     1
   1457   1463     1
   1457   1464     1
   1457   2228     1
   1458   1465     1
   1458   1466     1
   1458   2240     1
   1459   1472     1
   1459   1463     1
   1459   1464     1
   1460   1472     1
   1460   1463     1
   1460   1464     1
   1461   1472     1
   1461   1465     1
   1461   1466     1
   1462   1472     1
   1462   1465     1
   1462   1466     1
   1463   2227     1
   1464   2227     1
   1465   2239     1
   1466   2239     1
   1467   1472     1
   1467   1469     1
   1467   1470     1
   1468   1472     1
   1468   1469     1
   1468   1470     1
   1469   1471     1
   1470   1471     1
   1473   1489     1
   1473   1490     1
   1473   1491     1
   1473   1492     1
   1473   1495     1
   1473   1496     1
   1474   1487     1
   1474   1488     1
   1474   1493     1
   1474   1494     1
   1475   1485     1
   1475   1486     1
   1475   1493     1
   1475   1494     1
   1476   1498     1
   1476   2252     1
   1477   1485     1
   1477   1486     1
   1477   2255     1
   1477   2256     1
   1478   1498     1
   1478   2264     1
   1479   1487     1
   1479   1488     1
   1479   2267     1
   1479   2268     1
   1480   1485     1
   1480   1486     1
   1480   1487     1
   1480   1488     1
   1480   1497     1
   1481   1498     1
   1482   1493     1
   1482   1494     1
   1483   1489     1
   1483   1490     1
   1483   2252     1
   1484   1491     1
   1484   1492     1
   1484   2264     1
   1485   1498     1
   1485   1489     1
   1485   1490     1
   1486   1498     1
   1486   1489     1
   1486   1490     1
   1487   1498     1
   1487   1491     1
   1487   1492     1
   1488   1498     1
   1488   1491     1
   1488   1492     1
   1489   2251     1
   1490   2251     1
   1491   2263     1
   1492   2263     1
   1493   1498     1
   1493   1495     1
   1493   1496     1
   1494   1498     1
   1494   1495     1
   1494   1496     1
   1495   1497     1
   1496   1497     1
   1499   1515     1
   1499   1516     1
   1499   1517     1
   1499   1518     1
   1499   1521     1
   1499   1522     1
   1500   1513     1
   1500   1514     1
   1500   1519     1
   1500   1520     1
   1501   1511     1
   1501   1512     1
   1501   1519     1
   1501   1520     1
   1502   1524     1
   1502   2276     1
   1503   1511     1
   1503   1512     1
   1503   2279     1
   1503   2280     1
   1504   1524     1
   1504   2288     1
   1505   1513     1
   1505   1514     1
   1505   2291     1
   1505   2292     1
   1506   1511     1
   1506   1512     1
   1506   1513     1
   1506   1514     1
   1506   1523     1
   1507   1524     1
   1508   1519     1
   1508   1520     1
   1509   1515     1
   1509   1516     1
   1509   2276     1
   1510   1517     1
   1510   1518     1
   1510   2288     1
   1511   1524     1
   1511   1515     1
   1511   1516     1
   1512   1524     1
   1512   1515     1
   1512   1516     1
   1513   1524     1
   1513   1517     1
   1513   1518     1
   1514   1524     1
   1514   1517     1
   1514   1518     1
   1515   2275     1
   1516   2275     1
   1517   2287     1
   1518   2287     1
   1519   1524     1
   1519   1521     1
   1519   1522     1
   1520   1524     1
   1520   1521     1
   1520   1522     1
   1521   1523     1
   1522   1523     1
   1525   1541     1
   1525   1542     1
   1525   1543     1
   1525   1544     1
   1525   1547     1
   1525   1548     1
   1526   1539     1
   1526   1540     1
   1526   1545     1
   1526   1546     1
   1527   1537     1
   1527   1538     1
   1527   1545     1
   1527   1546     1
   1528   1550     1
   1528   2300     1
   1529   1537     1
   1529   1538     1
   1529   2303     1
   1529   2304     1
   1530   1550     1
   1530   2312     1
   1531   1539     1
   1531   1540     1
   1531   2315     1
   1531   2316     1
   1532   1537     1
   1532   1538     1
   1532   1539     1
   1532   1540     1
   1532   1549     1
   1533   1550     1
   1534   1545     1
   1534   1546     1
   1535   1541     1
   1535   1542     1
   1535   2300     1
   1536   1543     1
   1536   1544     1
   1536   2312     1
   1537   1550     1
   1537   1541     1
   1537   1542     1
   1538   1550     1
   1538   1541     1
   1538   1542     1
   1539   1550     1
   1539   1543     1
   1539   1544     1
   1540   1550     1
   1540   1543     1
   1540   1544     1
   1541   2299     1
   1542   2299     1
   1543   2311     1
   1544   2311     1
   1545   1550     1
   1545   1547     1
   1545   1548     1
   1546   1550     1
   1546   1547     1
   1546   1548     1
   1547   1549     1
   1548   1549     1
   1551   1567     1
   1551   1568     1
   1551   1569     1
   1551   1570     1
   1551   1573     1
   1551   1574     1
   1552   1565     1
   1552   1566     1
   1552   1571     1
   1552   1572     1
   1553   1563     1
   1553   1564     1
   1553   1571     1
   1553   1572     1
   1554   1576     1
   1554   2324     1
   1555   1563     1
   1555   1564     1
   1555   2327     1
   1555   2328     1
   1556   1576     1
   1556   2336     1
   1557   1565     1
   1557   1566     1
   1557   2339     1
   1557   2340     1
   1558   1563     1
   1558   1564     1
   1558   1565     1
   1558   1566     1
   1558   1575     1
   1559   1576     1
   1560   1571     1
   1560   1572     1
   1561   1567     1
   1561   1568     1
   1561   2324     1
   1562   1569     1
   1562   1570     1
   1562   2336     1
   1563   1576     1
   1563   1567     1
   1563   1568     1
   1564   1576     1
   1564   1567     1
   1564   1568     1
   1565   1576     1
   1565   1569     1
   1565   1570     1
   1566   1576     1
   1566   1569     1
   1566   1570     1
   1567   2323     1
   1568   2323     1
   1569   2335     1
   1570   2335     1
   1571   1576     1
   1571   1573     1
   1571   1574     1
   1572   1576     1
   1572   1573     1
   1572   1574     1
   1573   1575     1
   1574   1575     1
   1577   1593     1
   1577   1594     1
   1577   1595     1
   1577   1596     1
   1577   1599     1
   1577   1600     1
   1578   1591     1
   1578   1592     1
   1578   1597     1
   1578   1598     1
   1579   1589     1
   1579   1590     1
   1579   1597     1
   1579   1598     1
   1580   1602     1
   1580   2348     1
   1581   1589     1
   1581   1590     1
   1581   2351     1
   1581   2352     1
   1582   1602     1
   1582   2360     1
   1583   1591     1
   1583   1592     1
   1583   2363     1
   1583   2364     1
   1584   1589     1
   1584   1590     1
   1584   1591     1
   1584   1592     1
   1584   1601     1
   1585   1602     1
   1586   1597     1
   1586   1598     1
   1587   1593     1
   1587   1594     1
   1587   2348     1
   1588   1595     1
   1588   1596     1
   1588   2360     1
   1589   1602     1
   1589   1593     1
   1589   1594     1
   1590   1602     1
   1590   1593     1
   1590   1594     1
   1591   1602     1
   1591   1595     1
   1591   1596     1
   1592   1602     1
   1592   1595     1
   1592   1596     1
   1593   2347     1
   1594   2347     1
   1595   2359     1
   1596   2359     1
   1597   1602     1
   1597   1599     1
   1597   1600     1
   1598   1602     1
   1598   1599     1
   1598   1600     1
   1599   1601     1
   1600   1601     1
   1603   1609     1
   1603   1610     1
   1604   1606     1
   1604   1607     1
   1604   1608     1
   1605   1612     1
   1605   1613     1
   1605   1614     1
   1607   1611     1
   1607   1609     1
   1607   1610     1
   1608   1611     1
   1608   1609     1
   1608   1610     1
   1609   1612     1
   1609   1613     1
   1609   1614     1
   1610   1612     1
   1610   1613     1
   1610   1614     1
   1615   1621     1
   1615   1622     1
   1616   1618     1
   1616   1619     1
   1616   1620     1
   1617   1624     1
   1617   1625     1
   1617   1626     1
   1619   1623     1
   1619   1621     1
   1619   1622     1
   1620   1623     1
   1620   1621     1
   1620   1622     1
   1621   1624     1
   1621   1625     1
   1621   1626     1
   1622   1624     1
   1622   1625     1
   1622   1626     1
   1627   1633     1
   1627   1634     1
   1628   1630     1
   1628   1631     1
   1628   1632     1
   1629   1636     1
   1629   1637     1
   1629   1638     1
   1631   1635     1
   1631   1633     1
   1631   1634     1
   1632   1635     1
   1632   1633     1
   1632   1634     1
   1633   1636     1
   1633   1637     1
   1633   1638     1
   1634   1636     1
   1634   1637     1
   1634   1638     1
   1639   1645     1
   1639   1646     1
   1640   1642     1
   1640   1643     1
   1640   1644     1
   1641   1648     1
   1641   1649     1
   1641   1650     1
   1643   1647     1
   1643   1645     1
   1643   1646     1
   1644   1647     1
   1644   1645     1
   1644   1646     1
   1645   1648     1
   1645   1649     1
   1645   1650     1
   1646   1648     1
   1646   1649     1
   1646   1650     1
   1651   1657     1
   1651   1658     1
   1652   1654     1
   1652   1655     1
   1652   1656     1
   1653   1660     1
   1653   1661     1
   1653   1662     1
   1655   1659     1
   1655   1657     1
   1655   1658     1
   1656   1659     1
   1656   1657     1
   1656   1658     1
   1657   1660     1
   1657   1661     1
   1657   1662     1
   1658   1660     1
   1658   1661     1
   1658   1662     1
   1663   1669     1
   1663   1670     1
   1664   1666     1
   1664   1667     1
   1664   1668     1
   1665   1672     1
   1665   1673     1
   1665   1674     1
   1667   1671     1
   1667   1669     1
   1667   1670     1
   1668   1671     1
   1668   1669     1
   1668   1670     1
   1669   1672     1
   1669   1673     1
   1669   1674     1
   1670   1672     1
   1670   1673     1
   1670   1674     1
   1675   1681     1
   1675   1682     1
   1676   1678     1
   1676   1679     1
   1676   1680     1
   1677   1684     1
   1677   1685     1
   1677   1686     1
   1679   1683     1
   1679   1681     1
   1679   1682     1
   1680   1683     1
   1680   1681     1
   1680   1682     1
   1681   1684     1
   1681   1685     1
   1681   1686     1
   1682   1684     1
   1682   1685     1
   1682   1686     1
   1687   1693     1
   1687   1694     1
   1688   1690     1
   1688   1691     1
   1688   1692     1
   1689   1696     1
   1689   1697     1
   1689   1698     1
   1691   1695     1
   1691   1693     1
   1691   1694     1
   1692   1695     1
   1692   1693     1
   1692   1694     1
   1693   1696     1
   1693   1697     1
   1693   1698     1
   1694   1696     1
   1694   1697     1
   1694   1698     1
   1699   1705     1
   1699   1706     1
   1700   1702     1
   1700   1703     1
   1700   1704     1
   1701   1708     1
   1701   1709     1
   1701   1710     1
   1703   1707     1
   1703   1705     1
   1703   1706     1
   1704   1707     1
   1704   1705     1
   1704   1706     1
   1705   1708     1
   1705   1709     1
   1705   1710     1
   1706   1708     1
   1706   1709     1
   1706   1710     1
   1711   1717     1
   1711   1718     1
   1712   1714     1
   1712   1715     1
   1712   1716     1
   1713   1720     1
   1713   1721     1
   1713   1722     1
   1715   1719     1
   1715   1717     1
   1715   1718     1
   1716   1719     1
   1716   1717     1
   1716   1718     1
   1717   1720     1
   1717   1721     1
   1717   1722     1
   1718   1720     1
   1718   1721     1
   1718   1722     1
   1723   1729     1
   1723   1730     1
   1724   1726     1
   1724   1727     1
   1724   1728     1
   1725   1732     1
   1725   1733     1
   1725   1734     1
   1727   1731     1
   1727   1729     1
   1727   1730     1
   1728   1731     1
   1728   1729     1
   1728   1730     1
   1729   1732     1
   1729   1733     1
   1729   1734     1
   1730   1732     1
   1730   1733     1
   1730   1734     1
   1735   1741     1
   1735   1742     1
   1736   1738     1
   1736   1739     1
   1736   1740     1
   1737   1744     1
   1737   1745     1
   1737   1746     1
   1739   1743     1
   1739   1741     1
   1739   1742     1
   1740   1743     1
   1740   1741     1
   1740   1742     1
   1741   1744     1
   1741   1745     1
   1741   1746     1
   1742   1744     1
   1742   1745     1
   1742   1746     1
   1747   1753     1
   1747   1754     1
   1748   1750     1
   1748   1751     1
   1748   1752     1
   1749   1756     1
   1749   1757     1
   1749   1758     1
   1751   1755     1
   1751   1753     1
   1751   1754     1
   1752   1755     1
   1752   1753     1
   1752   1754     1
   1753   1756     1
   1753   1757     1
   1753   1758     1
   1754   1756     1
   1754   1757     1
   1754   1758     1
   1759   1765     1
   1759   1766     1
   1760   1762     1
   1760   1763     1
   1760   1764     1
   1761   1768     1
   1761   1769     1
   1761   1770     1
   1763   1767     1
   1763   1765     1
   1763   1766     1
   1764   1767     1
   1764   1765     1
   1764   1766     1
   1765   1768     1
   1765   1769     1
   1765   1770     1
   1766   1768     1
   1766   1769     1
   1766   1770     1
   1771   1777     1
   1771   1778     1
   1772   1774     1
   1772   1775     1
   1772   1776     1
   1773   1780     1
   1773   1781     1
   1773   1782     1
   1775   1779     1
   1775   1777     1
   1775   1778     1
   1776   1779     1
   1776   1777     1
   1776   1778     1
   1777   1780     1
   1777   1781     1
   1777   1782     1
   1778   1780     1
   1778   1781     1
   1778   1782     1
   1783   1789     1
   1783   1790     1
   1784   1786     1
   1784   1787     1
   1784   1788     1
   1785   1792     1
   1785   1793     1
   1785   1794     1
   1787   1791     1
   1787   1789     1
   1787   1790     1
   1788   1791     1
   1788   1789     1
   1788   1790     1
   1789   1792     1
   1789   1793     1
   1789   1794     1
   1790   1792     1
   1790   1793     1
   1790   1794     1
   1795   1801     1
   1795   1802     1
   1796   1798     1
   1796   1799     1
   1796   1800     1
   1797   1804     1
   1797   1805     1
   1797   1806     1
   1799   1803     1
   1799   1801     1
   1799   1802     1
   1800   1803     1
   1800   1801     1
   1800   1802     1
   1801   1804     1
   1801   1805     1
   1801   1806     1
   1802   1804     1
   1802   1805     1
   1802   1806     1
   1807   1813     1
   1807   1814     1
   1808   1810     1
   1808   1811     1
   1808   1812     1
   1809   1816     1
   1809   1817     1
   1809   1818     1
   1811   1815     1
   1811   1813     1
   1811   1814     1
   1812   1815     1
   1812   1813     1
   1812   1814     1
   1813   1816     1
   1813   1817     1
   1813   1818     1
   1814   1816     1
   1814   1817     1
   1814   1818     1
   1819   1825     1
   1819   1826     1
   1820   1822     1
   1820   1823     1
   1820   1824     1
   1821   1828     1
   1821   1829     1
   1821   1830     1
   1823   1827     1
   1823   1825     1
   1823   1826     1
   1824   1827     1
   1824   1825     1
   1824   1826     1
   1825   1828     1
   1825   1829     1
   1825   1830     1
   1826   1828     1
   1826   1829     1
   1826   1830     1
   1831   1837     1
   1831   1838     1
   1832   1834     1
   1832   1835     1
   1832   1836     1
   1833   1840     1
   1833   1841     1
   1833   1842     1
   1835   1839     1
   1835   1837     1
   1835   1838     1
   1836   1839     1
   1836   1837     1
   1836   1838     1
   1837   1840     1
   1837   1841     1
   1837   1842     1
   1838   1840     1
   1838   1841     1
   1838   1842     1
   1843   1849     1
   1843   1850     1
   1844   1846     1
   1844   1847     1
   1844   1848     1
   1845   1852     1
   1845   1853     1
   1845   1854     1
   1847   1851     1
   1847   1849     1
   1847   1850     1
   1848   1851     1
   1848   1849     1
   1848   1850     1
   1849   1852     1
   1849   1853     1
   1849   1854     1
   1850   1852     1
   1850   1853     1
   1850   1854     1
   1855   1861     1
   1855   1862     1
   1856   1858     1
   1856   1859     1
   1856   1860     1
   1857   1864     1
   1857   1865     1
   1857   1866     1
   1859   1863     1
   1859   1861     1
   1859   1862     1
   1860   1863     1
   1860   1861     1
   1860   1862     1
   1861   1864     1
   1861   1865     1
   1861   1866     1
   1862   1864     1
   1862   1865     1
   1862   1866     1
   1867   1873     1
   1867   1874     1
   1868   1870     1
   1868   1871     1
   1868   1872     1
   1869   1876     1
   1869   1877     1
   1869   1878     1
   1871   1875     1
   1871   1873     1
   1871   1874     1
   1872   1875     1
   1872   1873     1
   1872   1874     1
   1873   1876     1
   1873   1877     1
   1873   1878     1
   1874   1876     1
   1874   1877     1
   1874   1878     1
   1879   1885     1
   1879   1886     1
   1880   1882     1
   1880   1883     1
   1880   1884     1
   1881   1888     1
   1881   1889     1
   1881   1890     1
   1883   1887     1
   1883   1885     1
   1883   1886     1
   1884   1887     1
   1884   1885     1
   1884   1886     1
   1885   1888     1
   1885   1889     1
   1885   1890     1
   1886   1888     1
   1886   1889     1
   1886   1890     1
   1891   1897     1
   1891   1898     1
   1892   1894     1
   1892   1895     1
   1892   1896     1
   1893   1900     1
   1893   1901     1
   1893   1902     1
   1895   1899     1
   1895   1897     1
   1895   1898     1
   1896   1899     1
   1896   1897     1
   1896   1898     1
   1897   1900     1
   1897   1901     1
   1897   1902     1
   1898   1900     1
   1898   1901     1
   1898   1902     1
   1903   1909     1
   1903   1910     1
   1904   1906     1
   1904   1907     1
   1904   1908     1
   1905   1912     1
   1905   1913     1
   1905   1914     1
   1907   1911     1
   1907   1909     1
   1907   1910     1
   1908   1911     1
   1908   1909     1
   1908   1910     1
   1909   1912     1
   1909   1913     1
   1909   1914     1
   1910   1912     1
   1910   1913     1
   1910   1914     1
   1915   1921     1
   1915   1922     1
   1916   1918     1
   1916   1919     1
   1916   1920     1
   1917   1924     1
   1917   1925     1
   1917   1926     1
   1919   1923     1
   1919   1921     1
   1919   1922     1
   1920   1923     1
   1920   1921     1
   1920   1922     1
   1921   1924     1
   1921   1925     1
   1921   1926     1
   1922   1924     1
   1922   1925     1
   1922   1926     1
   1927   1933     1
   1927   1934     1
   1928   1930     1
   1928   1931     1
   1928   1932     1
   1929   1936     1
   1929   1937     1
   1929   1938     1
   1931   1935     1
   1931   1933     1
   1931   1934     1
   1932   1935     1
   1932   1933     1
   1932   1934     1
   1933   1936     1
   1933   1937     1
   1933   1938     1
   1934   1936     1
   1934   1937     1
   1934   1938     1
   1939   1945     1
   1939   1946     1
   1940   1942     1
   1940   1943     1
   1940   1944     1
   1941   1948     1
   1941   1949     1
   1941   1950     1
   1943   1947     1
   1943   1945     1
   1943   1946     1
   1944   1947     1
   1944   1945     1
   1944   1946     1
   1945   1948     1
   1945   1949     1
   1945   1950     1
   1946   1948     1
   1946   1949     1
   1946   1950     1
   1951   1957     1
   1951   1958     1
   1952   1954     1
   1952   1955     1
   1952   1956     1
   1953   1960     1
   1953   1961     1
   1953   1962     1
   1955   1959     1
   1955   1957     1
   1955   1958     1
   1956   1959     1
   1956   1957     1
   1956   1958     1
   1957   1960     1
   1957   1961     1
   1957   1962     1
   1958   1960     1
   1958   1961     1
   1958   1962     1
   1963   1969     1
   1963   1970     1
   1964   1966     1
   1964   1967     1
   1964   1968     1
   1965   1972     1
   1965   1973     1
   1965   1974     1
   1967   1971     1
   1967   1969     1
   1967   1970     1
   1968   1971     1
   1968   1969     1
   1968   1970     1
   1969   1972     1
   1969   1973     1
   1969   1974     1
   1970   1972     1
   1970   1973     1
   1970   1974     1
   1975   1981     1
   1975   1982     1
   1976   1978     1
   1976   1979     1
   1976   1980     1
   1977   1984     1
   1977   1985     1
   1977   1986     1
   1979   1983     1
   1979   1981     1
   1979   1982     1
   1980   1983     1
   1980   1981     1
   1980   1982     1
   1981   1984     1
   1981   1985     1
   1981   1986     1
   1982   1984     1
   1982   1985     1
   1982   1986     1
   1987   1993     1
   1987   1994     1
   1988   1990     1
   1988   1991     1
   1988   1992     1
   1989   1996     1
   1989   1997     1
   1989   1998     1
   1991   1995     1
   1991   1993     1
   1991   1994     1
   1992   1995     1
   1992   1993     1
   1992   1994     1
   1993   1996     1
   1993   1997     1
   1993   1998     1
   1994   1996     1
   1994   1997     1
   1994   1998     1
   1999   2005     1
   1999   2006     1
   2000   2002     1
   2000   2003     1
   2000   2004     1
   2001   2008     1
   2001   2009     1
   2001   2010     1
   2003   2007     1
   2003   2005     1
   2003   2006     1
   2004   2007     1
   2004   2005     1
   2004   2006     1
   2005   2008     1
   2005   2009     1
   2005   2010     1
   2006   2008     1
   2006   2009     1
   2006   2010     1
   2011   2017     1
   2011   2018     1
   2012   2014     1
   2012   2015     1
   2012   2016     1
   2013   2020     1
   2013   2021     1
   2013   2022     1
   2015   2019     1
   2015   2017     1
   2015   2018     1
   2016   2019     1
   2016   2017     1
   2016   2018     1
   2017   2020     1
   2017   2021     1
   2017   2022     1
   2018   2020     1
   2018   2021     1
   2018   2022     1
   2023   2029     1
   2023   2030     1
   2024   2026     1
   2024   2027     1
   2024   2028     1
   2025   2032     1
   2025   2033     1
   2025   2034     1
   2027   2031     1
   2027   2029     1
   2027   2030     1
   2028   2031     1
   2028   2029     1
   2028   2030     1
   2029   2032     1
   2029   2033     1
   2029   2034     1
   2030   2032     1
   2030   2033     1
   2030   2034     1
   2035   2041     1
   2035   2042     1
   2036   2038     1
   2036   2039     1
   2036   2040     1
   2037   2044     1
   2037   2045     1
   2037   2046     1
   2039   2043     1
   2039   2041     1
   2039   2042     1
   2040   2043     1
   2040   2041     1
   2040   2042     1
   2041   2044     1
   2041   2045     1
   2041   2046     1
   2042   2044     1
   2042   2045     1
   2042   2046     1
   2047   2053     1
   2047   2054     1
   2048   2050     1
   2048   2051     1
   2048   2052     1
   2049   2056     1
   2049   2057     1
   2049   2058     1
   2051   2055     1
   2051   2053     1
   2051   2054     1
   2052   2055     1
   2052   2053     1
   2052   2054     1
   2053   2056     1
   2053   2057     1
   2053   2058     1
   2054   2056     1
   2054   2057     1
   2054   2058     1
   2059   2065     1
   2059   2066     1
   2060   2062     1
   2060   2063     1
   2060   2064     1
   2061   2068     1
   2061   2069     1
   2061   2070     1
   2063   2067     1
   2063   2065     1
   2063   2066     1
   2064   2067     1
   2064   2065     1
   2064   2066     1
   2065   2068     1
   2065   2069     1
   2065   2070     1
   2066   2068     1
   2066   2069     1
   2066   2070     1
   2071   2077     1
   2071   2078     1
   2072   2074     1
   2072   2075     1
   2072   2076     1
   2073   2080     1
   2073   2081     1
   2073   2082     1
   2075   2079     1
   2075   2077     1
   2075   2078     1
   2076   2079     1
   2076   2077     1
   2076   2078     1
   2077   2080     1
   2077   2081     1
   2077   2082     1
   2078   2080     1
   2078   2081     1
   2078   2082     1
   2083   2089     1
   2083   2090     1
   2084   2086     1
   2084   2087     1
   2084   2088     1
   2085   2092     1
   2085   2093     1
   2085   2094     1
   2087   2091     1
   2087   2089     1
   2087   2090     1
   2088   2091     1
   2088   2089     1
   2088   2090     1
   2089   2092     1
   2089   2093     1
   2089   2094     1
   2090   2092     1
   2090   2093     1
   2090   2094     1
   2095   2101     1
   2095   2102     1
   2096   2098     1
   2096   2099     1
   2096   2100     1
   2097   2104     1
   2097   2105     1
   2097   2106     1
   2099   2103     1
   2099   2101     1
   2099   2102     1
   2100   2103     1
   2100   2101     1
   2100   2102     1
   2101   2104     1
   2101   2105     1
   2101   2106     1
   2102   2104     1
   2102   2105     1
   2102   2106     1
   2107   2113     1
   2107   2114     1
   2108   2110     1
   2108   2111     1
   2108   2112     1
   2109   2116     1
   2109   2117     1
   2109   2118     1
   2111   2115     1
   2111   2113     1
   2111   2114     1
   2112   2115     1
   2112   2113     1
   2112   2114     1
   2113   2116     1
   2113   2117     1
   2113   2118     1
   2114   2116     1
   2114   2117     1
   2114   2118     1
   2119   2125     1
   2119   2126     1
   2120   2122     1
   2120   2123     1
   2120   2124     1
   2121   2128     1
   2121   2129     1
   2121   2130     1
   2123   2127     1
   2123   2125     1
   2123   2126     1
   2124   2127     1
   2124   2125     1
   2124   2126     1
   2125   2128     1
   2125   2129     1
   2125   2130     1
   2126   2128     1
   2126   2129     1
   2126   2130     1
   2131   2137     1
   2131   2138     1
   2132   2134     1
   2132   2135     1
   2132   2136     1
   2133   2140     1
   2133   2141     1
   2133   2142     1
   2135   2139     1
   2135   2137     1
   2135   2138     1
   2136   2139     1
   2136   2137     1
   2136   2138     1
   2137   2140     1
   2137   2141     1
   2137   2142     1
   2138   2140     1
   2138   2141     1
   2138   2142     1
   2143   2149     1
   2143   2150     1
   2144   2146     1
   2144   2147     1
   2144   2148     1
   2145   2152     1
   2145   2153     1
   2145   2154     1
   2147   2151     1
   2147   2149     1
   2147   2150     1
   2148   2151     1
   2148   2149     1
   2148   2150     1
   2149   2152     1
   2149   2153     1
   2149   2154     1
   2150   2152     1
   2150   2153     1
   2150   2154     1
   2155   2161     1
   2155   2162     1
   2156   2158     1
   2156   2159     1
   2156   2160     1
   2157   2164     1
   2157   2165     1
   2157   2166     1
   2159   2163     1
   2159   2161     1
   2159   2162     1
   2160   2163     1
   2160   2161     1
   2160   2162     1
   2161   2164     1
   2161   2165     1
   2161   2166     1
   2162   2164     1
   2162   2165     1
   2162   2166     1
   2167   2173     1
   2167   2174     1
   2168   2170     1
   2168   2171     1
   2168   2172     1
   2169   2176     1
   2169   2177     1
   2169   2178     1
   2171   2175     1
   2171   2173     1
   2171   2174     1
   2172   2175     1
   2172   2173     1
   2172   2174     1
   2173   2176     1
   2173   2177     1
   2173   2178     1
   2174   2176     1
   2174   2177     1
   2174   2178     1
   2179   2185     1
   2179   2186     1
   2180   2182     1
   2180   2183     1
   2180   2184     1
   2181   2188     1
   2181   2189     1
   2181   2190     1
   2183   2187     1
   2183   2185     1
   2183   2186     1
   2184   2187     1
   2184   2185     1
   2184   2186     1
   2185   2188     1
   2185   2189     1
   2185   2190     1
   2186   2188     1
   2186   2189     1
   2186   2190     1
   2191   2197     1
   2191   2198     1
   2192   2194     1
   2192   2195     1
   2192   2196     1
   2193   2200     1
   2193   2201     1
   2193   2202     1
   2195   2199     1
   2195   2197     1
   2195   2198     1
   2196   2199     1
   2196   2197     1
   2196   2198     1
   2197   2200     1
   2197   2201     1
   2197   2202     1
   2198   2200     1
   2198   2201     1
   2198   2202     1
   2203   2209     1
   2203   2210     1
   2204   2206     1
   2204   2207     1
   2204   2208     1
   2205   2212     1
   2205   2213     1
   2205   2214     1
   2207   2211     1
   2207   2209     1
   2207   2210     1
   2208   2211     1
   2208   2209     1
   2208   2210     1
   2209   2212     1
   2209   2213     1
   2209   2214     1
   2210   2212     1
   2210   2213     1
   2210   2214     1
   2215   2221     1
   2215   2222     1
   2216   2218     1
   2216   2219     1
   2216   2220     1
   2217   2224     1
   2217   2225     1
   2217   2226     1
   2219   2223     1
   2219   2221     1
   2219   2222     1
   2220   2223     1
   2220   2221     1
   2220   2222     1
   2221   2224     1
   2221   2225     1
   2221   2226     1
   2222   2224     1
   2222   2225     1
   2222   2226     1
   2227   2233     1
   2227   2234     1
   2228   2230     1
   2228   2231     1
   2228   2232     1
   2229   2236     1
   2229   2237     1
   2229   2238     1
   2231   2235     1
   2231   2233     1
   2231   2234     1
   2232   2235     1
   2232   2233     1
   2232   2234     1
   2233   2236     1
   2233   2237     1
   2233   2238     1
   2234   2236     1
   2234   2237     1
   2234   2238     1
   2239   2245     1
   2239   2246     1
   2240   2242     1
   2240   2243     1
   2240   2244     1
   2241   2248     1
   2241   2249     1
   2241   2250     1
   2243   2247     1
   2243   2245     1
   2243   2246     1
   2244   2247     1
   2244   2245     1
   2244   2246     1
   2245   2248     1
   2245   2249     1
   2245   2250     1
   2246   2248     1
   2246   2249     1
   2246   2250     1
   2251   2257     1
   2251   2258     1
   2252   2254     1
   2252   2255     1
   2252   2256     1
   2253   2260     1
   2253   2261     1
   2253   2262     1
   2255   2259     1
   2255   2257     1
   2255   2258     1
   2256   2259     1
   2256   2257     1
   2256   2258     1
   2257   2260     1
   2257   2261     1
   2257   2262     1
   2258   2260     1
   2258   2261     1
   2258   2262     1
   2263   2269     1
   2263   2270     1
   2264   2266     1
   2264   2267     1
   2264   2268     1
   2265   2272     1
   2265   2273     1
   2265   2274     1
   2267   2271     1
   2267   2269     1
   2267   2270     1
   2268   2271     1
   2268   2269     1
   2268   2270     1
   2269   2272     1
   2269   2273     1
   2269   2274     1
   2270   2272     1
   2270   2273     1
   2270   2274     1
   2275   2281     1
   2275   2282     1
   2276   2278     1
   2276   2279     1
   2276   2280     1
   2277   2284     1
   2277   2285     1
   2277   2286     1
   2279   2283     1
   2279   2281     1
   2279   2282     1
   2280   2283     1
   2280   2281     1
   2280   2282     1
   2281   2284     1
   2281   2285     1
   2281   2286     1
   2282   2284     1
   2282   2285     1
   2282   2286     1
   2287   2293     1
   2287   2294     1
   2288   2290     1
   2288   2291     1
   2288   2292     1
   2289   2296     1
   2289   2297     1
   2289   2298     1
   2291   2295     1
   2291   2293     1
   2291   2294     1
   2292   2295     1
   2292   2293     1
   2292   2294     1
   2293   2296     1
   2293   2297     1
   2293   2298     1
   2294   2296     1
   2294   2297     1
   2294   2298     1
   2299   2305     1
   2299   2306     1
   2300   2302     1
   2300   2303     1
   2300   2304     1
   2301   2308     1
   2301   2309     1
   2301   2310     1
   2303   2307     1
   2303   2305     1
   2303   2306     1
   2304   2307     1
   2304   2305     1
   2304   2306     1
   2305   2308     1
   2305   2309     1
   2305   2310     1
   2306   2308     1
   2306   2309     1
   2306   2310     1
   2311   2317     1
   2311   2318     1
   2312   2314     1
   2312   2315     1
   2312   2316     1
   2313   2320     1
   2313   2321     1
   2313   2322     1
   2315   2319     1
   2315   2317     1
   2315   2318     1
   2316   2319     1
   2316   2317     1
   2316   2318     1
   2317   2320     1
   2317   2321     1
   2317   2322     1
   2318   2320     1
   2318   2321     1
   2318   2322     1
   2323   2329     1
   2323   2330     1
   2324   2326     1
   2324   2327     1
   2324   2328     1
   2325   2332     1
   2325   2333     1
   2325   2334     1
   2327   2331     1
   2327   2329     1
   2327   2330     1
   2328   2331     1
   2328   2329     1
   2328   2330     1
   2329   2332     1
   2329   2333     1
   2329   2334     1
   2330   2332     1
   2330   2333     1
   2330   2334     1
   2335   2341     1
   2335   2342     1
   2336   2338     1
   2336   2339     1
   2336   2340     1
   2337   2344     1
   2337   2345     1
   2337   2346     1
   2339   2343     1
   2339   2341     1
   2339   2342     1
   2340   2343     1
   2340   2341     1
   2340   2342     1
   2341   2344     1
   2341   2345     1
   2341   2346     1
   2342   2344     1
   2342   2345     1
   2342   2346     1
   2347   2353     1
   2347   2354     1
   2348   2350     1
   2348   2351     1
   2348   2352     1
   2349   2356     1
   2349   2357     1
   2349   2358     1
   2351   2355     1
   2351   2353     1
   2351   2354     1
   2352   2355     1
   2352   2353     1
   2352   2354     1
   2353   2356     1
   2353   2357     1
   2353   2358     1
   2354   2356     1
   2354   2357     1
   2354   2358     1
   2359   2365     1
   2359   2366     1
   2360   2362     1
   2360   2363     1
   2360   2364     1
   2361   2368     1
   2361   2369     1
   2361   2370     1
   2363   2367     1
   2363   2365     1
   2363   2366     1
   2364   2367     1
   2364   2365     1
   2364   2366     1
   2365   2368     1
   2365   2369     1
   2365   2370     1
   2366   2368     1
   2366   2369     1
   2366   2370     1

[ angles ]
;    ai     aj     ak funct         c0         c1         c2         c3
      1      2      3     1   114.2100488 537.225600
      1      7     13     1   114.2100488 537.225600
      1      8     15     1   114.2100488 537.225600
      2      1      7     1   109.6600471 523.836800
      2      1      8     1   109.6600471 523.836800
      2      3      4     1   114.2100488 537.225600
      3      4      5     1   109.6600471 523.836800
      3      4      6     1   109.6600471 523.836800
      4      5     11     1   114.2100488 537.225600
      4      6      9     1   114.2100488 537.225600
      5      4      6     1   109.6600471 523.836800
      5     11     12     1   111.0400475 529.694400
      6      9     10     1   111.0400475 529.694400
      7      1      8     1   109.6600471 523.836800
      7     13     14     1   111.0400475 529.694400
      8     15     16     1   111.0400475 529.694400
      9     10     18     1   123.2000528 564.003200
      9     10     52     1   115.1800491 558.982400
     10     52     51     1   120.6900519 530.531200
     11     12     17     1   123.2000528 564.003200
     11     12     78     1   115.1800491 558.982400
     12     78     77     1   120.6900519 530.531200
     13     14     20     1   123.2000528 564.003200
     13     14    104     1   115.1800491 558.982400
     14    104    103     1   120.6900519 530.531200
     15     16     19     1   123.2000528 564.003200
     15     16    130     1   115.1800491 558.982400
     16    130    129     1   120.6900519 530.531200
     17     12     78     1   123.0500530 620.905600
     18     10     52     1   123.0500530 620.905600
     19     16    130     1   123.0500530 620.905600
     20     14    104     1   123.0500530 620.905600
     43     44     46     1   114.2100488 537.225600
     43     45     48     1   114.2100488 537.225600
     43     50     51     1   114.2100488 537.225600
     44     43     45     1   109.6600471 523.836800
     44     43     50     1   109.6600471 523.836800
     44     46     47     1   111.0400475 529.694400
     45     43     50     1   109.6600471 523.836800
     45     48     49     1   111.0400475 529.694400
     46     47     53     1   123.2000528 564.003200
     46     47    156     1   115.1800491 558.982400
     47    156    155     1   120.6900519 530.531200
     48     49     54     1   123.2000528 564.003200
     48     49    182     1   115.1800491 558.982400
     49    182    181     1   120.6900519 530.531200
     50     51     52     1   111.6100477 551.451200
     53     47    156     1   123.0500530 620.905600
     54     49    182     1   123.0500530 620.905600
     69     70     72     1   114.2100488 537.225600
     69     71     74     1   114.2100488 537.225600
     69     76     77     1   114.2100488 537.225600
     70     69     71     1   109.6600471 523.836800
     70     69     76     1   109.6600471 523.836800
     70     72     73     1   111.0400475 529.694400
     71     69     76     1   109.6600471 523.836800
     71     74     75     1   111.0400475 529.694400
     72     73     79     1   123.2000528 564.003200
     72     73    208     1   115.1800491 558.982400
     73    208    207     1   120.6900519 530.531200
     74     75     80     1   123.2000528 564.003200
     74     75    234     1   115.1800491 558.982400
     75    234    233     1   120.6900519 530.531200
     76     77     78     1   111.6100477 551.451200
     79     73    208     1   123.0500530 620.905600
     80     75    234     1   123.0500530 620.905600
     95     96     98     1   114.2100488 537.225600
     95     97    100     1   114.2100488 537.225600
     95    102    103     1   114.2100488 537.225600
     96     95     97     1   109.6600471 523.836800
     96     95    102     1   109.6600471 523.836800
     96     98     99     1   111.0400475 529.694400
     97     95    102     1   109.6600471 523.836800
     97    100    101     1   111.0400475 529.694400
     98     99    105     1   123.2000528 564.003200
     98     99    260     1   115.1800491 558.982400
     99    260    259     1   120.6900519 530.531200
    100    101    106     1   123.2000528 564.003200
    100    101    286     1   115.1800491 558.982400
    101    286    285     1   120.6900519 530.531200
    102    103    104     1   111.6100477 551.451200
    105     99    260     1   123.0500530 620.905600
    106    101    286     1   123.0500530 620.905600
    121    122    124     1   114.2100488 537.225600
    121    123    126     1   114.2100488 537.225600
    121    128    129     1   114.2100488 537.225600
    122    121    123     1   109.6600471 523.836800
    122    121    128     1   109.6600471 523.836800
    122    124    125     1   111.0400475 529.694400
    123    121    128     1   109.6600471 523.836800
    123    126    127     1   111.0400475 529.694400
    124    125    131     1   123.2000528 564.003200
    124    125    312     1   115.1800491 558.982400
    125    312    311     1   120.6900519 530.531200
    126    127    132     1   123.2000528 564.003200
    126    127    338     1   115.1800491 558.982400
    127    338    337     1   120.6900519 530.531200
    128    129    130     1   111.6100477 551.451200
    131    125    312     1   123.0500530 620.905600
    132    127    338     1   123.0500530 620.905600
    147    148    150     1   114.2100488 537.225600
    147    149    152     1   114.2100488 537.225600
    147    154    155     1   114.2100488 537.225600
    148    147    149     1   109.6600471 523.836800
    148    147    154     1   109.6600471 523.836800
    148    150    151     1   111.0400475 529.694400
    149    147    154     1   109.6600471 523.836800
    149    152    153     1   111.0400475 529.694400
    150    151    157     1   123.2000528 564.003200
    150    151    364     1   115.1800491 558.982400
    151    364    363     1   120.6900519 530.531200
    152    153    158     1   123.2000528 564.003200
    152    153    390     1   115.1800491 558.982400
    153    390    389     1   120.6900519 530.531200
    154    155    156     1   111.6100477 551.451200
    157    151    364     1   123.0500530 620.905600
    158    153    390     1   123.0500530 620.905600
    173    174    176     1   114.2100488 537.225600
    173    175    178     1   114.2100488 537.225600
    173    180    181     1   114.2100488 537.225600
    174    173    175     1   109.6600471 523.836800
    174    173    180     1   109.6600471 523.836800
    174    176    177     1   111.0400475 529.694400
    175    173    180     1   109.6600471 523.836800
    175    178    179     1   111.0400475 529.694400
    176    177    183     1   123.2000528 564.003200
    176    177    416     1   115.1800491 558.982400
    177    416    415     1   120.6900519 530.531200
    178    179    184     1   123.2000528 564.003200
    178    179    442     1   115.1800491 558.982400
    179    442    441     1   120.6900519 530.531200
    180    181    182     1   111.6100477 551.451200
    183    177    416     1   123.0500530 620.905600
    184    179    442     1   123.0500530 620.905600
    199    200    202     1   114.2100488 537.225600
    199    201    204     1   114.2100488 537.225600
    199    206    207     1   114.2100488 537.225600
    200    199    201     1   109.6600471 523.836800
    200    199    206     1   109.6600471 523.836800
    200    202    203     1   111.0400475 529.694400
    201    199    206     1   109.6600471 523.836800
    201    204    205     1   111.0400475 529.694400
    202    203    209     1   123.2000528 564.003200
    202    203    468     1   115.1800491 558.982400
    203    468    467     1   120.6900519 530.531200
    204    205    210     1   123.2000528 564.003200
    204    205    494     1   115.1800491 558.982400
    205    494    493     1   120.6900519 530.531200
    206    207    208     1   111.6100477 551.451200
    209    203    468     1   123.0500530 620.905600
    210    205    494     1   123.0500530 620.905600
    225    226    228     1   114.2100488 537.225600
    225    227    230     1   114.2100488 537.225600
    225    232    233     1   114.2100488 537.225600
    226    225    227     1   109.6600471 523.836800
    226    225    232     1   109.6600471 523.836800
    226    228    229     1   111.0400475 529.694400
    227    225    232     1   109.6600471 523.836800
    227    230    231     1   111.0400475 529.694400
    228    229    235     1   123.2000528 564.003200
    228    229    520     1   115.1800491 558.982400
    229    520    519     1   120.6900519 530.531200
    230    231    236     1   123.2000528 564.003200
    230    231    546     1   115.1800491 558.982400
    231    546    545     1   120.6900519 530.531200
    232    233    234     1   111.6100477 551.451200
    235    229    520     1   123.0500530 620.905600
    236    231    546     1   123.0500530 620.905600
    251    252    254     1   114.2100488 537.225600
    251    253    256     1   114.2100488 537.225600
    251    258    259     1   114.2100488 537.225600
    252    251    253     1   109.6600471 523.836800
    252    251    258     1   109.6600471 523.836800
    252    254    255     1   111.0400475 529.694400
    253    251    258     1   109.6600471 523.836800
    253    256    257     1   111.0400475 529.694400
    254    255    261     1   123.2000528 564.003200
    254    255    572     1   115.1800491 558.982400
    255    572    571     1   120.6900519 530.531200
    256    257    262     1   123.2000528 564.003200
    256    257    598     1   115.1800491 558.982400
    257    598    597     1   120.6900519 530.531200
    258    259    260     1   111.6100477 551.451200
    261    255    572     1   123.0500530 620.905600
    262    257    598     1   123.0500530 620.905600
    277    278    280     1   114.2100488 537.225600
    277    279    282     1   114.2100488 537.225600
    277    284    285     1   114.2100488 537.225600
    278    277    279     1   109.6600471 523.836800
    278    277    284     1   109.6600471 523.836800
    278    280    281     1   111.0400475 529.694400
    279    277    284     1   109.6600471 523.836800
    279    282    283     1   111.0400475 529.694400
    280    281    287     1   123.2000528 564.003200
    280    281    624     1   115.1800491 558.982400
    281    624    623     1   120.6900519 530.531200
    282    283    288     1   123.2000528 564.003200
    282    283    650     1   115.1800491 558.982400
    283    650    649     1   120.6900519 530.531200
    284    285    286     1   111.6100477 551.451200
    287    281    624     1   123.0500530 620.905600
    288    283    650     1   123.0500530 620.905600
    303    304    306     1   114.2100488 537.225600
    303    305    308     1   114.2100488 537.225600
    303    310    311     1   114.2100488 537.225600
    304    303    305     1   109.6600471 523.836800
    304    303    310     1   109.6600471 523.836800
    304    306    307     1   111.0400475 529.694400
    305    303    310     1   109.6600471 523.836800
    305    308    309     1   111.0400475 529.694400
    306    307    313     1   123.2000528 564.003200
    306    307    676     1   115.1800491 558.982400
    307    676    675     1   120.6900519 530.531200
    308    309    314     1   123.2000528 564.003200
    308    309    702     1   115.1800491 558.982400
    309    702    701     1   120.6900519 530.531200
    310    311    312     1   111.6100477 551.451200
    313    307    676     1   123.0500530 620.905600
    314    309    702     1   123.0500530 620.905600
    329    330    332     1   114.2100488 537.225600
    329    331    334     1   114.2100488 537.225600
    329    336    337     1   114.2100488 537.225600
    330    329    331     1   109.6600471 523.836800
    330    329    336     1   109.6600471 523.836800
    330    332    333     1   111.0400475 529.694400
    331    329    336     1   109.6600471 523.836800
    331    334    335     1   111.0400475 529.694400
    332    333    339     1   123.2000528 564.003200
    332    333    728     1   115.1800491 558.982400
    333    728    727     1   120.6900519 530.531200
    334    335    340     1   123.2000528 564.003200
    334    335    754     1   115.1800491 558.982400
    335    754    753     1   120.6900519 530.531200
    336    337    338     1   111.6100477 551.451200
    339    333    728     1   123.0500530 620.905600
    340    335    754     1   123.0500530 620.905600
    355    356    358     1   114.2100488 537.225600
    355    357    360     1   114.2100488 537.225600
    355    362    363     1   114.2100488 537.225600
    356    355    357     1   109.6600471 523.836800
    356    355    362     1   109.6600471 523.836800
    356    358    359     1   111.0400475 529.694400
    357    355    362     1   109.6600471 523.836800
    357    360    361     1   111.0400475 529.694400
    358    359    365     1   123.2000528 564.003200
    358    359    780     1   115.1800491 558.982400
    359    780    779     1   120.6900519 530.531200
    360    361    366     1   123.2000528 564.003200
    360    361    806     1   115.1800491 558.982400
    361    806    805     1   120.6900519 530.531200
    362    363    364     1   111.6100477 551.451200
    365    359    780     1   123.0500530 620.905600
    366    361    806     1   123.0500530 620.905600
    381    382    384     1   114.2100488 537.225600
    381    383    386     1   114.2100488 537.225600
    381    388    389     1   114.2100488 537.225600
    382    381    383     1   109.6600471 523.836800
    382    381    388     1   109.6600471 523.836800
    382    384    385     1   111.0400475 529.694400
    383    381    388     1   109.6600471 523.836800
    383    386    387     1   111.0400475 529.694400
    384    385    391     1   123.2000528 564.003200
    384    385    832     1   115.1800491 558.982400
    385    832    831     1   120.6900519 530.531200
    386    387    392     1   123.2000528 564.003200
    386    387    858     1   115.1800491 558.982400
    387    858    857     1   120.6900519 530.531200
    388    389    390     1   111.6100477 551.451200
    391    385    832     1   123.0500530 620.905600
    392    387    858     1   123.0500530 620.905600
    407    408    410     1   114.2100488 537.225600
    407    409    412     1   114.2100488 537.225600
    407    414    415     1   114.2100488 537.225600
    408    407    409     1   109.6600471 523.836800
    408    407    414     1   109.6600471 523.836800
    408    410    411     1   111.0400475 529.694400
    409    407    414     1   109.6600471 523.836800
    409    412    413     1   111.0400475 529.694400
    410    411    417     1   123.2000528 564.003200
    410    411    884     1   115.1800491 558.982400
    411    884    883     1   120.6900519 530.531200
    412    413    418     1   123.2000528 564.003200
    412    413    910     1   115.1800491 558.982400
    413    910    909     1   120.6900519 530.531200
    414    415    416     1   111.6100477 551.451200
    417    411    884     1   123.0500530 620.905600
    418    413    910     1   123.0500530 620.905600
    433    434    436     1   114.2100488 537.225600
    433    435    438     1   114.2100488 537.225600
    433    440    441     1   114.2100488 537.225600
    434    433    435     1   109.6600471 523.836800
    434    433    440     1   109.6600471 523.836800
    434    436    437     1   111.0400475 529.694400
    435    433    440     1   109.6600471 523.836800
    435    438    439     1   111.0400475 529.694400
    436    437    443     1   123.2000528 564.003200
    436    437    936     1   115.1800491 558.982400
    437    936    935     1   120.6900519 530.531200
    438    439    444     1   123.2000528 564.003200
    438    439    962     1   115.1800491 558.982400
    439    962    961     1   120.6900519 530.531200
    440    441    442     1   111.6100477 551.451200
    443    437    936     1   123.0500530 620.905600
    444    439    962     1   123.0500530 620.905600
    459    460    462     1   114.2100488 537.225600
    459    461    464     1   114.2100488 537.225600
    459    466    467     1   114.2100488 537.225600
    460    459    461     1   109.6600471 523.836800
    460    459    466     1   109.6600471 523.836800
    460    462    463     1   111.0400475 529.694400
    461    459    466     1   109.6600471 523.836800
    461    464    465     1   111.0400475 529.694400
    462    463    469     1   123.2000528 564.003200
    462    463    988     1   115.1800491 558.982400
    463    988    987     1   120.6900519 530.531200
    464    465    470     1   123.2000528 564.003200
    464    465   1014     1   115.1800491 558.982400
    465   1014   1013     1   120.6900519 530.531200
    466    467    468     1   111.6100477 551.451200
    469    463    988     1   123.0500530 620.905600
    470    465   1014     1   123.0500530 620.905600
    485    486    488     1   114.2100488 537.225600
    485    487    490     1   114.2100488 537.225600
    485    492    493     1   114.2100488 537.225600
    486    485    487     1   109.6600471 523.836800
    486    485    492     1   109.6600471 523.836800
    486    488    489     1   111.0400475 529.694400
    487    485    492     1   109.6600471 523.836800
    487    490    491     1   111.0400475 529.694400
    488    489    495     1   123.2000528 564.003200
    488    489   1040     1   115.1800491 558.982400
    489   1040   1039     1   120.6900519 530.531200
    490    491    496     1   123.2000528 564.003200
    490    491   1066     1   115.1800491 558.982400
    491   1066   1065     1   120.6900519 530.531200
    492    493    494     1   111.6100477 551.451200
    495    489   1040     1   123.0500530 620.905600
    496    491   1066     1   123.0500530 620.905600
    511    512    514     1   114.2100488 537.225600
    511    513    516     1   114.2100488 537.225600
    511    518    519     1   114.2100488 537.225600
    512    511    513     1   109.6600471 523.836800
    512    511    518     1   109.6600471 523.836800
    512    514    515     1   111.0400475 529.694400
    513    511    518     1   109.6600471 523.836800
    513    516    517     1   111.0400475 529.694400
    514    515    521     1   123.2000528 564.003200
    514    515   1092     1   115.1800491 558.982400
    515   1092   1091     1   120.6900519 530.531200
    516    517    522     1   123.2000528 564.003200
    516    517   1118     1   115.1800491 558.982400
    517   1118   1117     1   120.6900519 530.531200
    518    519    520     1   111.6100477 551.451200
    521    515   1092     1   123.0500530 620.905600
    522    517   1118     1   123.0500530 620.905600
    537    538    540     1   114.2100488 537.225600
    537    539    542     1   114.2100488 537.225600
    537    544    545     1   114.2100488 537.225600
    538    537    539     1   109.6600471 523.836800
    538    537    544     1   109.6600471 523.836800
    538    540    541     1   111.0400475 529.694400
    539    537    544     1   109.6600471 523.836800
    539    542    543     1   111.0400475 529.694400
    540    541    547     1   123.2000528 564.003200
    540    541   1144     1   115.1800491 558.982400
    541   1144   1143     1   120.6900519 530.531200
    542    543    548     1   123.2000528 564.003200
    542    543   1170     1   115.1800491 558.982400
    543   1170   1169     1   120.6900519 530.531200
    544    545    546     1   111.6100477 551.451200
    547    541   1144     1   123.0500530 620.905600
    548    543   1170     1   123.0500530 620.905600
    563    564    566     1   114.2100488 537.225600
    563    565    568     1   114.2100488 537.225600
    563    570    571     1   114.2100488 537.225600
    564    563    565     1   109.6600471 523.836800
    564    563    570     1   109.6600471 523.836800
    564    566    567     1   111.0400475 529.694400
    565    563    570     1   109.6600471 523.836800
    565    568    569     1   111.0400475 529.694400
    566    567    573     1   123.2000528 564.003200
    566    567   1196     1   115.1800491 558.982400
    567   1196   1195     1   120.6900519 530.531200
    568    569    574     1   123.2000528 564.003200
    568    569   1222     1   115.1800491 558.982400
    569   1222   1221     1   120.6900519 530.531200
    570    571    572     1   111.6100477 551.451200
    573    567   1196     1   123.0500530 620.905600
    574    569   1222     1   123.0500530 620.905600
    589    590    592     1   114.2100488 537.225600
    589    591    594     1   114.2100488 537.225600
    589    596    597     1   114.2100488 537.225600
    590    589    591     1   109.6600471 523.836800
    590    589    596     1   109.6600471 523.836800
    590    592    593     1   111.0400475 529.694400
    591    589    596     1   109.6600471 523.836800
    591    594    595     1   111.0400475 529.694400
    592    593    599     1   123.2000528 564.003200
    592    593   1248     1   115.1800491 558.982400
    593   1248   1247     1   120.6900519 530.531200
    594    595    600     1   123.2000528 564.003200
    594    595   1274     1   115.1800491 558.982400
    595   1274   1273     1   120.6900519 530.531200
    596    597    598     1   111.6100477 551.451200
    599    593   1248     1   123.0500530 620.905600
    600    595   1274     1   123.0500530 620.905600
    615    616    618     1   114.2100488 537.225600
    615    617    620     1   114.2100488 537.225600
    615    622    623     1   114.2100488 537.225600
    616    615    617     1   109.6600471 523.836800
    616    615    622     1   109.6600471 523.836800
    616    618    619     1   111.0400475 529.694400
    617    615    622     1   109.6600471 523.836800
    617    620    621     1   111.0400475 529.694400
    618    619    625     1   123.2000528 564.003200
    618    619   1300     1   115.1800491 558.982400
    619   1300   1299     1   120.6900519 530.531200
    620    621    626     1   123.2000528 564.003200
    620    621   1326     1   115.1800491 558.982400
    621   1326   1325     1   120.6900519 530.531200
    622    623    624     1   111.6100477 551.451200
    625    619   1300     1   123.0500530 620.905600
    626    621   1326     1   123.0500530 620.905600
    641    642    644     1   114.2100488 537.225600
    641    643    646     1   114.2100488 537.225600
    641    648    649     1   114.2100488 537.225600
    642    641    643     1   109.6600471 523.836800
    642    641    648     1   109.6600471 523.836800
    642    644    645     1   111.0400475 529.694400
    643    641    648     1   109.6600471 523.836800
    643    646    647     1   111.0400475 529.694400
    644    645    651     1   123.2000528 564.003200
    644    645   1352     1   115.1800491 558.982400
    645   1352   1351     1   120.6900519 530.531200
    646    647    652     1   123.2000528 564.003200
    646    647   1378     1   115.1800491 558.982400
    647   1378   1377     1   120.6900519 530.531200
    648    649    650     1   111.6100477 551.451200
    651    645   1352     1   123.0500530 620.905600
    652    647   1378     1   123.0500530 620.905600
    667    668    670     1   114.2100488 537.225600
    667    669    672     1   114.2100488 537.225600
    667    674    675     1   114.2100488 537.225600
    668    667    669     1   109.6600471 523.836800
    668    667    674     1   109.6600471 523.836800
    668    670    671     1   111.0400475 529.694400
    669    667    674     1   109.6600471 523.836800
    669    672    673     1   111.0400475 529.694400
    670    671    677     1   123.2000528 564.003200
    670    671   1404     1   115.1800491 558.982400
    671   1404   1403     1   120.6900519 530.531200
    672    673    678     1   123.2000528 564.003200
    672    673   1430     1   115.1800491 558.982400
    673   1430   1429     1   120.6900519 530.531200
    674    675    676     1   111.6100477 551.451200
    677    671   1404     1   123.0500530 620.905600
    678    673   1430     1   123.0500530 620.905600
    693    694    696     1   114.2100488 537.225600
    693    695    698     1   114.2100488 537.225600
    693    700    701     1   114.2100488 537.225600
    694    693    695     1   109.6600471 523.836800
    694    693    700     1   109.6600471 523.836800
    694    696    697     1   111.0400475 529.694400
    695    693    700     1   109.6600471 523.836800
    695    698    699     1   111.0400475 529.694400
    696    697    703     1   123.2000528 564.003200
    696    697   1456     1   115.1800491 558.982400
    697   1456   1455     1   120.6900519 530.531200
    698    699    704     1   123.2000528 564.003200
    698    699   1482     1   115.1800491 558.982400
    699   1482   1481     1   120.6900519 530.531200
    700    701    702     1   111.6100477 551.451200
    703    697   1456     1   123.0500530 620.905600
    704    699   1482     1   123.0500530 620.905600
    719    720    722     1   114.2100488 537.225600
    719    721    724     1   114.2100488 537.225600
    719    726    727     1   114.2100488 537.225600
    720    719    721     1   109.6600471 523.836800
    720    719    726     1   109.6600471 523.836800
    720    722    723     1   111.0400475 529.694400
    721    719    726     1   109.6600471 523.836800
    721    724    725     1   111.0400475 529.694400
    722    723    729     1   123.2000528 564.003200
    722    723   1508     1   115.1800491 558.982400
    723   1508   1507     1   120.6900519 530.531200
    724    725    730     1   123.2000528 564.003200
    724    725   1534     1   115.1800491 558.982400
    725   1534   1533     1   120.6900519 530.531200
    726    727    728     1   111.6100477 551.451200
    729    723   1508     1   123.0500530 620.905600
    730    725   1534     1   123.0500530 620.905600
    745    746    748     1   114.2100488 537.225600
    745    747    750     1   114.2100488 537.225600
    745    752    753     1   114.2100488 537.225600
    746    745    747     1   109.6600471 523.836800
    746    745    752     1   109.6600471 523.836800
    746    748    749     1   111.0400475 529.694400
    747    745    752     1   109.6600471 523.836800
    747    750    751     1   111.0400475 529.694400
    748    749    755     1   123.2000528 564.003200
    748    749   1560     1   115.1800491 558.982400
    749   1560   1559     1   120.6900519 530.531200
    750    751    756     1   123.2000528 564.003200
    750    751   1586     1   115.1800491 558.982400
    751   1586   1585     1   120.6900519 530.531200
    752    753    754     1   111.6100477 551.451200
    755    749   1560     1   123.0500530 620.905600
    756    751   1586     1   123.0500530 620.905600
    771    772    774     1   114.2100488 537.225600
    771    773    776     1   114.2100488 537.225600
    771    778    779     1   114.2100488 537.225600
    772    771    773     1   109.6600471 523.836800
    772    771    778     1   109.6600471 523.836800
    772    774    775     1   111.0400475 529.694400
    773    771    778     1   109.6600471 523.836800
    773    776    777     1   111.0400475 529.694400
    774    775   1603     1   115.1800491 558.982400
    774    775    781     1   123.2000528 564.003200
    775   1603   1605     1   120.6900519 530.531200
    776    777    782     1   123.2000528 564.003200
    776    777   1615     1   115.1800491 558.982400
    777   1615   1617     1   120.6900519 530.531200
    778    779    780     1   111.6100477 551.451200
    781    775   1603     1   123.0500530 620.905600
    782    777   1615     1   123.0500530 620.905600
    797    798    800     1   114.2100488 537.225600
    797    799    802     1   114.2100488 537.225600
    797    804    805     1   114.2100488 537.225600
    798    797    799     1   109.6600471 523.836800
    798    797    804     1   109.6600471 523.836800
    798    800    801     1   111.0400475 529.694400
    799    797    804     1   109.6600471 523.836800
    799    802    803     1   111.0400475 529.694400
    800    801   1627     1   115.1800491 558.982400
    800    801    807     1   123.2000528 564.003200
    801   1627   1629     1   120.6900519 530.531200
    802    803    808     1   123.2000528 564.003200
    802    803   1639     1   115.1800491 558.982400
    803   1639   1641     1   120.6900519 530.531200
    804    805    806     1   111.6100477 551.451200
    807    801   1627     1   123.0500530 620.905600
    808    803   1639     1   123.0500530 620.905600
    823    824    826     1   114.2100488 537.225600
    823    825    828     1   114.2100488 537.225600
    823    830    831     1   114.2100488 537.225600
    824    823    825     1   109.6600471 523.836800
    824    823    830     1   109.6600471 523.836800
    824    826    827     1   111.0400475 529.694400
    825    823    830     1   109.6600471 523.836800
    825    828    829     1   111.0400475 529.694400
    826    827   1651     1   115.1800491 558.982400
    826    827    833     1   123.2000528 564.003200
    827   1651   1653     1   120.6900519 530.531200
    828    829    834     1   123.2000528 564.003200
    828    829   1663     1   115.1800491 558.982400
    829   1663   1665     1   120.6900519 530.531200
    830    831    832     1   111.6100477 551.451200
    833    827   1651     1   123.0500530 620.905600
    834    829   1663     1   123.0500530 620.905600
    849    850    852     1   114.2100488 537.225600
    849    851    854     1   114.2100488 537.225600
    849    856    857     1   114.2100488 537.225600
    850    849    851     1   109.6600471 523.836800
    850    849    856     1   109.6600471 523.836800
    850    852    853     1   111.0400475 529.694400
    851    849    856     1   109.6600471 523.836800
    851    854    855     1   111.0400475 529.694400
    852    853   1675     1   115.1800491 558.982400
    852    853    859     1   123.2000528 564.003200
    853   1675   1677     1   120.6900519 530.531200
    854    855    860     1   123.2000528 564.003200
    854    855   1687     1   115.1800491 558.982400
    855   1687   1689     1   120.6900519 530.531200
    856    857    858     1   111.6100477 551.451200
    859    853   1675     1   123.0500530 620.905600
    860    855   1687     1   123.0500530 620.905600
    875    876    878     1   114.2100488 537.225600
    875    877    880     1   114.2100488 537.225600
    875    882    883     1   114.2100488 537.225600
    876    875    877     1   109.6600471 523.836800
    876    875    882     1   109.6600471 523.836800
    876    878    879     1   111.0400475 529.694400
    877    875    882     1   109.6600471 523.836800
    877    880    881     1   111.0400475 529.694400
    878    879   1699     1   115.1800491 558.982400
    878    879    885     1   123.2000528 564.003200
    879   1699   1701     1   120.6900519 530.531200
    880    881    886     1   123.2000528 564.003200
    880    881   1711     1   115.1800491 558.982400
    881   1711   1713     1   120.6900519 530.531200
    882    883    884     1   111.6100477 551.451200
    885    879   1699     1   123.0500530 620.905600
    886    881   1711     1   123.0500530 620.905600
    901    902    904     1   114.2100488 537.225600
    901    903    906     1   114.2100488 537.225600
    901    908    909     1   114.2100488 537.225600
    902    901    903     1   109.6600471 523.836800
    902    901    908     1   109.6600471 523.836800
    902    904    905     1   111.0400475 529.694400
    903    901    908     1   109.6600471 523.836800
    903    906    907     1   111.0400475 529.694400
    904    905   1723     1   115.1800491 558.982400
    904    905    911     1   123.2000528 564.003200
    905   1723   1725     1   120.6900519 530.531200
    906    907    912     1   123.2000528 564.003200
    906    907   1735     1   115.1800491 558.982400
    907   1735   1737     1   120.6900519 530.531200
    908    909    910     1   111.6100477 551.451200
    911    905   1723     1   123.0500530 620.905600
    912    907   1735     1   123.0500530 620.905600
    927    928    930     1   114.2100488 537.225600
    927    929    932     1   114.2100488 537.225600
    927    934    935     1   114.2100488 537.225600
    928    927    929     1   109.6600471 523.836800
    928    927    934     1   109.6600471 523.836800
    928    930    931     1   111.0400475 529.694400
    929    927    934     1   109.6600471 523.836800
    929    932    933     1   111.0400475 529.694400
    930    931   1747     1   115.1800491 558.982400
    930    931    937     1   123.2000528 564.003200
    931   1747   1749     1   120.6900519 530.531200
    932    933    938     1   123.2000528 564.003200
    932    933   1759     1   115.1800491 558.982400
    933   1759   1761     1   120.6900519 530.531200
    934    935    936     1   111.6100477 551.451200
    937    931   1747     1   123.0500530 620.905600
    938    933   1759     1   123.0500530 620.905600
    953    954    956     1   114.2100488 537.225600
    953    955    958     1   114.2100488 537.225600
    953    960    961     1   114.2100488 537.225600
    954    953    955     1   109.6600471 523.836800
    954    953    960     1   109.6600471 523.836800
    954    956    957     1   111.0400475 529.694400
    955    953    960     1   109.6600471 523.836800
    955    958    959     1   111.0400475 529.694400
    956    957   1771     1   115.1800491 558.982400
    956    957    963     1   123.2000528 564.003200
    957   1771   1773     1   120.6900519 530.531200
    958    959    964     1   123.2000528 564.003200
    958    959   1783     1   115.1800491 558.982400
    959   1783   1785     1   120.6900519 530.531200
    960    961    962     1   111.6100477 551.451200
    963    957   1771     1   123.0500530 620.905600
    964    959   1783     1   123.0500530 620.905600
    979    980    982     1   114.2100488 537.225600
    979    981    984     1   114.2100488 537.225600
    979    986    987     1   114.2100488 537.225600
    980    979    981     1   109.6600471 523.836800
    980    979    986     1   109.6600471 523.836800
    980    982    983     1   111.0400475 529.694400
    981    979    986     1   109.6600471 523.836800
    981    984    985     1   111.0400475 529.694400
    982    983   1795     1   115.1800491 558.982400
    982    983    989     1   123.2000528 564.003200
    983   1795   1797     1   120.6900519 530.531200
    984    985    990     1   123.2000528 564.003200
    984    985   1807     1   115.1800491 558.982400
    985   1807   1809     1   120.6900519 530.531200
    986    987    988     1   111.6100477 551.451200
    989    983   1795     1   123.0500530 620.905600
    990    985   1807     1   123.0500530 620.905600
   1005   1006   1008     1   114.2100488 537.225600
   1005   1007   1010     1   114.2100488 537.225600
   1005   1012   1013     1   114.2100488 537.225600
   1006   1005   1007     1   109.6600471 523.836800
   1006   1005   1012     1   109.6600471 523.836800
   1006   1008   1009     1   111.0400475 529.694400
   1007   1005   1012     1   109.6600471 523.836800
   1007   1010   1011     1   111.0400475 529.694400
   1008   1009   1819     1   115.1800491 558.982400
   1008   1009   1015     1   123.2000528 564.003200
   1009   1819   1821     1   120.6900519 530.531200
   1010   1011   1016     1   123.2000528 564.003200
   1010   1011   1831     1   115.1800491 558.982400
   1011   1831   1833     1   120.6900519 530.531200
   1012   1013   1014     1   111.6100477 551.451200
   1015   1009   1819     1   123.0500530 620.905600
   1016   1011   1831     1   123.0500530 620.905600
   1031   1032   1034     1   114.2100488 537.225600
   1031   1033   1036     1   114.2100488 537.225600
   1031   1038   1039     1   114.2100488 537.225600
   1032   1031   1033     1   109.6600471 523.836800
   1032   1031   1038     1   109.6600471 523.836800
   1032   1034   1035     1   111.0400475 529.694400
   1033   1031   1038     1   109.6600471 523.836800
   1033   1036   1037     1   111.0400475 529.694400
   1034   1035   1843     1   115.1800491 558.982400
   1034   1035   1041     1   123.2000528 564.003200
   1035   1843   1845     1   120.6900519 530.531200
   1036   1037   1042     1   123.2000528 564.003200
   1036   1037   1855     1   115.1800491 558.982400
   1037   1855   1857     1   120.6900519 530.531200
   1038   1039   1040     1   111.6100477 551.451200
   1041   1035   1843     1   123.0500530 620.905600
   1042   1037   1855     1   123.0500530 620.905600
   1057   1058   1060     1   114.2100488 537.225600
   1057   1059   1062     1   114.2100488 537.225600
   1057   1064   1065     1   114.2100488 537.225600
   1058   1057   1059     1   109.6600471 523.836800
   1058   1057   1064     1   109.6600471 523.836800
   1058   1060   1061     1   111.0400475 529.694400
   1059   1057   1064     1   109.6600471 523.836800
   1059   1062   1063     1   111.0400475 529.694400
   1060   1061   1867     1   115.1800491 558.982400
   1060   1061   1067     1   123.2000528 564.003200
   1061   1867   1869     1   120.6900519 530.531200
   1062   1063   1068     1   123.2000528 564.003200
   1062   1063   1879     1   115.1800491 558.982400
   1063   1879   1881     1   120.6900519 530.531200
   1064   1065   1066     1   111.6100477 551.451200
   1067   1061   1867     1   123.0500530 620.905600
   1068   1063   1879     1   123.0500530 620.905600
   1083   1084   1086     1   114.2100488 537.225600
   1083   1085   1088     1   114.2100488 537.225600
   1083   1090   1091     1   114.2100488 537.225600
   1084   1083   1085     1   109.6600471 523.836800
   1084   1083   1090     1   109.6600471 523.836800
   1084   1086   1087     1   111.0400475 529.694400
   1085   1083   1090     1   109.6600471 523.836800
   1085   1088   1089     1   111.0400475 529.694400
   1086   1087   1891     1   115.1800491 558.982400
   1086   1087   1093     1   123.2000528 564.003200
   1087   1891   1893     1   120.6900519 530.531200
   1088   1089   1094     1   123.2000528 564.003200
   1088   1089   1903     1   115.1800491 558.982400
   1089   1903   1905     1   120.6900519 530.531200
   1090   1091   1092     1   111.6100477 551.451200
   1093   1087   1891     1   123.0500530 620.905600
   1094   1089   1903     1   123.0500530 620.905600
   1109   1110   1112     1   114.2100488 537.225600
   1109   1111   1114     1   114.2100488 537.225600
   1109   1116   1117     1   114.2100488 537.225600
   1110   1109   1111     1   109.6600471 523.836800
   1110   1109   1116     1   109.6600471 523.836800
   1110   1112   1113     1   111.0400475 529.694400
   1111   1109   1116     1   109.6600471 523.836800
   1111   1114   1115     1   111.0400475 529.694400
   1112   1113   1915     1   115.1800491 558.982400
   1112   1113   1119     1   123.2000528 564.003200
   1113   1915   1917     1   120.6900519 530.531200
   1114   1115   1120     1   123.2000528 564.003200
   1114   1115   1927     1   115.1800491 558.982400
   1115   1927   1929     1   120.6900519 530.531200
   1116   1117   1118     1   111.6100477 551.451200
   1119   1113   1915     1   123.0500530 620.905600
   1120   1115   1927     1   123.0500530 620.905600
   1135   1136   1138     1   114.2100488 537.225600
   1135   1137   1140     1   114.2100488 537.225600
   1135   1142   1143     1   114.2100488 537.225600
   1136   1135   1137     1   109.6600471 523.836800
   1136   1135   1142     1   109.6600471 523.836800
   1136   1138   1139     1   111.0400475 529.694400
   1137   1135   1142     1   109.6600471 523.836800
   1137   1140   1141     1   111.0400475 529.694400
   1138   1139   1939     1   115.1800491 558.982400
   1138   1139   1145     1   123.2000528 564.003200
   1139   1939   1941     1   120.6900519 530.531200
   1140   1141   1146     1   123.2000528 564.003200
   1140   1141   1951     1   115.1800491 558.982400
   1141   1951   1953     1   120.6900519 530.531200
   1142   1143   1144     1   111.6100477 551.451200
   1145   1139   1939     1   123.0500530 620.905600
   1146   1141   1951     1   123.0500530 620.905600
   1161   1162   1164     1   114.2100488 537.225600
   1161   1163   1166     1   114.2100488 537.225600
   1161   1168   1169     1   114.2100488 537.225600
   1162   1161   1163     1   109.6600471 523.836800
   1162   1161   1168     1   109.6600471 523.836800
   1162   1164   1165     1   111.0400475 529.694400
   1163   1161   1168     1   109.6600471 523.836800
   1163   1166   1167     1   111.0400475 529.694400
   1164   1165   1963     1   115.1800491 558.982400
   1164   1165   1171     1   123.2000528 564.003200
   1165   1963   1965     1   120.6900519 530.531200
   1166   1167   1172     1   123.2000528 564.003200
   1166   1167   1975     1   115.1800491 558.982400
   1167   1975   1977     1   120.6900519 530.531200
   1168   1169   1170     1   111.6100477 551.451200
   1171   1165   1963     1   123.0500530 620.905600
   1172   1167   1975     1   123.0500530 620.905600
   1187   1188   1190     1   114.2100488 537.225600
   1187   1189   1192     1   114.2100488 537.225600
   1187   1194   1195     1   114.2100488 537.225600
   1188   1187   1189     1   109.6600471 523.836800
   1188   1187   1194     1   109.6600471 523.836800
   1188   1190   1191     1   111.0400475 529.694400
   1189   1187   1194     1   109.6600471 523.836800
   1189   1192   1193     1   111.0400475 529.694400
   1190   1191   1987     1   115.1800491 558.982400
   1190   1191   1197     1   123.2000528 564.003200
   1191   1987   1989     1   120.6900519 530.531200
   1192   1193   1198     1   123.2000528 564.003200
   1192   1193   1999     1   115.1800491 558.982400
   1193   1999   2001     1   120.6900519 530.531200
   1194   1195   1196     1   111.6100477 551.451200
   1197   1191   1987     1   123.0500530 620.905600
   1198   1193   1999     1   123.0500530 620.905600
   1213   1214   1216     1   114.2100488 537.225600
   1213   1215   1218     1   114.2100488 537.225600
   1213   1220   1221     1   114.2100488 537.225600
   1214   1213   1215     1   109.6600471 523.836800
   1214   1213   1220     1   109.6600471 523.836800
   1214   1216   1217     1   111.0400475 529.694400
   1215   1213   1220     1   109.6600471 523.836800
   1215   1218   1219     1   111.0400475 529.694400
   1216   1217   2011     1   115.1800491 558.982400
   1216   1217   1223     1   123.2000528 564.003200
   1217   2011   2013     1   120.6900519 530.531200
   1218   1219   1224     1   123.2000528 564.003200
   1218   1219   2023     1   115.1800491 558.982400
   1219   2023   2025     1   120.6900519 530.531200
   1220   1221   1222     1   111.6100477 551.451200
   1223   1217   2011     1   123.0500530 620.905600
   1224   1219   2023     1   123.0500530 620.905600
   1239   1240   1242     1   114.2100488 537.225600
   1239   1241   1244     1   114.2100488 537.225600
   1239   1246   1247     1   114.2100488 537.225600
   1240   1239   1241     1   109.6600471 523.836800
   1240   1239   1246     1   109.6600471 523.836800
   1240   1242   1243     1   111.0400475 529.694400
   1241   1239   1246     1   109.6600471 523.836800
   1241   1244   1245     1   111.0400475 529.694400
   1242   1243   2035     1   115.1800491 558.982400
   1242   1243   1249     1   123.2000528 564.003200
   1243   2035   2037     1   120.6900519 530.531200
   1244   1245   1250     1   123.2000528 564.003200
   1244   1245   2047     1   115.1800491 558.982400
   1245   2047   2049     1   120.6900519 530.531200
   1246   1247   1248     1   111.6100477 551.451200
   1249   1243   2035     1   123.0500530 620.905600
   1250   1245   2047     1   123.0500530 620.905600
   1265   1266   1268     1   114.2100488 537.225600
   1265   1267   1270     1   114.2100488 537.225600
   1265   1272   1273     1   114.2100488 537.225600
   1266   1265   1267     1   109.6600471 523.836800
   1266   1265   1272     1   109.6600471 523.836800
   1266   1268   1269     1   111.0400475 529.694400
   1267   1265   1272     1   109.6600471 523.836800
   1267   1270   1271     1   111.0400475 529.694400
   1268   1269   2059     1   115.1800491 558.982400
   1268   1269   1275     1   123.2000528 564.003200
   1269   2059   2061     1   120.6900519 530.531200
   1270   1271   1276     1   123.2000528 564.003200
   1270   1271   2071     1   115.1800491 558.982400
   1271   2071   2073     1   120.6900519 530.531200
   1272   1273   1274     1   111.6100477 551.451200
   1275   1269   2059     1   123.0500530 620.905600
   1276   1271   2071     1   123.0500530 620.905600
   1291   1292   1294     1   114.2100488 537.225600
   1291   1293   1296     1   114.2100488 537.225600
   1291   1298   1299     1   114.2100488 537.225600
   1292   1291   1293     1   109.6600471 523.836800
   1292   1291   1298     1   109.6600471 523.836800
   1292   1294   1295     1   111.0400475 529.694400
   1293   1291   1298     1   109.6600471 523.836800
   1293   1296   1297     1   111.0400475 529.694400
   1294   1295   2083     1   115.1800491 558.982400
   1294   1295   1301     1   123.2000528 564.003200
   1295   2083   2085     1   120.6900519 530.531200
   1296   1297   1302     1   123.2000528 564.003200
   1296   1297   2095     1   115.1800491 558.982400
   1297   2095   2097     1   120.6900519 530.531200
   1298   1299   1300     1   111.6100477 551.451200
   1301   1295   2083     1   123.0500530 620.905600
   1302   1297   2095     1   123.0500530 620.905600
   1317   1318   1320     1   114.2100488 537.225600
   1317   1319   1322     1   114.2100488 537.225600
   1317   1324   1325     1   114.2100488 537.225600
   1318   1317   1319     1   109.6600471 523.836800
   1318   1317   1324     1   109.6600471 523.836800
   1318   1320   1321     1   111.0400475 529.694400
   1319   1317   1324     1   109.6600471 523.836800
   1319   1322   1323     1   111.0400475 529.694400
   1320   1321   2107     1   115.1800491 558.982400
   1320   1321   1327     1   123.2000528 564.003200
   1321   2107   2109     1   120.6900519 530.531200
   1322   1323   1328     1   123.2000528 564.003200
   1322   1323   2119     1   115.1800491 558.982400
   1323   2119   2121     1   120.6900519 530.531200
   1324   1325   1326     1   111.6100477 551.451200
   1327   1321   2107     1   123.0500530 620.905600
   1328   1323   2119     1   123.0500530 620.905600
   1343   1344   1346     1   114.2100488 537.225600
   1343   1345   1348     1   114.2100488 537.225600
   1343   1350   1351     1   114.2100488 537.225600
   1344   1343   1345     1   109.6600471 523.836800
   1344   1343   1350     1   109.6600471 523.836800
   1344   1346   1347     1   111.0400475 529.694400
   1345   1343   1350     1   109.6600471 523.836800
   1345   1348   1349     1   111.0400475 529.694400
   1346   1347   2131     1   115.1800491 558.982400
   1346   1347   1353     1   123.2000528 564.003200
   1347   2131   2133     1   120.6900519 530.531200
   1348   1349   1354     1   123.2000528 564.003200
   1348   1349   2143     1   115.1800491 558.982400
   1349   2143   2145     1   120.6900519 530.531200
   1350   1351   1352     1   111.6100477 551.451200
   1353   1347   2131     1   123.0500530 620.905600
   1354   1349   2143     1   123.0500530 620.905600
   1369   1370   1372     1   114.2100488 537.225600
   1369   1371   1374     1   114.2100488 537.225600
   1369   1376   1377     1   114.2100488 537.225600
   1370   1369   1371     1   109.6600471 523.836800
   1370   1369   1376     1   109.6600471 523.836800
   1370   1372   1373     1   111.0400475 529.694400
   1371   1369   1376     1   109.6600471 523.836800
   1371   1374   1375     1   111.0400475 529.694400
   1372   1373   2155     1   115.1800491 558.982400
   1372   1373   1379     1   123.2000528 564.003200
   1373   2155   2157     1   120.6900519 530.531200
   1374   1375   1380     1   123.2000528 564.003200
   1374   1375   2167     1   115.1800491 558.982400
   1375   2167   2169     1   120.6900519 530.531200
   1376   1377   1378     1   111.6100477 551.451200
   1379   1373   2155     1   123.0500530 620.905600
   1380   1375   2167     1   123.0500530 620.905600
   1395   1396   1398     1   114.2100488 537.225600
   1395   1397   1400     1   114.2100488 537.225600
   1395   1402   1403     1   114.2100488 537.225600
   1396   1395   1397     1   109.6600471 523.836800
   1396   1395   1402     1   109.6600471 523.836800
   1396   1398   1399     1   111.0400475 529.694400
   1397   1395   1402     1   109.6600471 523.836800
   1397   1400   1401     1   111.0400475 529.694400
   1398   1399   2179     1   115.1800491 558.982400
   1398   1399   1405     1   123.2000528 564.003200
   1399   2179   2181     1   120.6900519 530.531200
   1400   1401   1406     1   123.2000528 564.003200
   1400   1401   2191     1   115.1800491 558.982400
   1401   2191   2193     1   120.6900519 530.531200
   1402   1403   1404     1   111.6100477 551.451200
   1405   1399   2179     1   123.0500530 620.905600
   1406   1401   2191     1   123.0500530 620.905600
   1421   1422   1424     1   114.2100488 537.225600
   1421   1423   1426     1   114.2100488 537.225600
   1421   1428   1429     1   114.2100488 537.225600
   1422   1421   1423     1   109.6600471 523.836800
   1422   1421   1428     1   109.6600471 523.836800
   1422   1424   1425     1   111.0400475 529.694400
   1423   1421   1428     1   109.6600471 523.836800
   1423   1426   1427     1   111.0400475 529.694400
   1424   1425   2203     1   115.1800491 558.982400
   1424   1425   1431     1   123.2000528 564.003200
   1425   2203   2205     1   120.6900519 530.531200
   1426   1427   1432     1   123.2000528 564.003200
   1426   1427   2215     1   115.1800491 558.982400
   1427   2215   2217     1   120.6900519 530.531200
   1428   1429   1430     1   111.6100477 551.451200
   1431   1425   2203     1   123.0500530 620.905600
   1432   1427   2215     1   123.0500530 620.905600
   1447   1448   1450     1   114.2100488 537.225600
   1447   1449   1452     1   114.2100488 537.225600
   1447   1454   1455     1   114.2100488 537.225600
   1448   1447   1449     1   109.6600471 523.836800
   1448   1447   1454     1   109.6600471 523.836800
   1448   1450   1451     1   111.0400475 529.694400
   1449   1447   1454     1   109.6600471 523.836800
   1449   1452   1453     1   111.0400475 529.694400
   1450   1451   2227     1   115.1800491 558.982400
   1450   1451   1457     1   123.2000528 564.003200
   1451   2227   2229     1   120.6900519 530.531200
   1452   1453   1458     1   123.2000528 564.003200
   1452   1453   2239     1   115.1800491 558.982400
   1453   2239   2241     1   120.6900519 530.531200
   1454   1455   1456     1   111.6100477 551.451200
   1457   1451   2227     1   123.0500530 620.905600
   1458   1453   2239     1   123.0500530 620.905600
   1473   1474   1476     1   114.2100488 537.225600
   1473   1475   1478     1   114.2100488 537.225600
   1473   1480   1481     1   114.2100488 537.225600
   1474   1473   1475     1   109.6600471 523.836800
   1474   1473   1480     1   109.6600471 523.836800
   1474   1476   1477     1   111.0400475 529.694400
   1475   1473   1480     1   109.6600471 523.836800
   1475   1478   1479     1   111.0400475 529.694400
   1476   1477   2251     1   115.1800491 558.982400
   1476   1477   1483     1   123.2000528 564.003200
   1477   2251   2253     1   120.6900519 530.531200
   1478   1479   1484     1   123.2000528 564.003200
   1478   1479   2263     1   115.1800491 558.982400
   1479   2263   2265     1   120.6900519 530.531200
   1480   1481   1482     1   111.6100477 551.451200
   1483   1477   2251     1   123.0500530 620.905600
   1484   1479   2263     1   123.0500530 620.905600
   1499   1500   1502     1   114.2100488 537.225600
   1499   1501   1504     1   114.2100488 537.225600
   1499   1506   1507     1   114.2100488 537.225600
   1500   1499   1501     1   109.6600471 523.836800
   1500   1499   1506     1   109.6600471 523.836800
   1500   1502   1503     1   111.0400475 529.694400
   1501   1499   1506     1   109.6600471 523.836800
   1501   1504   1505     1   111.0400475 529.694400
   1502   1503   2275     1   115.1800491 558.982400
   1502   1503   1509     1   123.2000528 564.003200
   1503   2275   2277     1   120.6900519 530.531200
   1504   1505   1510     1   123.2000528 564.003200
   1504   1505   2287     1   115.1800491 558.982400
   1505   2287   2289     1   120.6900519 530.531200
   1506   1507   1508     1   111.6100477 551.451200
   1509   1503   2275     1   123.0500530 620.905600
   1510   1505   2287     1   123.0500530 620.905600
   1525   1526   1528     1   114.2100488 537.225600
   1525   1527   1530     1   114.2100488 537.225600
   1525   1532   1533     1   114.2100488 537.225600
   1526   1525   1527     1   109.6600471 523.836800
   1526   1525   1532     1   109.6600471 523.836800
   1526   1528   1529     1   111.0400475 529.694400
   1527   1525   1532     1   109.6600471 523.836800
   1527   1530   1531     1   111.0400475 529.694400
   1528   1529   2299     1   115.1800491 558.982400
   1528   1529   1535     1   123.2000528 564.003200
   1529   2299   2301     1   120.6900519 530.531200
   1530   1531   1536     1   123.2000528 564.003200
   1530   1531   2311     1   115.1800491 558.982400
   1531   2311   2313     1   120.6900519 530.531200
   1532   1533   1534     1   111.6100477 551.451200
   1535   1529   2299     1   123.0500530 620.905600
   1536   1531   2311     1   123.0500530 620.905600
   1551   1552   1554     1   114.2100488 537.225600
   1551   1553   1556     1   114.2100488 537.225600
   1551   1558   1559     1   114.2100488 537.225600
   1552   1551   1553     1   109.6600471 523.836800
   1552   1551   1558     1   109.6600471 523.836800
   1552   1554   1555     1   111.0400475 529.694400
   1553   1551   1558     1   109.6600471 523.836800
   1553   1556   1557     1   111.0400475 529.694400
   1554   1555   2323     1   115.1800491 558.982400
   1554   1555   1561     1   123.2000528 564.003200
   1555   2323   2325     1   120.6900519 530.531200
   1556   1557   1562     1   123.2000528 564.003200
   1556   1557   2335     1   115.1800491 558.982400
   1557   2335   2337     1   120.6900519 530.531200
   1558   1559   1560     1   111.6100477 551.451200
   1561   1555   2323     1   123.0500530 620.905600
   1562   1557   2335     1   123.0500530 620.905600
   1577   1578   1580     1   114.2100488 537.225600
   1577   1579   1582     1   114.2100488 537.225600
   1577   1584   1585     1   114.2100488 537.225600
   1578   1577   1579     1   109.6600471 523.836800
   1578   1577   1584     1   109.6600471 523.836800
   1578   1580   1581     1   111.0400475 529.694400
   1579   1577   1584     1   109.6600471 523.836800
   1579   1582   1583     1   111.0400475 529.694400
   1580   1581   2347     1   115.1800491 558.982400
   1580   1581   1587     1   123.2000528 564.003200
   1581   2347   2349     1   120.6900519 530.531200
   1582   1583   2359     1   115.1800491 558.982400
   1582   1583   1588     1   123.2000528 564.003200
   1583   2359   2361     1   120.6900519 530.531200
   1584   1585   1586     1   111.6100477 551.451200
   1587   1581   2347     1   123.0500530 620.905600
   1588   1583   2359     1   123.0500530 620.905600
   1603   1605   1606     1   111.6100477 551.451200
   1605   1606   1611     1   114.2100488 537.225600
   1615   1617   1618     1   111.6100477 551.451200
   1617   1618   1623     1   114.2100488 537.225600
   1627   1629   1630     1   111.6100477 551.451200
   1629   1630   1635     1   114.2100488 537.225600
   1639   1641   1642     1   111.6100477 551.451200
   1641   1642   1647     1   114.2100488 537.225600
   1651   1653   1654     1   111.6100477 551.451200
   1653   1654   1659     1   114.2100488 537.225600
   1663   1665   1666     1   111.6100477 551.451200
   1665   1666   1671     1   114.2100488 537.225600
   1675   1677   1678     1   111.6100477 551.451200
   1677   1678   1683     1   114.2100488 537.225600
   1687   1689   1690     1   111.6100477 551.451200
   1689   1690   1695     1   114.2100488 537.225600
   1699   1701   1702     1   111.6100477 551.451200
   1701   1702   1707     1   114.2100488 537.225600
   1711   1713   1714     1   111.6100477 551.451200
   1713   1714   1719     1   114.2100488 537.225600
   1723   1725   1726     1   111.6100477 551.451200
   1725   1726   1731     1   114.2100488 537.225600
   1735   1737   1738     1   111.6100477 551.451200
   1737   1738   1743     1   114.2100488 537.225600
   1747   1749   1750     1   111.6100477 551.451200
   1749   1750   1755     1   114.2100488 537.225600
   1759   1761   1762     1   111.6100477 551.451200
   1761   1762   1767     1   114.2100488 537.225600
   1771   1773   1774     1   111.6100477 551.451200
   1773   1774   1779     1   114.2100488 537.225600
   1783   1785   1786     1   111.6100477 551.451200
   1785   1786   1791     1   114.2100488 537.225600
   1795   1797   1798     1   111.6100477 551.451200
   1797   1798   1803     1   114.2100488 537.225600
   1807   1809   1810     1   111.6100477 551.451200
   1809   1810   1815     1   114.2100488 537.225600
   1819   1821   1822     1   111.6100477 551.451200
   1821   1822   1827     1   114.2100488 537.225600
   1831   1833   1834     1   111.6100477 551.451200
   1833   1834   1839     1   114.2100488 537.225600
   1843   1845   1846     1   111.6100477 551.451200
   1845   1846   1851     1   114.2100488 537.225600
   1855   1857   1858     1   111.6100477 551.451200
   1857   1858   1863     1   114.2100488 537.225600
   1867   1869   1870     1   111.6100477 551.451200
   1869   1870   1875     1   114.2100488 537.225600
   1879   1881   1882     1   111.6100477 551.451200
   1881   1882   1887     1   114.2100488 537.225600
   1891   1893   1894     1   111.6100477 551.451200
   1893   1894   1899     1   114.2100488 537.225600
   1903   1905   1906     1   111.6100477 551.451200
   1905   1906   1911     1   114.2100488 537.225600
   1915   1917   1918     1   111.6100477 551.451200
   1917   1918   1923     1   114.2100488 537.225600
   1927   1929   1930     1   111.6100477 551.451200
   1929   1930   1935     1   114.2100488 537.225600
   1939   1941   1942     1   111.6100477 551.451200
   1941   1942   1947     1   114.2100488 537.225600
   1951   1953   1954     1   111.6100477 551.451200
   1953   1954   1959     1   114.2100488 537.225600
   1963   1965   1966     1   111.6100477 551.451200
   1965   1966   1971     1   114.2100488 537.225600
   1975   1977   1978     1   111.6100477 551.451200
   1977   1978   1983     1   114.2100488 537.225600
   1987   1989   1990     1   111.6100477 551.451200
   1989   1990   1995     1   114.2100488 537.225600
   1999   2001   2002     1   111.6100477 551.451200
   2001   2002   2007     1   114.2100488 537.225600
   2011   2013   2014     1   111.6100477 551.451200
   2013   2014   2019     1   114.2100488 537.225600
   2023   2025   2026     1   111.6100477 551.451200
   2025   2026   2031     1   114.2100488 537.225600
   2035   2037   2038     1   111.6100477 551.451200
   2037   2038   2043     1   114.2100488 537.225600
   2047   2049   2050     1   111.6100477 551.451200
   2049   2050   2055     1   114.2100488 537.225600
   2059   2061   2062     1   111.6100477 551.451200
   2061   2062   2067     1   114.2100488 537.225600
   2071   2073   2074     1   111.6100477 551.451200
   2073   2074   2079     1   114.2100488 537.225600
   2083   2085   2086     1   111.6100477 551.451200
   2085   2086   2091     1   114.2100488 537.225600
   2095   2097   2098     1   111.6100477 551.451200
   2097   2098   2103     1   114.2100488 537.225600
   2107   2109   2110     1   111.6100477 551.451200
   2109   2110   2115     1   114.2100488 537.225600
   2119   2121   2122     1   111.6100477 551.451200
   2121   2122   2127     1   114.2100488 537.225600
   2131   2133   2134     1   111.6100477 551.451200
   2133   2134   2139     1   114.2100488 537.225600
   2143   2145   2146     1   111.6100477 551.451200
   2145   2146   2151     1   114.2100488 537.225600
   2155   2157   2158     1   111.6100477 551.451200
   2157   2158   2163     1   114.2100488 537.225600
   2167   2169   2170     1   111.6100477 551.451200
   2169   2170   2175     1   114.2100488 537.225600
   2179   2181   2182     1   111.6100477 551.451200
   2181   2182   2187     1   114.2100488 537.225600
   2191   2193   2194     1   111.6100477 551.451200
   2193   2194   2199     1   114.2100488 537.225600
   2203   2205   2206     1   111.6100477 551.451200
   2205   2206   2211     1   114.2100488 537.225600
   2215   2217   2218     1   111.6100477 551.451200
   2217   2218   2223     1   114.2100488 537.225600
   2227   2229   2230     1   111.6100477 551.451200
   2229   2230   2235     1   114.2100488 537.225600
   2239   2241   2242     1   111.6100477 551.451200
   2241   2242   2247     1   114.2100488 537.225600
   2251   2253   2254     1   111.6100477 551.451200
   2253   2254   2259     1   114.2100488 537.225600
   2263   2265   2266     1   111.6100477 551.451200
   2265   2266   2271     1   114.2100488 537.225600
   2275   2277   2278     1   111.6100477 551.451200
   2277   2278   2283     1   114.2100488 537.225600
   2287   2289   2290     1   111.6100477 551.451200
   2289   2290   2295     1   114.2100488 537.225600
   2299   2301   2302     1   111.6100477 551.451200
   2301   2302   2307     1   114.2100488 537.225600
   2311   2313   2314     1   111.6100477 551.451200
   2313   2314   2319     1   114.2100488 537.225600
   2323   2325   2326     1   111.6100477 551.451200
   2325   2326   2331     1   114.2100488 537.225600
   2335   2337   2338     1   111.6100477 551.451200
   2337   2338   2343     1   114.2100488 537.225600
   2347   2349   2350     1   111.6100477 551.451200
   2349   2350   2355     1   114.2100488 537.225600
   2359   2361   2362     1   111.6100477 551.451200
   2361   2362   2367     1   114.2100488 537.225600
      1      2     21     1   108.0100461 406.684800
      1      2     22     1   108.0100461 406.684800
      1      7     29     1   108.0100461 406.684800
      1      7     30     1   108.0100461 406.684800
      1      8     31     1   108.0100461 406.684800
      1      8     32     1   108.0100461 406.684800
      2      1     41     1   110.1100470 384.091200
      2      3     23     1   110.5600475 386.601600
      2      3     24     1   110.5600475 386.601600
      3      2     21     1   110.5600475 386.601600
      3      2     22     1   110.5600475 386.601600
      3      4     42     1   110.1100470 384.091200
      4      3     23     1   108.0100461 406.684800
      4      3     24     1   108.0100461 406.684800
      4      5     25     1   108.0100461 406.684800
      4      5     26     1   108.0100461 406.684800
      4      6     27     1   108.0100461 406.684800
      4      6     28     1   108.0100461 406.684800
      5      4     42     1   110.1100470 384.091200
      5     11     35     1   109.8000471 387.438400
      5     11     36     1   109.8000471 387.438400
      6      4     42     1   110.1100470 384.091200
      6      9     33     1   109.8000471 387.438400
      6      9     34     1   109.8000471 387.438400
      7      1     41     1   110.1100470 384.091200
      7     13     37     1   109.8000471 387.438400
      7     13     38     1   109.8000471 387.438400
      8      1     41     1   110.1100470 384.091200
      8     15     39     1   109.8000471 387.438400
      8     15     40     1   109.8000471 387.438400
      9      6     27     1   110.5600475 386.601600
      9      6     28     1   110.5600475 386.601600
     10      9     33     1   108.7700466 392.459200
     10      9     34     1   108.7700466 392.459200
     10     52     67     1   117.5500507 404.174400
     11      5     25     1   110.5600475 386.601600
     11      5     26     1   110.5600475 386.601600
     12     11     35     1   108.7700466 392.459200
     12     11     36     1   108.7700466 392.459200
     12     78     93     1   117.5500507 404.174400
     13      7     29     1   110.5600475 386.601600
     13      7     30     1   110.5600475 386.601600
     14     13     37     1   108.7700466 392.459200
     14     13     38     1   108.7700466 392.459200
     14    104    119     1   117.5500507 404.174400
     15      8     31     1   110.5600475 386.601600
     15      8     32     1   110.5600475 386.601600
     16     15     39     1   108.7700466 392.459200
     16     15     40     1   108.7700466 392.459200
     16    130    145     1   117.5500507 404.174400
     21      2     22     1   109.7500473 328.025600
     23      3     24     1   109.7500473 328.025600
     25      5     26     1   109.7500473 328.025600
     27      6     28     1   109.7500473 328.025600
     29      7     30     1   109.7500473 328.025600
     31      8     32     1   109.7500473 328.025600
     33      9     34     1   107.5800459 329.699200
     35     11     36     1   107.5800459 329.699200
     37     13     38     1   107.5800459 329.699200
     39     15     40     1   107.5800459 329.699200
     43     44     55     1   108.0100461 406.684800
     43     44     56     1   108.0100461 406.684800
     43     45     57     1   108.0100461 406.684800
     43     45     58     1   108.0100461 406.684800
     43     50     63     1   108.0100461 406.684800
     43     50     64     1   108.0100461 406.684800
     44     43     68     1   110.1100470 384.091200
     44     46     59     1   109.8000471 387.438400
     44     46     60     1   109.8000471 387.438400
     45     43     68     1   110.1100470 384.091200
     45     48     61     1   109.8000471 387.438400
     45     48     62     1   109.8000471 387.438400
     46     44     55     1   110.5600475 386.601600
     46     44     56     1   110.5600475 386.601600
     47     46     59     1   108.7700466 392.459200
     47     46     60     1   108.7700466 392.459200
     47    156    171     1   117.5500507 404.174400
     48     45     57     1   110.5600475 386.601600
     48     45     58     1   110.5600475 386.601600
     49     48     61     1   108.7700466 392.459200
     49     48     62     1   108.7700466 392.459200
     49    182    197     1   117.5500507 404.174400
     50     43     68     1   110.1100470 384.091200
     50     51     65     1   109.5600471 388.275200
     50     51     66     1   109.5600471 388.275200
     51     50     63     1   110.5600475 386.601600
     51     50     64     1   110.5600475 386.601600
     51     52     67     1   117.6800502 383.254400
     52     51     65     1   108.8800464 416.726400
     52     51     66     1   108.8800464 416.726400
     55     44     56     1   109.7500473 328.025600
     57     45     58     1   109.7500473 328.025600
     59     46     60     1   107.5800459 329.699200
     61     48     62     1   107.5800459 329.699200
     63     50     64     1   109.7500473 328.025600
     65     51     66     1   108.4600466 328.025600
     69     70     81     1   108.0100461 406.684800
     69     70     82     1   108.0100461 406.684800
     69     71     83     1   108.0100461 406.684800
     69     71     84     1   108.0100461 406.684800
     69     76     89     1   108.0100461 406.684800
     69     76     90     1   108.0100461 406.684800
     70     69     94     1   110.1100470 384.091200
     70     72     85     1   109.8000471 387.438400
     70     72     86     1   109.8000471 387.438400
     71     69     94     1   110.1100470 384.091200
     71     74     87     1   109.8000471 387.438400
     71     74     88     1   109.8000471 387.438400
     72     70     81     1   110.5600475 386.601600
     72     70     82     1   110.5600475 386.601600
     73     72     85     1   108.7700466 392.459200
     73     72     86     1   108.7700466 392.459200
     73    208    223     1   117.5500507 404.174400
     74     71     83     1   110.5600475 386.601600
     74     71     84     1   110.5600475 386.601600
     75     74     87     1   108.7700466 392.459200
     75     74     88     1   108.7700466 392.459200
     75    234    249     1   117.5500507 404.174400
     76     69     94     1   110.1100470 384.091200
     76     77     91     1   109.5600471 388.275200
     76     77     92     1   109.5600471 388.275200
     77     76     89     1   110.5600475 386.601600
     77     76     90     1   110.5600475 386.601600
     77     78     93     1   117.6800502 383.254400
     78     77     91     1   108.8800464 416.726400
     78     77     92     1   108.8800464 416.726400
     81     70     82     1   109.7500473 328.025600
     83     71     84     1   109.7500473 328.025600
     85     72     86     1   107.5800459 329.699200
     87     74     88     1   107.5800459 329.699200
     89     76     90     1   109.7500473 328.025600
     91     77     92     1   108.4600466 328.025600
     95     96    107     1   108.0100461 406.684800
     95     96    108     1   108.0100461 406.684800
     95     97    109     1   108.0100461 406.684800
     95     97    110     1   108.0100461 406.684800
     95    102    115     1   108.0100461 406.684800
     95    102    116     1   108.0100461 406.684800
     96     95    120     1   110.1100470 384.091200
     96     98    111     1   109.8000471 387.438400
     96     98    112     1   109.8000471 387.438400
     97     95    120     1   110.1100470 384.091200
     97    100    113     1   109.8000471 387.438400
     97    100    114     1   109.8000471 387.438400
     98     96    107     1   110.5600475 386.601600
     98     96    108     1   110.5600475 386.601600
     99     98    111     1   108.7700466 392.459200
     99     98    112     1   108.7700466 392.459200
     99    260    275     1   117.5500507 404.174400
    100     97    109     1   110.5600475 386.601600
    100     97    110     1   110.5600475 386.601600
    101    100    113     1   108.7700466 392.459200
    101    100    114     1   108.7700466 392.459200
    101    286    301     1   117.5500507 404.174400
    102     95    120     1   110.1100470 384.091200
    102    103    117     1   109.5600471 388.275200
    102    103    118     1   109.5600471 388.275200
    103    102    115     1   110.5600475 386.601600
    103    102    116     1   110.5600475 386.601600
    103    104    119     1   117.6800502 383.254400
    104    103    117     1   108.8800464 416.726400
    104    103    118     1   108.8800464 416.726400
    107     96    108     1   109.7500473 328.025600
    109     97    110     1   109.7500473 328.025600
    111     98    112     1   107.5800459 329.699200
    113    100    114     1   107.5800459 329.699200
    115    102    116     1   109.7500473 328.025600
    117    103    118     1   108.4600466 328.025600
    121    122    133     1   108.0100461 406.684800
    121    122    134     1   108.0100461 406.684800
    121    123    135     1   108.0100461 406.684800
    121    123    136     1   108.0100461 406.684800
    121    128    141     1   108.0100461 406.684800
    121    128    142     1   108.0100461 406.684800
    122    121    146     1   110.1100470 384.091200
    122    124    137     1   109.8000471 387.438400
    122    124    138     1   109.8000471 387.438400
    123    121    146     1   110.1100470 384.091200
    123    126    139     1   109.8000471 387.438400
    123    126    140     1   109.8000471 387.438400
    124    122    133     1   110.5600475 386.601600
    124    122    134     1   110.5600475 386.601600
    125    124    137     1   108.7700466 392.459200
    125    124    138     1   108.7700466 392.459200
    125    312    327     1   117.5500507 404.174400
    126    123    135     1   110.5600475 386.601600
    126    123    136     1   110.5600475 386.601600
    127    126    139     1   108.7700466 392.459200
    127    126    140     1   108.7700466 392.459200
    127    338    353     1   117.5500507 404.174400
    128    121    146     1   110.1100470 384.091200
    128    129    143     1   109.5600471 388.275200
    128    129    144     1   109.5600471 388.275200
    129    128    141     1   110.5600475 386.601600
    129    128    142     1   110.5600475 386.601600
    129    130    145     1   117.6800502 383.254400
    130    129    143     1   108.8800464 416.726400
    130    129    144     1   108.8800464 416.726400
    133    122    134     1   109.7500473 328.025600
    135    123    136     1   109.7500473 328.025600
    137    124    138     1   107.5800459 329.699200
    139    126    140     1   107.5800459 329.699200
    141    128    142     1   109.7500473 328.025600
    143    129    144     1   108.4600466 328.025600
    147    148    159     1   108.0100461 406.684800
    147    148    160     1   108.0100461 406.684800
    147    149    161     1   108.0100461 406.684800
    147    149    162     1   108.0100461 406.684800
    147    154    167     1   108.0100461 406.684800
    147    154    168     1   108.0100461 406.684800
    148    147    172     1   110.1100470 384.091200
    148    150    163     1   109.8000471 387.438400
    148    150    164     1   109.8000471 387.438400
    149    147    172     1   110.1100470 384.091200
    149    152    165     1   109.8000471 387.438400
    149    152    166     1   109.8000471 387.438400
    150    148    159     1   110.5600475 386.601600
    150    148    160     1   110.5600475 386.601600
    151    150    163     1   108.7700466 392.459200
    151    150    164     1   108.7700466 392.459200
    151    364    379     1   117.5500507 404.174400
    152    149    161     1   110.5600475 386.601600
    152    149    162     1   110.5600475 386.601600
    153    152    165     1   108.7700466 392.459200
    153    152    166     1   108.7700466 392.459200
    153    390    405     1   117.5500507 404.174400
    154    147    172     1   110.1100470 384.091200
    154    155    169     1   109.5600471 388.275200
    154    155    170     1   109.5600471 388.275200
    155    154    167     1   110.5600475 386.601600
    155    154    168     1   110.5600475 386.601600
    155    156    171     1   117.6800502 383.254400
    156    155    169     1   108.8800464 416.726400
    156    155    170     1   108.8800464 416.726400
    159    148    160     1   109.7500473 328.025600
    161    149    162     1   109.7500473 328.025600
    163    150    164     1   107.5800459 329.699200
    165    152    166     1   107.5800459 329.699200
    167    154    168     1   109.7500473 328.025600
    169    155    170     1   108.4600466 328.025600
    173    174    185     1   108.0100461 406.684800
    173    174    186     1   108.0100461 406.684800
    173    175    187     1   108.0100461 406.684800
    173    175    188     1   108.0100461 406.684800
    173    180    193     1   108.0100461 406.684800
    173    180    194     1   108.0100461 406.684800
    174    173    198     1   110.1100470 384.091200
    174    176    189     1   109.8000471 387.438400
    174    176    190     1   109.8000471 387.438400
    175    173    198     1   110.1100470 384.091200
    175    178    191     1   109.8000471 387.438400
    175    178    192     1   109.8000471 387.438400
    176    174    185     1   110.5600475 386.601600
    176    174    186     1   110.5600475 386.601600
    177    176    189     1   108.7700466 392.459200
    177    176    190     1   108.7700466 392.459200
    177    416    431     1   117.5500507 404.174400
    178    175    187     1   110.5600475 386.601600
    178    175    188     1   110.5600475 386.601600
    179    178    191     1   108.7700466 392.459200
    179    178    192     1   108.7700466 392.459200
    179    442    457     1   117.5500507 404.174400
    180    173    198     1   110.1100470 384.091200
    180    181    195     1   109.5600471 388.275200
    180    181    196     1   109.5600471 388.275200
    181    180    193     1   110.5600475 386.601600
    181    180    194     1   110.5600475 386.601600
    181    182    197     1   117.6800502 383.254400
    182    181    195     1   108.8800464 416.726400
    182    181    196     1   108.8800464 416.726400
    185    174    186     1   109.7500473 328.025600
    187    175    188     1   109.7500473 328.025600
    189    176    190     1   107.5800459 329.699200
    191    178    192     1   107.5800459 329.699200
    193    180    194     1   109.7500473 328.025600
    195    181    196     1   108.4600466 328.025600
    199    200    211     1   108.0100461 406.684800
    199    200    212     1   108.0100461 406.684800
    199    201    213     1   108.0100461 406.684800
    199    201    214     1   108.0100461 406.684800
    199    206    219     1   108.0100461 406.684800
    199    206    220     1   108.0100461 406.684800
    200    199    224     1   110.1100470 384.091200
    200    202    215     1   109.8000471 387.438400
    200    202    216     1   109.8000471 387.438400
    201    199    224     1   110.1100470 384.091200
    201    204    217     1   109.8000471 387.438400
    201    204    218     1   109.8000471 387.438400
    202    200    211     1   110.5600475 386.601600
    202    200    212     1   110.5600475 386.601600
    203    202    215     1   108.7700466 392.459200
    203    202    216     1   108.7700466 392.459200
    203    468    483     1   117.5500507 404.174400
    204    201    213     1   110.5600475 386.601600
    204    201    214     1   110.5600475 386.601600
    205    204    217     1   108.7700466 392.459200
    205    204    218     1   108.7700466 392.459200
    205    494    509     1   117.5500507 404.174400
    206    199    224     1   110.1100470 384.091200
    206    207    221     1   109.5600471 388.275200
    206    207    222     1   109.5600471 388.275200
    207    206    219     1   110.5600475 386.601600
    207    206    220     1   110.5600475 386.601600
    207    208    223     1   117.6800502 383.254400
    208    207    221     1   108.8800464 416.726400
    208    207    222     1   108.8800464 416.726400
    211    200    212     1   109.7500473 328.025600
    213    201    214     1   109.7500473 328.025600
    215    202    216     1   107.5800459 329.699200
    217    204    218     1   107.5800459 329.699200
    219    206    220     1   109.7500473 328.025600
    221    207    222     1   108.4600466 328.025600
    225    226    237     1   108.0100461 406.684800
    225    226    238     1   108.0100461 406.684800
    225    227    239     1   108.0100461 406.684800
    225    227    240     1   108.0100461 406.684800
    225    232    245     1   108.0100461 406.684800
    225    232    246     1   108.0100461 406.684800
    226    225    250     1   110.1100470 384.091200
    226    228    241     1   109.8000471 387.438400
    226    228    242     1   109.8000471 387.438400
    227    225    250     1   110.1100470 384.091200
    227    230    243     1   109.8000471 387.438400
    227    230    244     1   109.8000471 387.438400
    228    226    237     1   110.5600475 386.601600
    228    226    238     1   110.5600475 386.601600
    229    228    241     1   108.7700466 392.459200
    229    228    242     1   108.7700466 392.459200
    229    520    535     1   117.5500507 404.174400
    230    227    239     1   110.5600475 386.601600
    230    227    240     1   110.5600475 386.601600
    231    230    243     1   108.7700466 392.459200
    231    230    244     1   108.7700466 392.459200
    231    546    561     1   117.5500507 404.174400
    232    225    250     1   110.1100470 384.091200
    232    233    247     1   109.5600471 388.275200
    232    233    248     1   109.5600471 388.275200
    233    232    245     1   110.5600475 386.601600
    233    232    246     1   110.5600475 386.601600
    233    234    249     1   117.6800502 383.254400
    234    233    247     1   108.8800464 416.726400
    234    233    248     1   108.8800464 416.726400
    237    226    238     1   109.7500473 328.025600
    239    227    240     1   109.7500473 328.025600
    241    228    242     1   107.5800459 329.699200
    243    230    244     1   107.5800459 329.699200
    245    232    246     1   109.7500473 328.025600
    247    233    248     1   108.4600466 328.025600
    251    252    263     1   108.0100461 406.684800
    251    252    264     1   108.0100461 406.684800
    251    253    265     1   108.0100461 406.684800
    251    253    266     1   108.0100461 406.684800
    251    258    271     1   108.0100461 406.684800
    251    258    272     1   108.0100461 406.684800
    252    251    276     1   110.1100470 384.091200
    252    254    267     1   109.8000471 387.438400
    252    254    268     1   109.8000471 387.438400
    253    251    276     1   110.1100470 384.091200
    253    256    269     1   109.8000471 387.438400
    253    256    270     1   109.8000471 387.438400
    254    252    263     1   110.5600475 386.601600
    254    252    264     1   110.5600475 386.601600
    255    254    267     1   108.7700466 392.459200
    255    254    268     1   108.7700466 392.459200
    255    572    587     1   117.5500507 404.174400
    256    253    265     1   110.5600475 386.601600
    256    253    266     1   110.5600475 386.601600
    257    256    269     1   108.7700466 392.459200
    257    256    270     1   108.7700466 392.459200
    257    598    613     1   117.5500507 404.174400
    258    251    276     1   110.1100470 384.091200
    258    259    273     1   109.5600471 388.275200
    258    259    274     1   109.5600471 388.275200
    259    258    271     1   110.5600475 386.601600
    259    258    272     1   110.5600475 386.601600
    259    260    275     1   117.6800502 383.254400
    260    259    273     1   108.8800464 416.726400
    260    259    274     1   108.8800464 416.726400
    263    252    264     1   109.7500473 328.025600
    265    253    266     1   109.7500473 328.025600
    267    254    268     1   107.5800459 329.699200
    269    256    270     1   107.5800459 329.699200
    271    258    272     1   109.7500473 328.025600
    273    259    274     1   108.4600466 328.025600
    277    278    289     1   108.0100461 406.684800
    277    278    290     1   108.0100461 406.684800
    277    279    291     1   108.0100461 406.684800
    277    279    292     1   108.0100461 406.684800
    277    284    297     1   108.0100461 406.684800
    277    284    298     1   108.0100461 406.684800
    278    277    302     1   110.1100470 384.091200
    278    280    293     1   109.8000471 387.438400
    278    280    294     1   109.8000471 387.438400
    279    277    302     1   110.1100470 384.091200
    279    282    295     1   109.8000471 387.438400
    279    282    296     1   109.8000471 387.438400
    280    278    289     1   110.5600475 386.601600
    280    278    290     1   110.5600475 386.601600
    281    280    293     1   108.7700466 392.459200
    281    280    294     1   108.7700466 392.459200
    281    624    639     1   117.5500507 404.174400
    282    279    291     1   110.5600475 386.601600
    282    279    292     1   110.5600475 386.601600
    283    282    295     1   108.7700466 392.459200
    283    282    296     1   108.7700466 392.459200
    283    650    665     1   117.5500507 404.174400
    284    277    302     1   110.1100470 384.091200
    284    285    299     1   109.5600471 388.275200
    284    285    300     1   109.5600471 388.275200
    285    284    297     1   110.5600475 386.601600
    285    284    298     1   110.5600475 386.601600
    285    286    301     1   117.6800502 383.254400
    286    285    299     1   108.8800464 416.726400
    286    285    300     1   108.8800464 416.726400
    289    278    290     1   109.7500473 328.025600
    291    279    292     1   109.7500473 328.025600
    293    280    294     1   107.5800459 329.699200
    295    282    296     1   107.5800459 329.699200
    297    284    298     1   109.7500473 328.025600
    299    285    300     1   108.4600466 328.025600
    303    304    315     1   108.0100461 406.684800
    303    304    316     1   108.0100461 406.684800
    303    305    317     1   108.0100461 406.684800
    303    305    318     1   108.0100461 406.684800
    303    310    323     1   108.0100461 406.684800
    303    310    324     1   108.0100461 406.684800
    304    303    328     1   110.1100470 384.091200
    304    306    319     1   109.8000471 387.438400
    304    306    320     1   109.8000471 387.438400
    305    303    328     1   110.1100470 384.091200
    305    308    321     1   109.8000471 387.438400
    305    308    322     1   109.8000471 387.438400
    306    304    315     1   110.5600475 386.601600
    306    304    316     1   110.5600475 386.601600
    307    306    319     1   108.7700466 392.459200
    307    306    320     1   108.7700466 392.459200
    307    676    691     1   117.5500507 404.174400
    308    305    317     1   110.5600475 386.601600
    308    305    318     1   110.5600475 386.601600
    309    308    321     1   108.7700466 392.459200
    309    308    322     1   108.7700466 392.459200
    309    702    717     1   117.5500507 404.174400
    310    303    328     1   110.1100470 384.091200
    310    311    325     1   109.5600471 388.275200
    310    311    326     1   109.5600471 388.275200
    311    310    323     1   110.5600475 386.601600
    311    310    324     1   110.5600475 386.601600
    311    312    327     1   117.6800502 383.254400
    312    311    325     1   108.8800464 416.726400
    312    311    326     1   108.8800464 416.726400
    315    304    316     1   109.7500473 328.025600
    317    305    318     1   109.7500473 328.025600
    319    306    320     1   107.5800459 329.699200
    321    308    322     1   107.5800459 329.699200
    323    310    324     1   109.7500473 328.025600
    325    311    326     1   108.4600466 328.025600
    329    330    341     1   108.0100461 406.684800
    329    330    342     1   108.0100461 406.684800
    329    331    343     1   108.0100461 406.684800
    329    331    344     1   108.0100461 406.684800
    329    336    349     1   108.0100461 406.684800
    329    336    350     1   108.0100461 406.684800
    330    329    354     1   110.1100470 384.091200
    330    332    345     1   109.8000471 387.438400
    330    332    346     1   109.8000471 387.438400
    331    329    354     1   110.1100470 384.091200
    331    334    347     1   109.8000471 387.438400
    331    334    348     1   109.8000471 387.438400
    332    330    341     1   110.5600475 386.601600
    332    330    342     1   110.5600475 386.601600
    333    332    345     1   108.7700466 392.459200
    333    332    346     1   108.7700466 392.459200
    333    728    743     1   117.5500507 404.174400
    334    331    343     1   110.5600475 386.601600
    334    331    344     1   110.5600475 386.601600
    335    334    347     1   108.7700466 392.459200
    335    334    348     1   108.7700466 392.459200
    335    754    769     1   117.5500507 404.174400
    336    329    354     1   110.1100470 384.091200
    336    337    351     1   109.5600471 388.275200
    336    337    352     1   109.5600471 388.275200
    337    336    349     1   110.5600475 386.601600
    337    336    350     1   110.5600475 386.601600
    337    338    353     1   117.6800502 383.254400
    338    337    351     1   108.8800464 416.726400
    338    337    352     1   108.8800464 416.726400
    341    330    342     1   109.7500473 328.025600
    343    331    344     1   109.7500473 328.025600
    345    332    346     1   107.5800459 329.699200
    347    334    348     1   107.5800459 329.699200
    349    336    350     1   109.7500473 328.025600
    351    337    352     1   108.4600466 328.025600
    355    356    367     1   108.0100461 406.684800
    355    356    368     1   108.0100461 406.684800
    355    357    369     1   108.0100461 406.684800
    355    357    370     1   108.0100461 406.684800
    355    362    375     1   108.0100461 406.684800
    355    362    376     1   108.0100461 406.684800
    356    355    380     1   110.1100470 384.091200
    356    358    371     1   109.8000471 387.438400
    356    358    372     1   109.8000471 387.438400
    357    355    380     1   110.1100470 384.091200
    357    360    373     1   109.8000471 387.438400
    357    360    374     1   109.8000471 387.438400
    358    356    367     1   110.5600475 386.601600
    358    356    368     1   110.5600475 386.601600
    359    358    371     1   108.7700466 392.459200
    359    358    372     1   108.7700466 392.459200
    359    780    795     1   117.5500507 404.174400
    360    357    369     1   110.5600475 386.601600
    360    357    370     1   110.5600475 386.601600
    361    360    373     1   108.7700466 392.459200
    361    360    374     1   108.7700466 392.459200
    361    806    821     1   117.5500507 404.174400
    362    355    380     1   110.1100470 384.091200
    362    363    377     1   109.5600471 388.275200
    362    363    378     1   109.5600471 388.275200
    363    362    375     1   110.5600475 386.601600
    363    362    376     1   110.5600475 386.601600
    363    364    379     1   117.6800502 383.254400
    364    363    377     1   108.8800464 416.726400
    364    363    378     1   108.8800464 416.726400
    367    356    368     1   109.7500473 328.025600
    369    357    370     1   109.7500473 328.025600
    371    358    372     1   107.5800459 329.699200
    373    360    374     1   107.5800459 329.699200
    375    362    376     1   109.7500473 328.025600
    377    363    378     1   108.4600466 328.025600
    381    382    393     1   108.0100461 406.684800
    381    382    394     1   108.0100461 406.684800
    381    383    395     1   108.0100461 406.684800
    381    383    396     1   108.0100461 406.684800
    381    388    401     1   108.0100461 406.684800
    381    388    402     1   108.0100461 406.684800
    382    381    406     1   110.1100470 384.091200
    382    384    397     1   109.8000471 387.438400
    382    384    398     1   109.8000471 387.438400
    383    381    406     1   110.1100470 384.091200
    383    386    399     1   109.8000471 387.438400
    383    386    400     1   109.8000471 387.438400
    384    382    393     1   110.5600475 386.601600
    384    382    394     1   110.5600475 386.601600
    385    384    397     1   108.7700466 392.459200
    385    384    398     1   108.7700466 392.459200
    385    832    847     1   117.5500507 404.174400
    386    383    395     1   110.5600475 386.601600
    386    383    396     1   110.5600475 386.601600
    387    386    399     1   108.7700466 392.459200
    387    386    400     1   108.7700466 392.459200
    387    858    873     1   117.5500507 404.174400
    388    381    406     1   110.1100470 384.091200
    388    389    403     1   109.5600471 388.275200
    388    389    404     1   109.5600471 388.275200
    389    388    401     1   110.5600475 386.601600
    389    388    402     1   110.5600475 386.601600
    389    390    405     1   117.6800502 383.254400
    390    389    403     1   108.8800464 416.726400
    390    389    404     1   108.8800464 416.726400
    393    382    394     1   109.7500473 328.025600
    395    383    396     1   109.7500473 328.025600
    397    384    398     1   107.5800459 329.699200
    399    386    400     1   107.5800459 329.699200
    401    388    402     1   109.7500473 328.025600
    403    389    404     1   108.4600466 328.025600
    407    408    419     1   108.0100461 406.684800
    407    408    420     1   108.0100461 406.684800
    407    409    421     1   108.0100461 406.684800
    407    409    422     1   108.0100461 406.684800
    407    414    427     1   108.0100461 406.684800
    407    414    428     1   108.0100461 406.684800
    408    407    432     1   110.1100470 384.091200
    408    410    423     1   109.8000471 387.438400
    408    410    424     1   109.8000471 387.438400
    409    407    432     1   110.1100470 384.091200
    409    412    425     1   109.8000471 387.438400
    409    412    426     1   109.8000471 387.438400
    410    408    419     1   110.5600475 386.601600
    410    408    420     1   110.5600475 386.601600
    411    410    423     1   108.7700466 392.459200
    411    410    424     1   108.7700466 392.459200
    411    884    899     1   117.5500507 404.174400
    412    409    421     1   110.5600475 386.601600
    412    409    422     1   110.5600475 386.601600
    413    412    425     1   108.7700466 392.459200
    413    412    426     1   108.7700466 392.459200
    413    910    925     1   117.5500507 404.174400
    414    407    432     1   110.1100470 384.091200
    414    415    429     1   109.5600471 388.275200
    414    415    430     1   109.5600471 388.275200
    415    414    427     1   110.5600475 386.601600
    415    414    428     1   110.5600475 386.601600
    415    416    431     1   117.6800502 383.254400
    416    415    429     1   108.8800464 416.726400
    416    415    430     1   108.8800464 416.726400
    419    408    420     1   109.7500473 328.025600
    421    409    422     1   109.7500473 328.025600
    423    410    424     1   107.5800459 329.699200
    425    412    426     1   107.5800459 329.699200
    427    414    428     1   109.7500473 328.025600
    429    415    430     1   108.4600466 328.025600
    433    434    445     1   108.0100461 406.684800
    433    434    446     1   108.0100461 406.684800
    433    435    447     1   108.0100461 406.684800
    433    435    448     1   108.0100461 406.684800
    433    440    453     1   108.0100461 406.684800
    433    440    454     1   108.0100461 406.684800
    434    433    458     1   110.1100470 384.091200
    434    436    449     1   109.8000471 387.438400
    434    436    450     1   109.8000471 387.438400
    435    433    458     1   110.1100470 384.091200
    435    438    451     1   109.8000471 387.438400
    435    438    452     1   109.8000471 387.438400
    436    434    445     1   110.5600475 386.601600
    436    434    446     1   110.5600475 386.601600
    437    436    449     1   108.7700466 392.459200
    437    436    450     1   108.7700466 392.459200
    437    936    951     1   117.5500507 404.174400
    438    435    447     1   110.5600475 386.601600
    438    435    448     1   110.5600475 386.601600
    439    438    451     1   108.7700466 392.459200
    439    438    452     1   108.7700466 392.459200
    439    962    977     1   117.5500507 404.174400
    440    433    458     1   110.1100470 384.091200
    440    441    455     1   109.5600471 388.275200
    440    441    456     1   109.5600471 388.275200
    441    440    453     1   110.5600475 386.601600
    441    440    454     1   110.5600475 386.601600
    441    442    457     1   117.6800502 383.254400
    442    441    455     1   108.8800464 416.726400
    442    441    456     1   108.8800464 416.726400
    445    434    446     1   109.7500473 328.025600
    447    435    448     1   109.7500473 328.025600
    449    436    450     1   107.5800459 329.699200
    451    438    452     1   107.5800459 329.699200
    453    440    454     1   109.7500473 328.025600
    455    441    456     1   108.4600466 328.025600
    459    460    471     1   108.0100461 406.684800
    459    460    472     1   108.0100461 406.684800
    459    461    473     1   108.0100461 406.684800
    459    461    474     1   108.0100461 406.684800
    459    466    479     1   108.0100461 406.684800
    459    466    480     1   108.0100461 406.684800
    460    459    484     1   110.1100470 384.091200
    460    462    475     1   109.8000471 387.438400
    460    462    476     1   109.8000471 387.438400
    461    459    484     1   110.1100470 384.091200
    461    464    477     1   109.8000471 387.438400
    461    464    478     1   109.8000471 387.438400
    462    460    471     1   110.5600475 386.601600
    462    460    472     1   110.5600475 386.601600
    463    462    475     1   108.7700466 392.459200
    463    462    476     1   108.7700466 392.459200
    463    988   1003     1   117.5500507 404.174400
    464    461    473     1   110.5600475 386.601600
    464    461    474     1   110.5600475 386.601600
    465    464    477     1   108.7700466 392.459200
    465    464    478     1   108.7700466 392.459200
    465   1014   1029     1   117.5500507 404.174400
    466    459    484     1   110.1100470 384.091200
    466    467    481     1   109.5600471 388.275200
    466    467    482     1   109.5600471 388.275200
    467    466    479     1   110.5600475 386.601600
    467    466    480     1   110.5600475 386.601600
    467    468    483     1   117.6800502 383.254400
    468    467    481     1   108.8800464 416.726400
    468    467    482     1   108.8800464 416.726400
    471    460    472     1   109.7500473 328.025600
    473    461    474     1   109.7500473 328.025600
    475    462    476     1   107.5800459 329.699200
    477    464    478     1   107.5800459 329.699200
    479    466    480     1   109.7500473 328.025600
    481    467    482     1   108.4600466 328.025600
    485    486    497     1   108.0100461 406.684800
    485    486    498     1   108.0100461 406.684800
    485    487    499     1   108.0100461 406.684800
    485    487    500     1   108.0100461 406.684800
    485    492    505     1   108.0100461 406.684800
    485    492    506     1   108.0100461 406.684800
    486    485    510     1   110.1100470 384.091200
    486    488    501     1   109.8000471 387.438400
    486    488    502     1   109.8000471 387.438400
    487    485    510     1   110.1100470 384.091200
    487    490    503     1   109.8000471 387.438400
    487    490    504     1   109.8000471 387.438400
    488    486    497     1   110.5600475 386.601600
    488    486    498     1   110.5600475 386.601600
    489    488    501     1   108.7700466 392.459200
    489    488    502     1   108.7700466 392.459200
    489   1040   1055     1   117.5500507 404.174400
    490    487    499     1   110.5600475 386.601600
    490    487    500     1   110.5600475 386.601600
    491    490    503     1   108.7700466 392.459200
    491    490    504     1   108.7700466 392.459200
    491   1066   1081     1   117.5500507 404.174400
    492    485    510     1   110.1100470 384.091200
    492    493    507     1   109.5600471 388.275200
    492    493    508     1   109.5600471 388.275200
    493    492    505     1   110.5600475 386.601600
    493    492    506     1   110.5600475 386.601600
    493    494    509     1   117.6800502 383.254400
    494    493    507     1   108.8800464 416.726400
    494    493    508     1   108.8800464 416.726400
    497    486    498     1   109.7500473 328.025600
    499    487    500     1   109.7500473 328.025600
    501    488    502     1   107.5800459 329.699200
    503    490    504     1   107.5800459 329.699200
    505    492    506     1   109.7500473 328.025600
    507    493    508     1   108.4600466 328.025600
    511    512    523     1   108.0100461 406.684800
    511    512    524     1   108.0100461 406.684800
    511    513    525     1   108.0100461 406.684800
    511    513    526     1   108.0100461 406.684800
    511    518    531     1   108.0100461 406.684800
    511    518    532     1   108.0100461 406.684800
    512    511    536     1   110.1100470 384.091200
    512    514    527     1   109.8000471 387.438400
    512    514    528     1   109.8000471 387.438400
    513    511    536     1   110.1100470 384.091200
    513    516    529     1   109.8000471 387.438400
    513    516    530     1   109.8000471 387.438400
    514    512    523     1   110.5600475 386.601600
    514    512    524     1   110.5600475 386.601600
    515    514    527     1   108.7700466 392.459200
    515    514    528     1   108.7700466 392.459200
    515   1092   1107     1   117.5500507 404.174400
    516    513    525     1   110.5600475 386.601600
    516    513    526     1   110.5600475 386.601600
    517    516    529     1   108.7700466 392.459200
    517    516    530     1   108.7700466 392.459200
    517   1118   1133     1   117.5500507 404.174400
    518    511    536     1   110.1100470 384.091200
    518    519    533     1   109.5600471 388.275200
    518    519    534     1   109.5600471 388.275200
    519    518    531     1   110.5600475 386.601600
    519    518    532     1   110.5600475 386.601600
    519    520    535     1   117.6800502 383.254400
    520    519    533     1   108.8800464 416.726400
    520    519    534     1   108.8800464 416.726400
    523    512    524     1   109.7500473 328.025600
    525    513    526     1   109.7500473 328.025600
    527    514    528     1   107.5800459 329.699200
    529    516    530     1   107.5800459 329.699200
    531    518    532     1   109.7500473 328.025600
    533    519    534     1   108.4600466 328.025600
    537    538    549     1   108.0100461 406.684800
    537    538    550     1   108.0100461 406.684800
    537    539    551     1   108.0100461 406.684800
    537    539    552     1   108.0100461 406.684800
    537    544    557     1   108.0100461 406.684800
    537    544    558     1   108.0100461 406.684800
    538    537    562     1   110.1100470 384.091200
    538    540    553     1   109.8000471 387.438400
    538    540    554     1   109.8000471 387.438400
    539    537    562     1   110.1100470 384.091200
    539    542    555     1   109.8000471 387.438400
    539    542    556     1   109.8000471 387.438400
    540    538    549     1   110.5600475 386.601600
    540    538    550     1   110.5600475 386.601600
    541    540    553     1   108.7700466 392.459200
    541    540    554     1   108.7700466 392.459200
    541   1144   1159     1   117.5500507 404.174400
    542    539    551     1   110.5600475 386.601600
    542    539    552     1   110.5600475 386.601600
    543    542    555     1   108.7700466 392.459200
    543    542    556     1   108.7700466 392.459200
    543   1170   1185     1   117.5500507 404.174400
    544    537    562     1   110.1100470 384.091200
    544    545    559     1   109.5600471 388.275200
    544    545    560     1   109.5600471 388.275200
    545    544    557     1   110.5600475 386.601600
    545    544    558     1   110.5600475 386.601600
    545    546    561     1   117.6800502 383.254400
    546    545    559     1   108.8800464 416.726400
    546    545    560     1   108.8800464 416.726400
    549    538    550     1   109.7500473 328.025600
    551    539    552     1   109.7500473 328.025600
    553    540    554     1   107.5800459 329.699200
    555    542    556     1   107.5800459 329.699200
    557    544    558     1   109.7500473 328.025600
    559    545    560     1   108.4600466 328.025600
    563    564    575     1   108.0100461 406.684800
    563    564    576     1   108.0100461 406.684800
    563    565    577     1   108.0100461 406.684800
    563    565    578     1   108.0100461 406.684800
    563    570    583     1   108.0100461 406.684800
    563    570    584     1   108.0100461 406.684800
    564    563    588     1   110.1100470 384.091200
    564    566    579     1   109.8000471 387.438400
    564    566    580     1   109.8000471 387.438400
    565    563    588     1   110.1100470 384.091200
    565    568    581     1   109.8000471 387.438400
    565    568    582     1   109.8000471 387.438400
    566    564    575     1   110.5600475 386.601600
    566    564    576     1   110.5600475 386.601600
    567    566    579     1   108.7700466 392.459200
    567    566    580     1   108.7700466 392.459200
    567   1196   1211     1   117.5500507 404.174400
    568    565    577     1   110.5600475 386.601600
    568    565    578     1   110.5600475 386.601600
    569    568    581     1   108.7700466 392.459200
    569    568    582     1   108.7700466 392.459200
    569   1222   1237     1   117.5500507 404.174400
    570    563    588     1   110.1100470 384.091200
    570    571    585     1   109.5600471 388.275200
    570    571    586     1   109.5600471 388.275200
    571    570    583     1   110.5600475 386.601600
    571    570    584     1   110.5600475 386.601600
    571    572    587     1   117.6800502 383.254400
    572    571    585     1   108.8800464 416.726400
    572    571    586     1   108.8800464 416.726400
    575    564    576     1   109.7500473 328.025600
    577    565    578     1   109.7500473 328.025600
    579    566    580     1   107.5800459 329.699200
    581    568    582     1   107.5800459 329.699200
    583    570    584     1   109.7500473 328.025600
    585    571    586     1   108.4600466 328.025600
    589    590    601     1   108.0100461 406.684800
    589    590    602     1   108.0100461 406.684800
    589    591    603     1   108.0100461 406.684800
    589    591    604     1   108.0100461 406.684800
    589    596    609     1   108.0100461 406.684800
    589    596    610     1   108.0100461 406.684800
    590    589    614     1   110.1100470 384.091200
    590    592    605     1   109.8000471 387.438400
    590    592    606     1   109.8000471 387.438400
    591    589    614     1   110.1100470 384.091200
    591    594    607     1   109.8000471 387.438400
    591    594    608     1   109.8000471 387.438400
    592    590    601     1   110.5600475 386.601600
    592    590    602     1   110.5600475 386.601600
    593    592    605     1   108.7700466 392.459200
    593    592    606     1   108.7700466 392.459200
    593   1248   1263     1   117.5500507 404.174400
    594    591    603     1   110.5600475 386.601600
    594    591    604     1   110.5600475 386.601600
    595    594    607     1   108.7700466 392.459200
    595    594    608     1   108.7700466 392.459200
    595   1274   1289     1   117.5500507 404.174400
    596    589    614     1   110.1100470 384.091200
    596    597    611     1   109.5600471 388.275200
    596    597    612     1   109.5600471 388.275200
    597    596    609     1   110.5600475 386.601600
    597    596    610     1   110.5600475 386.601600
    597    598    613     1   117.6800502 383.254400
    598    597    611     1   108.8800464 416.726400
    598    597    612     1   108.8800464 416.726400
    601    590    602     1   109.7500473 328.025600
    603    591    604     1   109.7500473 328.025600
    605    592    606     1   107.5800459 329.699200
    607    594    608     1   107.5800459 329.699200
    609    596    610     1   109.7500473 328.025600
    611    597    612     1   108.4600466 328.025600
    615    616    627     1   108.0100461 406.684800
    615    616    628     1   108.0100461 406.684800
    615    617    629     1   108.0100461 406.684800
    615    617    630     1   108.0100461 406.684800
    615    622    635     1   108.0100461 406.684800
    615    622    636     1   108.0100461 406.684800
    616    615    640     1   110.1100470 384.091200
    616    618    631     1   109.8000471 387.438400
    616    618    632     1   109.8000471 387.438400
    617    615    640     1   110.1100470 384.091200
    617    620    633     1   109.8000471 387.438400
    617    620    634     1   109.8000471 387.438400
    618    616    627     1   110.5600475 386.601600
    618    616    628     1   110.5600475 386.601600
    619    618    631     1   108.7700466 392.459200
    619    618    632     1   108.7700466 392.459200
    619   1300   1315     1   117.5500507 404.174400
    620    617    629     1   110.5600475 386.601600
    620    617    630     1   110.5600475 386.601600
    621    620    633     1   108.7700466 392.459200
    621    620    634     1   108.7700466 392.459200
    621   1326   1341     1   117.5500507 404.174400
    622    615    640     1   110.1100470 384.091200
    622    623    637     1   109.5600471 388.275200
    622    623    638     1   109.5600471 388.275200
    623    622    635     1   110.5600475 386.601600
    623    622    636     1   110.5600475 386.601600
    623    624    639     1   117.6800502 383.254400
    624    623    637     1   108.8800464 416.726400
    624    623    638     1   108.8800464 416.726400
    627    616    628     1   109.7500473 328.025600
    629    617    630     1   109.7500473 328.025600
    631    618    632     1   107.5800459 329.699200
    633    620    634     1   107.5800459 329.699200
    635    622    636     1   109.7500473 328.025600
    637    623    638     1   108.4600466 328.025600
    641    642    653     1   108.0100461 406.684800
    641    642    654     1   108.0100461 406.684800
    641    643    655     1   108.0100461 406.684800
    641    643    656     1   108.0100461 406.684800
    641    648    661     1   108.0100461 406.684800
    641    648    662     1   108.0100461 406.684800
    642    641    666     1   110.1100470 384.091200
    642    644    657     1   109.8000471 387.438400
    642    644    658     1   109.8000471 387.438400
    643    641    666     1   110.1100470 384.091200
    643    646    659     1   109.8000471 387.438400
    643    646    660     1   109.8000471 387.438400
    644    642    653     1   110.5600475 386.601600
    644    642    654     1   110.5600475 386.601600
    645    644    657     1   108.7700466 392.459200
    645    644    658     1   108.7700466 392.459200
    645   1352   1367     1   117.5500507 404.174400
    646    643    655     1   110.5600475 386.601600
    646    643    656     1   110.5600475 386.601600
    647    646    659     1   108.7700466 392.459200
    647    646    660     1   108.7700466 392.459200
    647   1378   1393     1   117.5500507 404.174400
    648    641    666     1   110.1100470 384.091200
    648    649    663     1   109.5600471 388.275200
    648    649    664     1   109.5600471 388.275200
    649    648    661     1   110.5600475 386.601600
    649    648    662     1   110.5600475 386.601600
    649    650    665     1   117.6800502 383.254400
    650    649    663     1   108.8800464 416.726400
    650    649    664     1   108.8800464 416.726400
    653    642    654     1   109.7500473 328.025600
    655    643    656     1   109.7500473 328.025600
    657    644    658     1   107.5800459 329.699200
    659    646    660     1   107.5800459 329.699200
    661    648    662     1   109.7500473 328.025600
    663    649    664     1   108.4600466 328.025600
    667    668    679     1   108.0100461 406.684800
    667    668    680     1   108.0100461 406.684800
    667    669    681     1   108.0100461 406.684800
    667    669    682     1   108.0100461 406.684800
    667    674    687     1   108.0100461 406.684800
    667    674    688     1   108.0100461 406.684800
    668    667    692     1   110.1100470 384.091200
    668    670    683     1   109.8000471 387.438400
    668    670    684     1   109.8000471 387.438400
    669    667    692     1   110.1100470 384.091200
    669    672    685     1   109.8000471 387.438400
    669    672    686     1   109.8000471 387.438400
    670    668    679     1   110.5600475 386.601600
    670    668    680     1   110.5600475 386.601600
    671    670    683     1   108.7700466 392.459200
    671    670    684     1   108.7700466 392.459200
    671   1404   1419     1   117.5500507 404.174400
    672    669    681     1   110.5600475 386.601600
    672    669    682     1   110.5600475 386.601600
    673    672    685     1   108.7700466 392.459200
    673    672    686     1   108.7700466 392.459200
    673   1430   1445     1   117.5500507 404.174400
    674    667    692     1   110.1100470 384.091200
    674    675    689     1   109.5600471 388.275200
    674    675    690     1   109.5600471 388.275200
    675    674    687     1   110.5600475 386.601600
    675    674    688     1   110.5600475 386.601600
    675    676    691     1   117.6800502 383.254400
    676    675    689     1   108.8800464 416.726400
    676    675    690     1   108.8800464 416.726400
    679    668    680     1   109.7500473 328.025600
    681    669    682     1   109.7500473 328.025600
    683    670    684     1   107.5800459 329.699200
    685    672    686     1   107.5800459 329.699200
    687    674    688     1   109.7500473 328.025600
    689    675    690     1   108.4600466 328.025600
    693    694    705     1   108.0100461 406.684800
    693    694    706     1   108.0100461 406.684800
    693    695    707     1   108.0100461 406.684800
    693    695    708     1   108.0100461 406.684800
    693    700    713     1   108.0100461 406.684800
    693    700    714     1   108.0100461 406.684800
    694    693    718     1   110.1100470 384.091200
    694    696    709     1   109.8000471 387.438400
    694    696    710     1   109.8000471 387.438400
    695    693    718     1   110.1100470 384.091200
    695    698    711     1   109.8000471 387.438400
    695    698    712     1   109.8000471 387.438400
    696    694    705     1   110.5600475 386.601600
    696    694    706     1   110.5600475 386.601600
    697    696    709     1   108.7700466 392.459200
    697    696    710     1   108.7700466 392.459200
    697   1456   1471     1   117.5500507 404.174400
    698    695    707     1   110.5600475 386.601600
    698    695    708     1   110.5600475 386.601600
    699    698    711     1   108.7700466 392.459200
    699    698    712     1   108.7700466 392.459200
    699   1482   1497     1   117.5500507 404.174400
    700    693    718     1   110.1100470 384.091200
    700    701    715     1   109.5600471 388.275200
    700    701    716     1   109.5600471 388.275200
    701    700    713     1   110.5600475 386.601600
    701    700    714     1   110.5600475 386.601600
    701    702    717     1   117.6800502 383.254400
    702    701    715     1   108.8800464 416.726400
    702    701    716     1   108.8800464 416.726400
    705    694    706     1   109.7500473 328.025600
    707    695    708     1   109.7500473 328.025600
    709    696    710     1   107.5800459 329.699200
    711    698    712     1   107.5800459 329.699200
    713    700    714     1   109.7500473 328.025600
    715    701    716     1   108.4600466 328.025600
    719    720    731     1   108.0100461 406.684800
    719    720    732     1   108.0100461 406.684800
    719    721    733     1   108.0100461 406.684800
    719    721    734     1   108.0100461 406.684800
    719    726    739     1   108.0100461 406.684800
    719    726    740     1   108.0100461 406.684800
    720    719    744     1   110.1100470 384.091200
    720    722    735     1   109.8000471 387.438400
    720    722    736     1   109.8000471 387.438400
    721    719    744     1   110.1100470 384.091200
    721    724    737     1   109.8000471 387.438400
    721    724    738     1   109.8000471 387.438400
    722    720    731     1   110.5600475 386.601600
    722    720    732     1   110.5600475 386.601600
    723    722    735     1   108.7700466 392.459200
    723    722    736     1   108.7700466 392.459200
    723   1508   1523     1   117.5500507 404.174400
    724    721    733     1   110.5600475 386.601600
    724    721    734     1   110.5600475 386.601600
    725    724    737     1   108.7700466 392.459200
    725    724    738     1   108.7700466 392.459200
    725   1534   1549     1   117.5500507 404.174400
    726    719    744     1   110.1100470 384.091200
    726    727    741     1   109.5600471 388.275200
    726    727    742     1   109.5600471 388.275200
    727    726    739     1   110.5600475 386.601600
    727    726    740     1   110.5600475 386.601600
    727    728    743     1   117.6800502 383.254400
    728    727    741     1   108.8800464 416.726400
    728    727    742     1   108.8800464 416.726400
    731    720    732     1   109.7500473 328.025600
    733    721    734     1   109.7500473 328.025600
    735    722    736     1   107.5800459 329.699200
    737    724    738     1   107.5800459 329.699200
    739    726    740     1   109.7500473 328.025600
    741    727    742     1   108.4600466 328.025600
    745    746    757     1   108.0100461 406.684800
    745    746    758     1   108.0100461 406.684800
    745    747    759     1   108.0100461 406.684800
    745    747    760     1   108.0100461 406.684800
    745    752    765     1   108.0100461 406.684800
    745    752    766     1   108.0100461 406.684800
    746    745    770     1   110.1100470 384.091200
    746    748    761     1   109.8000471 387.438400
    746    748    762     1   109.8000471 387.438400
    747    745    770     1   110.1100470 384.091200
    747    750    763     1   109.8000471 387.438400
    747    750    764     1   109.8000471 387.438400
    748    746    757     1   110.5600475 386.601600
    748    746    758     1   110.5600475 386.601600
    749    748    761     1   108.7700466 392.459200
    749    748    762     1   108.7700466 392.459200
    749   1560   1575     1   117.5500507 404.174400
    750    747    759     1   110.5600475 386.601600
    750    747    760     1   110.5600475 386.601600
    751    750    763     1   108.7700466 392.459200
    751    750    764     1   108.7700466 392.459200
    751   1586   1601     1   117.5500507 404.174400
    752    745    770     1   110.1100470 384.091200
    752    753    767     1   109.5600471 388.275200
    752    753    768     1   109.5600471 388.275200
    753    752    765     1   110.5600475 386.601600
    753    752    766     1   110.5600475 386.601600
    753    754    769     1   117.6800502 383.254400
    754    753    767     1   108.8800464 416.726400
    754    753    768     1   108.8800464 416.726400
    757    746    758     1   109.7500473 328.025600
    759    747    760     1   109.7500473 328.025600
    761    748    762     1   107.5800459 329.699200
    763    750    764     1   107.5800459 329.699200
    765    752    766     1   109.7500473 328.025600
    767    753    768     1   108.4600466 328.025600
    771    772    783     1   108.0100461 406.684800
    771    772    784     1   108.0100461 406.684800
    771    773    785     1   108.0100461 406.684800
    771    773    786     1   108.0100461 406.684800
    771    778    791     1   108.0100461 406.684800
    771    778    792     1   108.0100461 406.684800
    772    771    796     1   110.1100470 384.091200
    772    774    787     1   109.8000471 387.438400
    772    774    788     1   109.8000471 387.438400
    773    771    796     1   110.1100470 384.091200
    773    776    789     1   109.8000471 387.438400
    773    776    790     1   109.8000471 387.438400
    774    772    783     1   110.5600475 386.601600
    774    772    784     1   110.5600475 386.601600
    775    774    787     1   108.7700466 392.459200
    775    774    788     1   108.7700466 392.459200
    775   1603   1604     1   117.5500507 404.174400
    776    773    785     1   110.5600475 386.601600
    776    773    786     1   110.5600475 386.601600
    777    776    789     1   108.7700466 392.459200
    777    776    790     1   108.7700466 392.459200
    777   1615   1616     1   117.5500507 404.174400
    778    771    796     1   110.1100470 384.091200
    778    779    793     1   109.5600471 388.275200
    778    779    794     1   109.5600471 388.275200
    779    778    791     1   110.5600475 386.601600
    779    778    792     1   110.5600475 386.601600
    779    780    795     1   117.6800502 383.254400
    780    779    793     1   108.8800464 416.726400
    780    779    794     1   108.8800464 416.726400
    783    772    784     1   109.7500473 328.025600
    785    773    786     1   109.7500473 328.025600
    787    774    788     1   107.5800459 329.699200
    789    776    790     1   107.5800459 329.699200
    791    778    792     1   109.7500473 328.025600
    793    779    794     1   108.4600466 328.025600
    797    798    809     1   108.0100461 406.684800
    797    798    810     1   108.0100461 406.684800
    797    799    811     1   108.0100461 406.684800
    797    799    812     1   108.0100461 406.684800
    797    804    817     1   108.0100461 406.684800
    797    804    818     1   108.0100461 406.684800
    798    797    822     1   110.1100470 384.091200
    798    800    813     1   109.8000471 387.438400
    798    800    814     1   109.8000471 387.438400
    799    797    822     1   110.1100470 384.091200
    799    802    815     1   109.8000471 387.438400
    799    802    816     1   109.8000471 387.438400
    800    798    809     1   110.5600475 386.601600
    800    798    810     1   110.5600475 386.601600
    801    800    813     1   108.7700466 392.459200
    801    800    814     1   108.7700466 392.459200
    801   1627   1628     1   117.5500507 404.174400
    802    799    811     1   110.5600475 386.601600
    802    799    812     1   110.5600475 386.601600
    803    802    815     1   108.7700466 392.459200
    803    802    816     1   108.7700466 392.459200
    803   1639   1640     1   117.5500507 404.174400
    804    797    822     1   110.1100470 384.091200
    804    805    819     1   109.5600471 388.275200
    804    805    820     1   109.5600471 388.275200
    805    804    817     1   110.5600475 386.601600
    805    804    818     1   110.5600475 386.601600
    805    806    821     1   117.6800502 383.254400
    806    805    819     1   108.8800464 416.726400
    806    805    820     1   108.8800464 416.726400
    809    798    810     1   109.7500473 328.025600
    811    799    812     1   109.7500473 328.025600
    813    800    814     1   107.5800459 329.699200
    815    802    816     1   107.5800459 329.699200
    817    804    818     1   109.7500473 328.025600
    819    805    820     1   108.4600466 328.025600
    823    824    835     1   108.0100461 406.684800
    823    824    836     1   108.0100461 406.684800
    823    825    837     1   108.0100461 406.684800
    823    825    838     1   108.0100461 406.684800
    823    830    843     1   108.0100461 406.684800
    823    830    844     1   108.0100461 406.684800
    824    823    848     1   110.1100470 384.091200
    824    826    839     1   109.8000471 387.438400
    824    826    840     1   109.8000471 387.438400
    825    823    848     1   110.1100470 384.091200
    825    828    841     1   109.8000471 387.438400
    825    828    842     1   109.8000471 387.438400
    826    824    835     1   110.5600475 386.601600
    826    824    836     1   110.5600475 386.601600
    827    826    839     1   108.7700466 392.459200
    827    826    840     1   108.7700466 392.459200
    827   1651   1652     1   117.5500507 404.174400
    828    825    837     1   110.5600475 386.601600
    828    825    838     1   110.5600475 386.601600
    829    828    841     1   108.7700466 392.459200
    829    828    842     1   108.7700466 392.459200
    829   1663   1664     1   117.5500507 404.174400
    830    823    848     1   110.1100470 384.091200
    830    831    845     1   109.5600471 388.275200
    830    831    846     1   109.5600471 388.275200
    831    830    843     1   110.5600475 386.601600
    831    830    844     1   110.5600475 386.601600
    831    832    847     1   117.6800502 383.254400
    832    831    845     1   108.8800464 416.726400
    832    831    846     1   108.8800464 416.726400
    835    824    836     1   109.7500473 328.025600
    837    825    838     1   109.7500473 328.025600
    839    826    840     1   107.5800459 329.699200
    841    828    842     1   107.5800459 329.699200
    843    830    844     1   109.7500473 328.025600
    845    831    846     1   108.4600466 328.025600
    849    850    861     1   108.0100461 406.684800
    849    850    862     1   108.0100461 406.684800
    849    851    863     1   108.0100461 406.684800
    849    851    864     1   108.0100461 406.684800
    849    856    869     1   108.0100461 406.684800
    849    856    870     1   108.0100461 406.684800
    850    849    874     1   110.1100470 384.091200
    850    852    865     1   109.8000471 387.438400
    850    852    866     1   109.8000471 387.438400
    851    849    874     1   110.1100470 384.091200
    851    854    867     1   109.8000471 387.438400
    851    854    868     1   109.8000471 387.438400
    852    850    861     1   110.5600475 386.601600
    852    850    862     1   110.5600475 386.601600
    853    852    865     1   108.7700466 392.459200
    853    852    866     1   108.7700466 392.459200
    853   1675   1676     1   117.5500507 404.174400
    854    851    863     1   110.5600475 386.601600
    854    851    864     1   110.5600475 386.601600
    855    854    867     1   108.7700466 392.459200
    855    854    868     1   108.7700466 392.459200
    855   1687   1688     1   117.5500507 404.174400
    856    849    874     1   110.1100470 384.091200
    856    857    871     1   109.5600471 388.275200
    856    857    872     1   109.5600471 388.275200
    857    856    869     1   110.5600475 386.601600
    857    856    870     1   110.5600475 386.601600
    857    858    873     1   117.6800502 383.254400
    858    857    871     1   108.8800464 416.726400
    858    857    872     1   108.8800464 416.726400
    861    850    862     1   109.7500473 328.025600
    863    851    864     1   109.7500473 328.025600
    865    852    866     1   107.5800459 329.699200
    867    854    868     1   107.5800459 329.699200
    869    856    870     1   109.7500473 328.025600
    871    857    872     1   108.4600466 328.025600
    875    876    887     1   108.0100461 406.684800
    875    876    888     1   108.0100461 406.684800
    875    877    889     1   108.0100461 406.684800
    875    877    890     1   108.0100461 406.684800
    875    882    895     1   108.0100461 406.684800
    875    882    896     1   108.0100461 406.684800
    876    875    900     1   110.1100470 384.091200
    876    878    891     1   109.8000471 387.438400
    876    878    892     1   109.8000471 387.438400
    877    875    900     1   110.1100470 384.091200
    877    880    893     1   109.8000471 387.438400
    877    880    894     1   109.8000471 387.438400
    878    876    887     1   110.5600475 386.601600
    878    876    888     1   110.5600475 386.601600
    879    878    891     1   108.7700466 392.459200
    879    878    892     1   108.7700466 392.459200
    879   1699   1700     1   117.5500507 404.174400
    880    877    889     1   110.5600475 386.601600
    880    877    890     1   110.5600475 386.601600
    881    880    893     1   108.7700466 392.459200
    881    880    894     1   108.7700466 392.459200
    881   1711   1712     1   117.5500507 404.174400
    882    875    900     1   110.1100470 384.091200
    882    883    897     1   109.5600471 388.275200
    882    883    898     1   109.5600471 388.275200
    883    882    895     1   110.5600475 386.601600
    883    882    896     1   110.5600475 386.601600
    883    884    899     1   117.6800502 383.254400
    884    883    897     1   108.8800464 416.726400
    884    883    898     1   108.8800464 416.726400
    887    876    888     1   109.7500473 328.025600
    889    877    890     1   109.7500473 328.025600
    891    878    892     1   107.5800459 329.699200
    893    880    894     1   107.5800459 329.699200
    895    882    896     1   109.7500473 328.025600
    897    883    898     1   108.4600466 328.025600
    901    902    913     1   108.0100461 406.684800
    901    902    914     1   108.0100461 406.684800
    901    903    915     1   108.0100461 406.684800
    901    903    916     1   108.0100461 406.684800
    901    908    921     1   108.0100461 406.684800
    901    908    922     1   108.0100461 406.684800
    902    901    926     1   110.1100470 384.091200
    902    904    917     1   109.8000471 387.438400
    902    904    918     1   109.8000471 387.438400
    903    901    926     1   110.1100470 384.091200
    903    906    919     1   109.8000471 387.438400
    903    906    920     1   109.8000471 387.438400
    904    902    913     1   110.5600475 386.601600
    904    902    914     1   110.5600475 386.601600
    905    904    917     1   108.7700466 392.459200
    905    904    918     1   108.7700466 392.459200
    905   1723   1724     1   117.5500507 404.174400
    906    903    915     1   110.5600475 386.601600
    906    903    916     1   110.5600475 386.601600
    907    906    919     1   108.7700466 392.459200
    907    906    920     1   108.7700466 392.459200
    907   1735   1736     1   117.5500507 404.174400
    908    901    926     1   110.1100470 384.091200
    908    909    923     1   109.5600471 388.275200
    908    909    924     1   109.5600471 388.275200
    909    908    921     1   110.5600475 386.601600
    909    908    922     1   110.5600475 386.601600
    909    910    925     1   117.6800502 383.254400
    910    909    923     1   108.8800464 416.726400
    910    909    924     1   108.8800464 416.726400
    913    902    914     1   109.7500473 328.025600
    915    903    916     1   109.7500473 328.025600
    917    904    918     1   107.5800459 329.699200
    919    906    920     1   107.5800459 329.699200
    921    908    922     1   109.7500473 328.025600
    923    909    924     1   108.4600466 328.025600
    927    928    939     1   108.0100461 406.684800
    927    928    940     1   108.0100461 406.684800
    927    929    941     1   108.0100461 406.684800
    927    929    942     1   108.0100461 406.684800
    927    934    947     1   108.0100461 406.684800
    927    934    948     1   108.0100461 406.684800
    928    927    952     1   110.1100470 384.091200
    928    930    943     1   109.8000471 387.438400
    928    930    944     1   109.8000471 387.438400
    929    927    952     1   110.1100470 384.091200
    929    932    945     1   109.8000471 387.438400
    929    932    946     1   109.8000471 387.438400
    930    928    939     1   110.5600475 386.601600
    930    928    940     1   110.5600475 386.601600
    931    930    943     1   108.7700466 392.459200
    931    930    944     1   108.7700466 392.459200
    931   1747   1748     1   117.5500507 404.174400
    932    929    941     1   110.5600475 386.601600
    932    929    942     1   110.5600475 386.601600
    933    932    945     1   108.7700466 392.459200
    933    932    946     1   108.7700466 392.459200
    933   1759   1760     1   117.5500507 404.174400
    934    927    952     1   110.1100470 384.091200
    934    935    949     1   109.5600471 388.275200
    934    935    950     1   109.5600471 388.275200
    935    934    947     1   110.5600475 386.601600
    935    934    948     1   110.5600475 386.601600
    935    936    951     1   117.6800502 383.254400
    936    935    949     1   108.8800464 416.726400
    936    935    950     1   108.8800464 416.726400
    939    928    940     1   109.7500473 328.025600
    941    929    942     1   109.7500473 328.025600
    943    930    944     1   107.5800459 329.699200
    945    932    946     1   107.5800459 329.699200
    947    934    948     1   109.7500473 328.025600
    949    935    950     1   108.4600466 328.025600
    953    954    965     1   108.0100461 406.684800
    953    954    966     1   108.0100461 406.684800
    953    955    967     1   108.0100461 406.684800
    953    955    968     1   108.0100461 406.684800
    953    960    973     1   108.0100461 406.684800
    953    960    974     1   108.0100461 406.684800
    954    953    978     1   110.1100470 384.091200
    954    956    969     1   109.8000471 387.438400
    954    956    970     1   109.8000471 387.438400
    955    953    978     1   110.1100470 384.091200
    955    958    971     1   109.8000471 387.438400
    955    958    972     1   109.8000471 387.438400
    956    954    965     1   110.5600475 386.601600
    956    954    966     1   110.5600475 386.601600
    957    956    969     1   108.7700466 392.459200
    957    956    970     1   108.7700466 392.459200
    957   1771   1772     1   117.5500507 404.174400
    958    955    967     1   110.5600475 386.601600
    958    955    968     1   110.5600475 386.601600
    959    958    971     1   108.7700466 392.459200
    959    958    972     1   108.7700466 392.459200
    959   1783   1784     1   117.5500507 404.174400
    960    953    978     1   110.1100470 384.091200
    960    961    975     1   109.5600471 388.275200
    960    961    976     1   109.5600471 388.275200
    961    960    973     1   110.5600475 386.601600
    961    960    974     1   110.5600475 386.601600
    961    962    977     1   117.6800502 383.254400
    962    961    975     1   108.8800464 416.726400
    962    961    976     1   108.8800464 416.726400
    965    954    966     1   109.7500473 328.025600
    967    955    968     1   109.7500473 328.025600
    969    956    970     1   107.5800459 329.699200
    971    958    972     1   107.5800459 329.699200
    973    960    974     1   109.7500473 328.025600
    975    961    976     1   108.4600466 328.025600
    979    980    991     1   108.0100461 406.684800
    979    980    992     1   108.0100461 406.684800
    979    981    993     1   108.0100461 406.684800
    979    981    994     1   108.0100461 406.684800
    979    986    999     1   108.0100461 406.684800
    979    986   1000     1   108.0100461 406.684800
    980    979   1004     1   110.1100470 384.091200
    980    982    995     1   109.8000471 387.438400
    980    982    996     1   109.8000471 387.438400
    981    979   1004     1   110.1100470 384.091200
    981    984    997     1   109.8000471 387.438400
    981    984    998     1   109.8000471 387.438400
    982    980    991     1   110.5600475 386.601600
    982    980    992     1   110.5600475 386.601600
    983    982    995     1   108.7700466 392.459200
    983    982    996     1   108.7700466 392.459200
    983   1795   1796     1   117.5500507 404.174400
    984    981    993     1   110.5600475 386.601600
    984    981    994     1   110.5600475 386.601600
    985    984    997     1   108.7700466 392.459200
    985    984    998     1   108.7700466 392.459200
    985   1807   1808     1   117.5500507 404.174400
    986    979   1004     1   110.1100470 384.091200
    986    987   1001     1   109.5600471 388.275200
    986    987   1002     1   109.5600471 388.275200
    987    986    999     1   110.5600475 386.601600
    987    986   1000     1   110.5600475 386.601600
    987    988   1003     1   117.6800502 383.254400
    988    987   1001     1   108.8800464 416.726400
    988    987   1002     1   108.8800464 416.726400
    991    980    992     1   109.7500473 328.025600
    993    981    994     1   109.7500473 328.025600
    995    982    996     1   107.5800459 329.699200
    997    984    998     1   107.5800459 329.699200
    999    986   1000     1   109.7500473 328.025600
   1001    987   1002     1   108.4600466 328.025600
   1005   1006   1017     1   108.0100461 406.684800
   1005   1006   1018     1   108.0100461 406.684800
   1005   1007   1019     1   108.0100461 406.684800
   1005   1007   1020     1   108.0100461 406.684800
   1005   1012   1025     1   108.0100461 406.684800
   1005   1012   1026     1   108.0100461 406.684800
   1006   1005   1030     1   110.1100470 384.091200
   1006   1008   1021     1   109.8000471 387.438400
   1006   1008   1022     1   109.8000471 387.438400
   1007   1005   1030     1   110.1100470 384.091200
   1007   1010   1023     1   109.8000471 387.438400
   1007   1010   1024     1   109.8000471 387.438400
   1008   1006   1017     1   110.5600475 386.601600
   1008   1006   1018     1   110.5600475 386.601600
   1009   1008   1021     1   108.7700466 392.459200
   1009   1008   1022     1   108.7700466 392.459200
   1009   1819   1820     1   117.5500507 404.174400
   1010   1007   1019     1   110.5600475 386.601600
   1010   1007   1020     1   110.5600475 386.601600
   1011   1010   1023     1   108.7700466 392.459200
   1011   1010   1024     1   108.7700466 392.459200
   1011   1831   1832     1   117.5500507 404.174400
   1012   1005   1030     1   110.1100470 384.091200
   1012   1013   1027     1   109.5600471 388.275200
   1012   1013   1028     1   109.5600471 388.275200
   1013   1012   1025     1   110.5600475 386.601600
   1013   1012   1026     1   110.5600475 386.601600
   1013   1014   1029     1   117.6800502 383.254400
   1014   1013   1027     1   108.8800464 416.726400
   1014   1013   1028     1   108.8800464 416.726400
   1017   1006   1018     1   109.7500473 328.025600
   1019   1007   1020     1   109.7500473 328.025600
   1021   1008   1022     1   107.5800459 329.699200
   1023   1010   1024     1   107.5800459 329.699200
   1025   1012   1026     1   109.7500473 328.025600
   1027   1013   1028     1   108.4600466 328.025600
   1031   1032   1043     1   108.0100461 406.684800
   1031   1032   1044     1   108.0100461 406.684800
   1031   1033   1045     1   108.0100461 406.684800
   1031   1033   1046     1   108.0100461 406.684800
   1031   1038   1051     1   108.0100461 406.684800
   1031   1038   1052     1   108.0100461 406.684800
   1032   1031   1056     1   110.1100470 384.091200
   1032   1034   1047     1   109.8000471 387.438400
   1032   1034   1048     1   109.8000471 387.438400
   1033   1031   1056     1   110.1100470 384.091200
   1033   1036   1049     1   109.8000471 387.438400
   1033   1036   1050     1   109.8000471 387.438400
   1034   1032   1043     1   110.5600475 386.601600
   1034   1032   1044     1   110.5600475 386.601600
   1035   1034   1047     1   108.7700466 392.459200
   1035   1034   1048     1   108.7700466 392.459200
   1035   1843   1844     1   117.5500507 404.174400
   1036   1033   1045     1   110.5600475 386.601600
   1036   1033   1046     1   110.5600475 386.601600
   1037   1036   1049     1   108.7700466 392.459200
   1037   1036   1050     1   108.7700466 392.459200
   1037   1855   1856     1   117.5500507 404.174400
   1038   1031   1056     1   110.1100470 384.091200
   1038   1039   1053     1   109.5600471 388.275200
   1038   1039   1054     1   109.5600471 388.275200
   1039   1038   1051     1   110.5600475 386.601600
   1039   1038   1052     1   110.5600475 386.601600
   1039   1040   1055     1   117.6800502 383.254400
   1040   1039   1053     1   108.8800464 416.726400
   1040   1039   1054     1   108.8800464 416.726400
   1043   1032   1044     1   109.7500473 328.025600
   1045   1033   1046     1   109.7500473 328.025600
   1047   1034   1048     1   107.5800459 329.699200
   1049   1036   1050     1   107.5800459 329.699200
   1051   1038   1052     1   109.7500473 328.025600
   1053   1039   1054     1   108.4600466 328.025600
   1057   1058   1069     1   108.0100461 406.684800
   1057   1058   1070     1   108.0100461 406.684800
   1057   1059   1071     1   108.0100461 406.684800
   1057   1059   1072     1   108.0100461 406.684800
   1057   1064   1077     1   108.0100461 406.684800
   1057   1064   1078     1   108.0100461 406.684800
   1058   1057   1082     1   110.1100470 384.091200
   1058   1060   1073     1   109.8000471 387.438400
   1058   1060   1074     1   109.8000471 387.438400
   1059   1057   1082     1   110.1100470 384.091200
   1059   1062   1075     1   109.8000471 387.438400
   1059   1062   1076     1   109.8000471 387.438400
   1060   1058   1069     1   110.5600475 386.601600
   1060   1058   1070     1   110.5600475 386.601600
   1061   1060   1073     1   108.7700466 392.459200
   1061   1060   1074     1   108.7700466 392.459200
   1061   1867   1868     1   117.5500507 404.174400
   1062   1059   1071     1   110.5600475 386.601600
   1062   1059   1072     1   110.5600475 386.601600
   1063   1062   1075     1   108.7700466 392.459200
   1063   1062   1076     1   108.7700466 392.459200
   1063   1879   1880     1   117.5500507 404.174400
   1064   1057   1082     1   110.1100470 384.091200
   1064   1065   1079     1   109.5600471 388.275200
   1064   1065   1080     1   109.5600471 388.275200
   1065   1064   1077     1   110.5600475 386.601600
   1065   1064   1078     1   110.5600475 386.601600
   1065   1066   1081     1   117.6800502 383.254400
   1066   1065   1079     1   108.8800464 416.726400
   1066   1065   1080     1   108.8800464 416.726400
   1069   1058   1070     1   109.7500473 328.025600
   1071   1059   1072     1   109.7500473 328.025600
   1073   1060   1074     1   107.5800459 329.699200
   1075   1062   1076     1   107.5800459 329.699200
   1077   1064   1078     1   109.7500473 328.025600
   1079   1065   1080     1   108.4600466 328.025600
   1083   1084   1095     1   108.0100461 406.684800
   1083   1084   1096     1   108.0100461 406.684800
   1083   1085   1097     1   108.0100461 406.684800
   1083   1085   1098     1   108.0100461 406.684800
   1083   1090   1103     1   108.0100461 406.684800
   1083   1090   1104     1   108.0100461 406.684800
   1084   1083   1108     1   110.1100470 384.091200
   1084   1086   1099     1   109.8000471 387.438400
   1084   1086   1100     1   109.8000471 387.438400
   1085   1083   1108     1   110.1100470 384.091200
   1085   1088   1101     1   109.8000471 387.438400
   1085   1088   1102     1   109.8000471 387.438400
   1086   1084   1095     1   110.5600475 386.601600
   1086   1084   1096     1   110.5600475 386.601600
   1087   1086   1099     1   108.7700466 392.459200
   1087   1086   1100     1   108.7700466 392.459200
   1087   1891   1892     1   117.5500507 404.174400
   1088   1085   1097     1   110.5600475 386.601600
   1088   1085   1098     1   110.5600475 386.601600
   1089   1088   1101     1   108.7700466 392.459200
   1089   1088   1102     1   108.7700466 392.459200
   1089   1903   1904     1   117.5500507 404.174400
   1090   1083   1108     1   110.1100470 384.091200
   1090   1091   1105     1   109.5600471 388.275200
   1090   1091   1106     1   109.5600471 388.275200
   1091   1090   1103     1   110.5600475 386.601600
   1091   1090   1104     1   110.5600475 386.601600
   1091   1092   1107     1   117.6800502 383.254400
   1092   1091   1105     1   108.8800464 416.726400
   1092   1091   1106     1   108.8800464 416.726400
   1095   1084   1096     1   109.7500473 328.025600
   1097   1085   1098     1   109.7500473 328.025600
   1099   1086   1100     1   107.5800459 329.699200
   1101   1088   1102     1   107.5800459 329.699200
   1103   1090   1104     1   109.7500473 328.025600
   1105   1091   1106     1   108.4600466 328.025600
   1109   1110   1121     1   108.0100461 406.684800
   1109   1110   1122     1   108.0100461 406.684800
   1109   1111   1123     1   108.0100461 406.684800
   1109   1111   1124     1   108.0100461 406.684800
   1109   1116   1129     1   108.0100461 406.684800
   1109   1116   1130     1   108.0100461 406.684800
   1110   1109   1134     1   110.1100470 384.091200
   1110   1112   1125     1   109.8000471 387.438400
   1110   1112   1126     1   109.8000471 387.438400
   1111   1109   1134     1   110.1100470 384.091200
   1111   1114   1127     1   109.8000471 387.438400
   1111   1114   1128     1   109.8000471 387.438400
   1112   1110   1121     1   110.5600475 386.601600
   1112   1110   1122     1   110.5600475 386.601600
   1113   1112   1125     1   108.7700466 392.459200
   1113   1112   1126     1   108.7700466 392.459200
   1113   1915   1916     1   117.5500507 404.174400
   1114   1111   1123     1   110.5600475 386.601600
   1114   1111   1124     1   110.5600475 386.601600
   1115   1114   1127     1   108.7700466 392.459200
   1115   1114   1128     1   108.7700466 392.459200
   1115   1927   1928     1   117.5500507 404.174400
   1116   1109   1134     1   110.1100470 384.091200
   1116   1117   1131     1   109.5600471 388.275200
   1116   1117   1132     1   109.5600471 388.275200
   1117   1116   1129     1   110.5600475 386.601600
   1117   1116   1130     1   110.5600475 386.601600
   1117   1118   1133     1   117.6800502 383.254400
   1118   1117   1131     1   108.8800464 416.726400
   1118   1117   1132     1   108.8800464 416.726400
   1121   1110   1122     1   109.7500473 328.025600
   1123   1111   1124     1   109.7500473 328.025600
   1125   1112   1126     1   107.5800459 329.699200
   1127   1114   1128     1   107.5800459 329.699200
   1129   1116   1130     1   109.7500473 328.025600
   1131   1117   1132     1   108.4600466 328.025600
   1135   1136   1147     1   108.0100461 406.684800
   1135   1136   1148     1   108.0100461 406.684800
   1135   1137   1149     1   108.0100461 406.684800
   1135   1137   1150     1   108.0100461 406.684800
   1135   1142   1155     1   108.0100461 406.684800
   1135   1142   1156     1   108.0100461 406.684800
   1136   1135   1160     1   110.1100470 384.091200
   1136   1138   1151     1   109.8000471 387.438400
   1136   1138   1152     1   109.8000471 387.438400
   1137   1135   1160     1   110.1100470 384.091200
   1137   1140   1153     1   109.8000471 387.438400
   1137   1140   1154     1   109.8000471 387.438400
   1138   1136   1147     1   110.5600475 386.601600
   1138   1136   1148     1   110.5600475 386.601600
   1139   1138   1151     1   108.7700466 392.459200
   1139   1138   1152     1   108.7700466 392.459200
   1139   1939   1940     1   117.5500507 404.174400
   1140   1137   1149     1   110.5600475 386.601600
   1140   1137   1150     1   110.5600475 386.601600
   1141   1140   1153     1   108.7700466 392.459200
   1141   1140   1154     1   108.7700466 392.459200
   1141   1951   1952     1   117.5500507 404.174400
   1142   1135   1160     1   110.1100470 384.091200
   1142   1143   1157     1   109.5600471 388.275200
   1142   1143   1158     1   109.5600471 388.275200
   1143   1142   1155     1   110.5600475 386.601600
   1143   1142   1156     1   110.5600475 386.601600
   1143   1144   1159     1   117.6800502 383.254400
   1144   1143   1157     1   108.8800464 416.726400
   1144   1143   1158     1   108.8800464 416.726400
   1147   1136   1148     1   109.7500473 328.025600
   1149   1137   1150     1   109.7500473 328.025600
   1151   1138   1152     1   107.5800459 329.699200
   1153   1140   1154     1   107.5800459 329.699200
   1155   1142   1156     1   109.7500473 328.025600
   1157   1143   1158     1   108.4600466 328.025600
   1161   1162   1173     1   108.0100461 406.684800
   1161   1162   1174     1   108.0100461 406.684800
   1161   1163   1175     1   108.0100461 406.684800
   1161   1163   1176     1   108.0100461 406.684800
   1161   1168   1181     1   108.0100461 406.684800
   1161   1168   1182     1   108.0100461 406.684800
   1162   1161   1186     1   110.1100470 384.091200
   1162   1164   1177     1   109.8000471 387.438400
   1162   1164   1178     1   109.8000471 387.438400
   1163   1161   1186     1   110.1100470 384.091200
   1163   1166   1179     1   109.8000471 387.438400
   1163   1166   1180     1   109.8000471 387.438400
   1164   1162   1173     1   110.5600475 386.601600
   1164   1162   1174     1   110.5600475 386.601600
   1165   1164   1177     1   108.7700466 392.459200
   1165   1164   1178     1   108.7700466 392.459200
   1165   1963   1964     1   117.5500507 404.174400
   1166   1163   1175     1   110.5600475 386.601600
   1166   1163   1176     1   110.5600475 386.601600
   1167   1166   1179     1   108.7700466 392.459200
   1167   1166   1180     1   108.7700466 392.459200
   1167   1975   1976     1   117.5500507 404.174400
   1168   1161   1186     1   110.1100470 384.091200
   1168   1169   1183     1   109.5600471 388.275200
   1168   1169   1184     1   109.5600471 388.275200
   1169   1168   1181     1   110.5600475 386.601600
   1169   1168   1182     1   110.5600475 386.601600
   1169   1170   1185     1   117.6800502 383.254400
   1170   1169   1183     1   108.8800464 416.726400
   1170   1169   1184     1   108.8800464 416.726400
   1173   1162   1174     1   109.7500473 328.025600
   1175   1163   1176     1   109.7500473 328.025600
   1177   1164   1178     1   107.5800459 329.699200
   1179   1166   1180     1   107.5800459 329.699200
   1181   1168   1182     1   109.7500473 328.025600
   1183   1169   1184     1   108.4600466 328.025600
   1187   1188   1199     1   108.0100461 406.684800
   1187   1188   1200     1   108.0100461 406.684800
   1187   1189   1201     1   108.0100461 406.684800
   1187   1189   1202     1   108.0100461 406.684800
   1187   1194   1207     1   108.0100461 406.684800
   1187   1194   1208     1   108.0100461 406.684800
   1188   1187   1212     1   110.1100470 384.091200
   1188   1190   1203     1   109.8000471 387.438400
   1188   1190   1204     1   109.8000471 387.438400
   1189   1187   1212     1   110.1100470 384.091200
   1189   1192   1205     1   109.8000471 387.438400
   1189   1192   1206     1   109.8000471 387.438400
   1190   1188   1199     1   110.5600475 386.601600
   1190   1188   1200     1   110.5600475 386.601600
   1191   1190   1203     1   108.7700466 392.459200
   1191   1190   1204     1   108.7700466 392.459200
   1191   1987   1988     1   117.5500507 404.174400
   1192   1189   1201     1   110.5600475 386.601600
   1192   1189   1202     1   110.5600475 386.601600
   1193   1192   1205     1   108.7700466 392.459200
   1193   1192   1206     1   108.7700466 392.459200
   1193   1999   2000     1   117.5500507 404.174400
   1194   1187   1212     1   110.1100470 384.091200
   1194   1195   1209     1   109.5600471 388.275200
   1194   1195   1210     1   109.5600471 388.275200
   1195   1194   1207     1   110.5600475 386.601600
   1195   1194   1208     1   110.5600475 386.601600
   1195   1196   1211     1   117.6800502 383.254400
   1196   1195   1209     1   108.8800464 416.726400
   1196   1195   1210     1   108.8800464 416.726400
   1199   1188   1200     1   109.7500473 328.025600
   1201   1189   1202     1   109.7500473 328.025600
   1203   1190   1204     1   107.5800459 329.699200
   1205   1192   1206     1   107.5800459 329.699200
   1207   1194   1208     1   109.7500473 328.025600
   1209   1195   1210     1   108.4600466 328.025600
   1213   1214   1225     1   108.0100461 406.684800
   1213   1214   1226     1   108.0100461 406.684800
   1213   1215   1227     1   108.0100461 406.684800
   1213   1215   1228     1   108.0100461 406.684800
   1213   1220   1233     1   108.0100461 406.684800
   1213   1220   1234     1   108.0100461 406.684800
   1214   1213   1238     1   110.1100470 384.091200
   1214   1216   1229     1   109.8000471 387.438400
   1214   1216   1230     1   109.8000471 387.438400
   1215   1213   1238     1   110.1100470 384.091200
   1215   1218   1231     1   109.8000471 387.438400
   1215   1218   1232     1   109.8000471 387.438400
   1216   1214   1225     1   110.5600475 386.601600
   1216   1214   1226     1   110.5600475 386.601600
   1217   1216   1229     1   108.7700466 392.459200
   1217   1216   1230     1   108.7700466 392.459200
   1217   2011   2012     1   117.5500507 404.174400
   1218   1215   1227     1   110.5600475 386.601600
   1218   1215   1228     1   110.5600475 386.601600
   1219   1218   1231     1   108.7700466 392.459200
   1219   1218   1232     1   108.7700466 392.459200
   1219   2023   2024     1   117.5500507 404.174400
   1220   1213   1238     1   110.1100470 384.091200
   1220   1221   1235     1   109.5600471 388.275200
   1220   1221   1236     1   109.5600471 388.275200
   1221   1220   1233     1   110.5600475 386.601600
   1221   1220   1234     1   110.5600475 386.601600
   1221   1222   1237     1   117.6800502 383.254400
   1222   1221   1235     1   108.8800464 416.726400
   1222   1221   1236     1   108.8800464 416.726400
   1225   1214   1226     1   109.7500473 328.025600
   1227   1215   1228     1   109.7500473 328.025600
   1229   1216   1230     1   107.5800459 329.699200
   1231   1218   1232     1   107.5800459 329.699200
   1233   1220   1234     1   109.7500473 328.025600
   1235   1221   1236     1   108.4600466 328.025600
   1239   1240   1251     1   108.0100461 406.684800
   1239   1240   1252     1   108.0100461 406.684800
   1239   1241   1253     1   108.0100461 406.684800
   1239   1241   1254     1   108.0100461 406.684800
   1239   1246   1259     1   108.0100461 406.684800
   1239   1246   1260     1   108.0100461 406.684800
   1240   1239   1264     1   110.1100470 384.091200
   1240   1242   1255     1   109.8000471 387.438400
   1240   1242   1256     1   109.8000471 387.438400
   1241   1239   1264     1   110.1100470 384.091200
   1241   1244   1257     1   109.8000471 387.438400
   1241   1244   1258     1   109.8000471 387.438400
   1242   1240   1251     1   110.5600475 386.601600
   1242   1240   1252     1   110.5600475 386.601600
   1243   1242   1255     1   108.7700466 392.459200
   1243   1242   1256     1   108.7700466 392.459200
   1243   2035   2036     1   117.5500507 404.174400
   1244   1241   1253     1   110.5600475 386.601600
   1244   1241   1254     1   110.5600475 386.601600
   1245   1244   1257     1   108.7700466 392.459200
   1245   1244   1258     1   108.7700466 392.459200
   1245   2047   2048     1   117.5500507 404.174400
   1246   1239   1264     1   110.1100470 384.091200
   1246   1247   1261     1   109.5600471 388.275200
   1246   1247   1262     1   109.5600471 388.275200
   1247   1246   1259     1   110.5600475 386.601600
   1247   1246   1260     1   110.5600475 386.601600
   1247   1248   1263     1   117.6800502 383.254400
   1248   1247   1261     1   108.8800464 416.726400
   1248   1247   1262     1   108.8800464 416.726400
   1251   1240   1252     1   109.7500473 328.025600
   1253   1241   1254     1   109.7500473 328.025600
   1255   1242   1256     1   107.5800459 329.699200
   1257   1244   1258     1   107.5800459 329.699200
   1259   1246   1260     1   109.7500473 328.025600
   1261   1247   1262     1   108.4600466 328.025600
   1265   1266   1277     1   108.0100461 406.684800
   1265   1266   1278     1   108.0100461 406.684800
   1265   1267   1279     1   108.0100461 406.684800
   1265   1267   1280     1   108.0100461 406.684800
   1265   1272   1285     1   108.0100461 406.684800
   1265   1272   1286     1   108.0100461 406.684800
   1266   1265   1290     1   110.1100470 384.091200
   1266   1268   1281     1   109.8000471 387.438400
   1266   1268   1282     1   109.8000471 387.438400
   1267   1265   1290     1   110.1100470 384.091200
   1267   1270   1283     1   109.8000471 387.438400
   1267   1270   1284     1   109.8000471 387.438400
   1268   1266   1277     1   110.5600475 386.601600
   1268   1266   1278     1   110.5600475 386.601600
   1269   1268   1281     1   108.7700466 392.459200
   1269   1268   1282     1   108.7700466 392.459200
   1269   2059   2060     1   117.5500507 404.174400
   1270   1267   1279     1   110.5600475 386.601600
   1270   1267   1280     1   110.5600475 386.601600
   1271   1270   1283     1   108.7700466 392.459200
   1271   1270   1284     1   108.7700466 392.459200
   1271   2071   2072     1   117.5500507 404.174400
   1272   1265   1290     1   110.1100470 384.091200
   1272   1273   1287     1   109.5600471 388.275200
   1272   1273   1288     1   109.5600471 388.275200
   1273   1272   1285     1   110.5600475 386.601600
   1273   1272   1286     1   110.5600475 386.601600
   1273   1274   1289     1   117.6800502 383.254400
   1274   1273   1287     1   108.8800464 416.726400
   1274   1273   1288     1   108.8800464 416.726400
   1277   1266   1278     1   109.7500473 328.025600
   1279   1267   1280     1   109.7500473 328.025600
   1281   1268   1282     1   107.5800459 329.699200
   1283   1270   1284     1   107.5800459 329.699200
   1285   1272   1286     1   109.7500473 328.025600
   1287   1273   1288     1   108.4600466 328.025600
   1291   1292   1303     1   108.0100461 406.684800
   1291   1292   1304     1   108.0100461 406.684800
   1291   1293   1305     1   108.0100461 406.684800
   1291   1293   1306     1   108.0100461 406.684800
   1291   1298   1311     1   108.0100461 406.684800
   1291   1298   1312     1   108.0100461 406.684800
   1292   1291   1316     1   110.1100470 384.091200
   1292   1294   1307     1   109.8000471 387.438400
   1292   1294   1308     1   109.8000471 387.438400
   1293   1291   1316     1   110.1100470 384.091200
   1293   1296   1309     1   109.8000471 387.438400
   1293   1296   1310     1   109.8000471 387.438400
   1294   1292   1303     1   110.5600475 386.601600
   1294   1292   1304     1   110.5600475 386.601600
   1295   1294   1307     1   108.7700466 392.459200
   1295   1294   1308     1   108.7700466 392.459200
   1295   2083   2084     1   117.5500507 404.174400
   1296   1293   1305     1   110.5600475 386.601600
   1296   1293   1306     1   110.5600475 386.601600
   1297   1296   1309     1   108.7700466 392.459200
   1297   1296   1310     1   108.7700466 392.459200
   1297   2095   2096     1   117.5500507 404.174400
   1298   1291   1316     1   110.1100470 384.091200
   1298   1299   1313     1   109.5600471 388.275200
   1298   1299   1314     1   109.5600471 388.275200
   1299   1298   1311     1   110.5600475 386.601600
   1299   1298   1312     1   110.5600475 386.601600
   1299   1300   1315     1   117.6800502 383.254400
   1300   1299   1313     1   108.8800464 416.726400
   1300   1299   1314     1   108.8800464 416.726400
   1303   1292   1304     1   109.7500473 328.025600
   1305   1293   1306     1   109.7500473 328.025600
   1307   1294   1308     1   107.5800459 329.699200
   1309   1296   1310     1   107.5800459 329.699200
   1311   1298   1312     1   109.7500473 328.025600
   1313   1299   1314     1   108.4600466 328.025600
   1317   1318   1329     1   108.0100461 406.684800
   1317   1318   1330     1   108.0100461 406.684800
   1317   1319   1331     1   108.0100461 406.684800
   1317   1319   1332     1   108.0100461 406.684800
   1317   1324   1337     1   108.0100461 406.684800
   1317   1324   1338     1   108.0100461 406.684800
   1318   1317   1342     1   110.1100470 384.091200
   1318   1320   1333     1   109.8000471 387.438400
   1318   1320   1334     1   109.8000471 387.438400
   1319   1317   1342     1   110.1100470 384.091200
   1319   1322   1335     1   109.8000471 387.438400
   1319   1322   1336     1   109.8000471 387.438400
   1320   1318   1329     1   110.5600475 386.601600
   1320   1318   1330     1   110.5600475 386.601600
   1321   1320   1333     1   108.7700466 392.459200
   1321   1320   1334     1   108.7700466 392.459200
   1321   2107   2108     1   117.5500507 404.174400
   1322   1319   1331     1   110.5600475 386.601600
   1322   1319   1332     1   110.5600475 386.601600
   1323   1322   1335     1   108.7700466 392.459200
   1323   1322   1336     1   108.7700466 392.459200
   1323   2119   2120     1   117.5500507 404.174400
   1324   1317   1342     1   110.1100470 384.091200
   1324   1325   1339     1   109.5600471 388.275200
   1324   1325   1340     1   109.5600471 388.275200
   1325   1324   1337     1   110.5600475 386.601600
   1325   1324   1338     1   110.5600475 386.601600
   1325   1326   1341     1   117.6800502 383.254400
   1326   1325   1339     1   108.8800464 416.726400
   1326   1325   1340     1   108.8800464 416.726400
   1329   1318   1330     1   109.7500473 328.025600
   1331   1319   1332     1   109.7500473 328.025600
   1333   1320   1334     1   107.5800459 329.699200
   1335   1322   1336     1   107.5800459 329.699200
   1337   1324   1338     1   109.7500473 328.025600
   1339   1325   1340     1   108.4600466 328.025600
   1343   1344   1355     1   108.0100461 406.684800
   1343   1344   1356     1   108.0100461 406.684800
   1343   1345   1357     1   108.0100461 406.684800
   1343   1345   1358     1   108.0100461 406.684800
   1343   1350   1363     1   108.0100461 406.684800
   1343   1350   1364     1   108.0100461 406.684800
   1344   1343   1368     1   110.1100470 384.091200
   1344   1346   1359     1   109.8000471 387.438400
   1344   1346   1360     1   109.8000471 387.438400
   1345   1343   1368     1   110.1100470 384.091200
   1345   1348   1361     1   109.8000471 387.438400
   1345   1348   1362     1   109.8000471 387.438400
   1346   1344   1355     1   110.5600475 386.601600
   1346   1344   1356     1   110.5600475 386.601600
   1347   1346   1359     1   108.7700466 392.459200
   1347   1346   1360     1   108.7700466 392.459200
   1347   2131   2132     1   117.5500507 404.174400
   1348   1345   1357     1   110.5600475 386.601600
   1348   1345   1358     1   110.5600475 386.601600
   1349   1348   1361     1   108.7700466 392.459200
   1349   1348   1362     1   108.7700466 392.459200
   1349   2143   2144     1   117.5500507 404.174400
   1350   1343   1368     1   110.1100470 384.091200
   1350   1351   1365     1   109.5600471 388.275200
   1350   1351   1366     1   109.5600471 388.275200
   1351   1350   1363     1   110.5600475 386.601600
   1351   1350   1364     1   110.5600475 386.601600
   1351   1352   1367     1   117.6800502 383.254400
   1352   1351   1365     1   108.8800464 416.726400
   1352   1351   1366     1   108.8800464 416.726400
   1355   1344   1356     1   109.7500473 328.025600
   1357   1345   1358     1   109.7500473 328.025600
   1359   1346   1360     1   107.5800459 329.699200
   1361   1348   1362     1   107.5800459 329.699200
   1363   1350   1364     1   109.7500473 328.025600
   1365   1351   1366     1   108.4600466 328.025600
   1369   1370   1381     1   108.0100461 406.684800
   1369   1370   1382     1   108.0100461 406.684800
   1369   1371   1383     1   108.0100461 406.684800
   1369   1371   1384     1   108.0100461 406.684800
   1369   1376   1389     1   108.0100461 406.684800
   1369   1376   1390     1   108.0100461 406.684800
   1370   1369   1394     1   110.1100470 384.091200
   1370   1372   1385     1   109.8000471 387.438400
   1370   1372   1386     1   109.8000471 387.438400
   1371   1369   1394     1   110.1100470 384.091200
   1371   1374   1387     1   109.8000471 387.438400
   1371   1374   1388     1   109.8000471 387.438400
   1372   1370   1381     1   110.5600475 386.601600
   1372   1370   1382     1   110.5600475 386.601600
   1373   1372   1385     1   108.7700466 392.459200
   1373   1372   1386     1   108.7700466 392.459200
   1373   2155   2156     1   117.5500507 404.174400
   1374   1371   1383     1   110.5600475 386.601600
   1374   1371   1384     1   110.5600475 386.601600
   1375   1374   1387     1   108.7700466 392.459200
   1375   1374   1388     1   108.7700466 392.459200
   1375   2167   2168     1   117.5500507 404.174400
   1376   1369   1394     1   110.1100470 384.091200
   1376   1377   1391     1   109.5600471 388.275200
   1376   1377   1392     1   109.5600471 388.275200
   1377   1376   1389     1   110.5600475 386.601600
   1377   1376   1390     1   110.5600475 386.601600
   1377   1378   1393     1   117.6800502 383.254400
   1378   1377   1391     1   108.8800464 416.726400
   1378   1377   1392     1   108.8800464 416.726400
   1381   1370   1382     1   109.7500473 328.025600
   1383   1371   1384     1   109.7500473 328.025600
   1385   1372   1386     1   107.5800459 329.699200
   1387   1374   1388     1   107.5800459 329.699200
   1389   1376   1390     1   109.7500473 328.025600
   1391   1377   1392     1   108.4600466 328.025600
   1395   1396   1407     1   108.0100461 406.684800
   1395   1396   1408     1   108.0100461 406.684800
   1395   1397   1409     1   108.0100461 406.684800
   1395   1397   1410     1   108.0100461 406.684800
   1395   1402   1415     1   108.0100461 406.684800
   1395   1402   1416     1   108.0100461 406.684800
   1396   1395   1420     1   110.1100470 384.091200
   1396   1398   1411     1   109.8000471 387.438400
   1396   1398   1412     1   109.8000471 387.438400
   1397   1395   1420     1   110.1100470 384.091200
   1397   1400   1413     1   109.8000471 387.438400
   1397   1400   1414     1   109.8000471 387.438400
   1398   1396   1407     1   110.5600475 386.601600
   1398   1396   1408     1   110.5600475 386.601600
   1399   1398   1411     1   108.7700466 392.459200
   1399   1398   1412     1   108.7700466 392.459200
   1399   2179   2180     1   117.5500507 404.174400
   1400   1397   1409     1   110.5600475 386.601600
   1400   1397   1410     1   110.5600475 386.601600
   1401   1400   1413     1   108.7700466 392.459200
   1401   1400   1414     1   108.7700466 392.459200
   1401   2191   2192     1   117.5500507 404.174400
   1402   1395   1420     1   110.1100470 384.091200
   1402   1403   1417     1   109.5600471 388.275200
   1402   1403   1418     1   109.5600471 388.275200
   1403   1402   1415     1   110.5600475 386.601600
   1403   1402   1416     1   110.5600475 386.601600
   1403   1404   1419     1   117.6800502 383.254400
   1404   1403   1417     1   108.8800464 416.726400
   1404   1403   1418     1   108.8800464 416.726400
   1407   1396   1408     1   109.7500473 328.025600
   1409   1397   1410     1   109.7500473 328.025600
   1411   1398   1412     1   107.5800459 329.699200
   1413   1400   1414     1   107.5800459 329.699200
   1415   1402   1416     1   109.7500473 328.025600
   1417   1403   1418     1   108.4600466 328.025600
   1421   1422   1433     1   108.0100461 406.684800
   1421   1422   1434     1   108.0100461 406.684800
   1421   1423   1435     1   108.0100461 406.684800
   1421   1423   1436     1   108.0100461 406.684800
   1421   1428   1441     1   108.0100461 406.684800
   1421   1428   1442     1   108.0100461 406.684800
   1422   1421   1446     1   110.1100470 384.091200
   1422   1424   1437     1   109.8000471 387.438400
   1422   1424   1438     1   109.8000471 387.438400
   1423   1421   1446     1   110.1100470 384.091200
   1423   1426   1439     1   109.8000471 387.438400
   1423   1426   1440     1   109.8000471 387.438400
   1424   1422   1433     1   110.5600475 386.601600
   1424   1422   1434     1   110.5600475 386.601600
   1425   1424   1437     1   108.7700466 392.459200
   1425   1424   1438     1   108.7700466 392.459200
   1425   2203   2204     1   117.5500507 404.174400
   1426   1423   1435     1   110.5600475 386.601600
   1426   1423   1436     1   110.5600475 386.601600
   1427   1426   1439     1   108.7700466 392.459200
   1427   1426   1440     1   108.7700466 392.459200
   1427   2215   2216     1   117.5500507 404.174400
   1428   1421   1446     1   110.1100470 384.091200
   1428   1429   1443     1   109.5600471 388.275200
   1428   1429   1444     1   109.5600471 388.275200
   1429   1428   1441     1   110.5600475 386.601600
   1429   1428   1442     1   110.5600475 386.601600
   1429   1430   1445     1   117.6800502 383.254400
   1430   1429   1443     1   108.8800464 416.726400
   1430   1429   1444     1   108.8800464 416.726400
   1433   1422   1434     1   109.7500473 328.025600
   1435   1423   1436     1   109.7500473 328.025600
   1437   1424   1438     1   107.5800459 329.699200
   1439   1426   1440     1   107.5800459 329.699200
   1441   1428   1442     1   109.7500473 328.025600
   1443   1429   1444     1   108.4600466 328.025600
   1447   1448   1459     1   108.0100461 406.684800
   1447   1448   1460     1   108.0100461 406.684800
   1447   1449   1461     1   108.0100461 406.684800
   1447   1449   1462     1   108.0100461 406.684800
   1447   1454   1467     1   108.0100461 406.684800
   1447   1454   1468     1   108.0100461 406.684800
   1448   1447   1472     1   110.1100470 384.091200
   1448   1450   1463     1   109.8000471 387.438400
   1448   1450   1464     1   109.8000471 387.438400
   1449   1447   1472     1   110.1100470 384.091200
   1449   1452   1465     1   109.8000471 387.438400
   1449   1452   1466     1   109.8000471 387.438400
   1450   1448   1459     1   110.5600475 386.601600
   1450   1448   1460     1   110.5600475 386.601600
   1451   1450   1463     1   108.7700466 392.459200
   1451   1450   1464     1   108.7700466 392.459200
   1451   2227   2228     1   117.5500507 404.174400
   1452   1449   1461     1   110.5600475 386.601600
   1452   1449   1462     1   110.5600475 386.601600
   1453   1452   1465     1   108.7700466 392.459200
   1453   1452   1466     1   108.7700466 392.459200
   1453   2239   2240     1   117.5500507 404.174400
   1454   1447   1472     1   110.1100470 384.091200
   1454   1455   1469     1   109.5600471 388.275200
   1454   1455   1470     1   109.5600471 388.275200
   1455   1454   1467     1   110.5600475 386.601600
   1455   1454   1468     1   110.5600475 386.601600
   1455   1456   1471     1   117.6800502 383.254400
   1456   1455   1469     1   108.8800464 416.726400
   1456   1455   1470     1   108.8800464 416.726400
   1459   1448   1460     1   109.7500473 328.025600
   1461   1449   1462     1   109.7500473 328.025600
   1463   1450   1464     1   107.5800459 329.699200
   1465   1452   1466     1   107.5800459 329.699200
   1467   1454   1468     1   109.7500473 328.025600
   1469   1455   1470     1   108.4600466 328.025600
   1473   1474   1485     1   108.0100461 406.684800
   1473   1474   1486     1   108.0100461 406.684800
   1473   1475   1487     1   108.0100461 406.684800
   1473   1475   1488     1   108.0100461 406.684800
   1473   1480   1493     1   108.0100461 406.684800
   1473   1480   1494     1   108.0100461 406.684800
   1474   1473   1498     1   110.1100470 384.091200
   1474   1476   1489     1   109.8000471 387.438400
   1474   1476   1490     1   109.8000471 387.438400
   1475   1473   1498     1   110.1100470 384.091200
   1475   1478   1491     1   109.8000471 387.438400
   1475   1478   1492     1   109.8000471 387.438400
   1476   1474   1485     1   110.5600475 386.601600
   1476   1474   1486     1   110.5600475 386.601600
   1477   1476   1489     1   108.7700466 392.459200
   1477   1476   1490     1   108.7700466 392.459200
   1477   2251   2252     1   117.5500507 404.174400
   1478   1475   1487     1   110.5600475 386.601600
   1478   1475   1488     1   110.5600475 386.601600
   1479   1478   1491     1   108.7700466 392.459200
   1479   1478   1492     1   108.7700466 392.459200
   1479   2263   2264     1   117.5500507 404.174400
   1480   1473   1498     1   110.1100470 384.091200
   1480   1481   1495     1   109.5600471 388.275200
   1480   1481   1496     1   109.5600471 388.275200
   1481   1480   1493     1   110.5600475 386.601600
   1481   1480   1494     1   110.5600475 386.601600
   1481   1482   1497     1   117.6800502 383.254400
   1482   1481   1495     1   108.8800464 416.726400
   1482   1481   1496     1   108.8800464 416.726400
   1485   1474   1486     1   109.7500473 328.025600
   1487   1475   1488     1   109.7500473 328.025600
   1489   1476   1490     1   107.5800459 329.699200
   1491   1478   1492     1   107.5800459 329.699200
   1493   1480   1494     1   109.7500473 328.025600
   1495   1481   1496     1   108.4600466 328.025600
   1499   1500   1511     1   108.0100461 406.684800
   1499   1500   1512     1   108.0100461 406.684800
   1499   1501   1513     1   108.0100461 406.684800
   1499   1501   1514     1   108.0100461 406.684800
   1499   1506   1519     1   108.0100461 406.684800
   1499   1506   1520     1   108.0100461 406.684800
   1500   1499   1524     1   110.1100470 384.091200
   1500   1502   1515     1   109.8000471 387.438400
   1500   1502   1516     1   109.8000471 387.438400
   1501   1499   1524     1   110.1100470 384.091200
   1501   1504   1517     1   109.8000471 387.438400
   1501   1504   1518     1   109.8000471 387.438400
   1502   1500   1511     1   110.5600475 386.601600
   1502   1500   1512     1   110.5600475 386.601600
   1503   1502   1515     1   108.7700466 392.459200
   1503   1502   1516     1   108.7700466 392.459200
   1503   2275   2276     1   117.5500507 404.174400
   1504   1501   1513     1   110.5600475 386.601600
   1504   1501   1514     1   110.5600475 386.601600
   1505   1504   1517     1   108.7700466 392.459200
   1505   1504   1518     1   108.7700466 392.459200
   1505   2287   2288     1   117.5500507 404.174400
   1506   1499   1524     1   110.1100470 384.091200
   1506   1507   1521     1   109.5600471 388.275200
   1506   1507   1522     1   109.5600471 388.275200
   1507   1506   1519     1   110.5600475 386.601600
   1507   1506   1520     1   110.5600475 386.601600
   1507   1508   1523     1   117.6800502 383.254400
   1508   1507   1521     1   108.8800464 416.726400
   1508   1507   1522     1   108.8800464 416.726400
   1511   1500   1512     1   109.7500473 328.025600
   1513   1501   1514     1   109.7500473 328.025600
   1515   1502   1516     1   107.5800459 329.699200
   1517   1504   1518     1   107.5800459 329.699200
   1519   1506   1520     1   109.7500473 328.025600
   1521   1507   1522     1   108.4600466 328.025600
   1525   1526   1537     1   108.0100461 406.684800
   1525   1526   1538     1   108.0100461 406.684800
   1525   1527   1539     1   108.0100461 406.684800
   1525   1527   1540     1   108.0100461 406.684800
   1525   1532   1545     1   108.0100461 406.684800
   1525   1532   1546     1   108.0100461 406.684800
   1526   1525   1550     1   110.1100470 384.091200
   1526   1528   1541     1   109.8000471 387.438400
   1526   1528   1542     1   109.8000471 387.438400
   1527   1525   1550     1   110.1100470 384.091200
   1527   1530   1543     1   109.8000471 387.438400
   1527   1530   1544     1   109.8000471 387.438400
   1528   1526   1537     1   110.5600475 386.601600
   1528   1526   1538     1   110.5600475 386.601600
   1529   1528   1541     1   108.7700466 392.459200
   1529   1528   1542     1   108.7700466 392.459200
   1529   2299   2300     1   117.5500507 404.174400
   1530   1527   1539     1   110.5600475 386.601600
   1530   1527   1540     1   110.5600475 386.601600
   1531   1530   1543     1   108.7700466 392.459200
   1531   1530   1544     1   108.7700466 392.459200
   1531   2311   2312     1   117.5500507 404.174400
   1532   1525   1550     1   110.1100470 384.091200
   1532   1533   1547     1   109.5600471 388.275200
   1532   1533   1548     1   109.5600471 388.275200
   1533   1532   1545     1   110.5600475 386.601600
   1533   1532   1546     1   110.5600475 386.601600
   1533   1534   1549     1   117.6800502 383.254400
   1534   1533   1547     1   108.8800464 416.726400
   1534   1533   1548     1   108.8800464 416.726400
   1537   1526   1538     1   109.7500473 328.025600
   1539   1527   1540     1   109.7500473 328.025600
   1541   1528   1542     1   107.5800459 329.699200
   1543   1530   1544     1   107.5800459 329.699200
   1545   1532   1546     1   109.7500473 328.025600
   1547   1533   1548     1   108.4600466 328.025600
   1551   1552   1563     1   108.0100461 406.684800
   1551   1552   1564     1   108.0100461 406.684800
   1551   1553   1565     1   108.0100461 406.684800
   1551   1553   1566     1   108.0100461 406.684800
   1551   1558   1571     1   108.0100461 406.684800
   1551   1558   1572     1   108.0100461 406.684800
   1552   1551   1576     1   110.1100470 384.091200
   1552   1554   1567     1   109.8000471 387.438400
   1552   1554   1568     1   109.8000471 387.438400
   1553   1551   1576     1   110.1100470 384.091200
   1553   1556   1569     1   109.8000471 387.438400
   1553   1556   1570     1   109.8000471 387.438400
   1554   1552   1563     1   110.5600475 386.601600
   1554   1552   1564     1   110.5600475 386.601600
   1555   1554   1567     1   108.7700466 392.459200
   1555   1554   1568     1   108.7700466 392.459200
   1555   2323   2324     1   117.5500507 404.174400
   1556   1553   1565     1   110.5600475 386.601600
   1556   1553   1566     1   110.5600475 386.601600
   1557   1556   1569     1   108.7700466 392.459200
   1557   1556   1570     1   108.7700466 392.459200
   1557   2335   2336     1   117.5500507 404.174400
   1558   1551   1576     1   110.1100470 384.091200
   1558   1559   1573     1   109.5600471 388.275200
   1558   1559   1574     1   109.5600471 388.275200
   1559   1558   1571     1   110.5600475 386.601600
   1559   1558   1572     1   110.5600475 386.601600
   1559   1560   1575     1   117.6800502 383.254400
   1560   1559   1573     1   108.8800464 416.726400
   1560   1559   1574     1   108.8800464 416.726400
   1563   1552   1564     1   109.7500473 328.025600
   1565   1553   1566     1   109.7500473 328.025600
   1567   1554   1568     1   107.5800459 329.699200
   1569   1556   1570     1   107.5800459 329.699200
   1571   1558   1572     1   109.7500473 328.025600
   1573   1559   1574     1   108.4600466 328.025600
   1577   1578   1589     1   108.0100461 406.684800
   1577   1578   1590     1   108.0100461 406.684800
   1577   1579   1591     1   108.0100461 406.684800
   1577   1579   1592     1   108.0100461 406.684800
   1577   1584   1597     1   108.0100461 406.684800
   1577   1584   1598     1   108.0100461 406.684800
   1578   1577   1602     1   110.1100470 384.091200
   1578   1580   1593     1   109.8000471 387.438400
   1578   1580   1594     1   109.8000471 387.438400
   1579   1577   1602     1   110.1100470 384.091200
   1579   1582   1595     1   109.8000471 387.438400
   1579   1582   1596     1   109.8000471 387.438400
   1580   1578   1589     1   110.5600475 386.601600
   1580   1578   1590     1   110.5600475 386.601600
   1581   1580   1593     1   108.7700466 392.459200
   1581   1580   1594     1   108.7700466 392.459200
   1581   2347   2348     1   117.5500507 404.174400
   1582   1579   1591     1   110.5600475 386.601600
   1582   1579   1592     1   110.5600475 386.601600
   1583   1582   1595     1   108.7700466 392.459200
   1583   1582   1596     1   108.7700466 392.459200
   1583   2359   2360     1   117.5500507 404.174400
   1584   1577   1602     1   110.1100470 384.091200
   1584   1585   1599     1   109.5600471 388.275200
   1584   1585   1600     1   109.5600471 388.275200
   1585   1584   1597     1   110.5600475 386.601600
   1585   1584   1598     1   110.5600475 386.601600
   1585   1586   1601     1   117.6800502 383.254400
   1586   1585   1599     1   108.8800464 416.726400
   1586   1585   1600     1   108.8800464 416.726400
   1589   1578   1590     1   109.7500473 328.025600
   1591   1579   1592     1   109.7500473 328.025600
   1593   1580   1594     1   107.5800459 329.699200
   1595   1582   1596     1   107.5800459 329.699200
   1597   1584   1598     1   109.7500473 328.025600
   1599   1585   1600     1   108.4600466 328.025600
   1603   1605   1607     1   108.8800464 416.726400
   1603   1605   1608     1   108.8800464 416.726400
   1604   1603   1605     1   117.6800502 383.254400
   1605   1606   1609     1   110.5600475 386.601600
   1605   1606   1610     1   110.5600475 386.601600
   1606   1605   1607     1   109.5600471 388.275200
   1606   1605   1608     1   109.5600471 388.275200
   1606   1611   1612     1   110.1100470 384.091200
   1606   1611   1613     1   110.1100470 384.091200
   1606   1611   1614     1   110.1100470 384.091200
   1607   1605   1608     1   108.4600466 328.025600
   1609   1606   1611     1   108.0100461 406.684800
   1609   1606   1610     1   109.7500473 328.025600
   1610   1606   1611     1   108.0100461 406.684800
   1612   1611   1613     1   108.3000464 339.740800
   1612   1611   1614     1   108.3000464 339.740800
   1613   1611   1614     1   108.3000464 339.740800
   1615   1617   1619     1   108.8800464 416.726400
   1615   1617   1620     1   108.8800464 416.726400
   1616   1615   1617     1   117.6800502 383.254400
   1617   1618   1621     1   110.5600475 386.601600
   1617   1618   1622     1   110.5600475 386.601600
   1618   1623   1624     1   110.1100470 384.091200
   1618   1623   1625     1   110.1100470 384.091200
   1618   1623   1626     1   110.1100470 384.091200
   1618   1617   1619     1   109.5600471 388.275200
   1618   1617   1620     1   109.5600471 388.275200
   1619   1617   1620     1   108.4600466 328.025600
   1621   1618   1623     1   108.0100461 406.684800
   1621   1618   1622     1   109.7500473 328.025600
   1622   1618   1623     1   108.0100461 406.684800
   1624   1623   1625     1   108.3000464 339.740800
   1624   1623   1626     1   108.3000464 339.740800
   1625   1623   1626     1   108.3000464 339.740800
   1627   1629   1631     1   108.8800464 416.726400
   1627   1629   1632     1   108.8800464 416.726400
   1628   1627   1629     1   117.6800502 383.254400
   1629   1630   1633     1   110.5600475 386.601600
   1629   1630   1634     1   110.5600475 386.601600
   1630   1629   1631     1   109.5600471 388.275200
   1630   1629   1632     1   109.5600471 388.275200
   1630   1635   1636     1   110.1100470 384.091200
   1630   1635   1637     1   110.1100470 384.091200
   1630   1635   1638     1   110.1100470 384.091200
   1631   1629   1632     1   108.4600466 328.025600
   1633   1630   1635     1   108.0100461 406.684800
   1633   1630   1634     1   109.7500473 328.025600
   1634   1630   1635     1   108.0100461 406.684800
   1636   1635   1637     1   108.3000464 339.740800
   1636   1635   1638     1   108.3000464 339.740800
   1637   1635   1638     1   108.3000464 339.740800
   1639   1641   1643     1   108.8800464 416.726400
   1639   1641   1644     1   108.8800464 416.726400
   1640   1639   1641     1   117.6800502 383.254400
   1641   1642   1645     1   110.5600475 386.601600
   1641   1642   1646     1   110.5600475 386.601600
   1642   1647   1648     1   110.1100470 384.091200
   1642   1647   1649     1   110.1100470 384.091200
   1642   1647   1650     1   110.1100470 384.091200
   1642   1641   1643     1   109.5600471 388.275200
   1642   1641   1644     1   109.5600471 388.275200
   1643   1641   1644     1   108.4600466 328.025600
   1645   1642   1647     1   108.0100461 406.684800
   1645   1642   1646     1   109.7500473 328.025600
   1646   1642   1647     1   108.0100461 406.684800
   1648   1647   1649     1   108.3000464 339.740800
   1648   1647   1650     1   108.3000464 339.740800
   1649   1647   1650     1   108.3000464 339.740800
   1651   1653   1655     1   108.8800464 416.726400
   1651   1653   1656     1   108.8800464 416.726400
   1652   1651   1653     1   117.6800502 383.254400
   1653   1654   1657     1   110.5600475 386.601600
   1653   1654   1658     1   110.5600475 386.601600
   1654   1653   1655     1   109.5600471 388.275200
   1654   1653   1656     1   109.5600471 388.275200
   1654   1659   1660     1   110.1100470 384.091200
   1654   1659   1661     1   110.1100470 384.091200
   1654   1659   1662     1   110.1100470 384.091200
   1655   1653   1656     1   108.4600466 328.025600
   1657   1654   1659     1   108.0100461 406.684800
   1657   1654   1658     1   109.7500473 328.025600
   1658   1654   1659     1   108.0100461 406.684800
   1660   1659   1661     1   108.3000464 339.740800
   1660   1659   1662     1   108.3000464 339.740800
   1661   1659   1662     1   108.3000464 339.740800
   1663   1665   1667     1   108.8800464 416.726400
   1663   1665   1668     1   108.8800464 416.726400
   1664   1663   1665     1   117.6800502 383.254400
   1665   1666   1669     1   110.5600475 386.601600
   1665   1666   1670     1   110.5600475 386.601600
   1666   1671   1672     1   110.1100470 384.091200
   1666   1671   1673     1   110.1100470 384.091200
   1666   1671   1674     1   110.1100470 384.091200
   1666   1665   1667     1   109.5600471 388.275200
   1666   1665   1668     1   109.5600471 388.275200
   1667   1665   1668     1   108.4600466 328.025600
   1669   1666   1671     1   108.0100461 406.684800
   1669   1666   1670     1   109.7500473 328.025600
   1670   1666   1671     1   108.0100461 406.684800
   1672   1671   1673     1   108.3000464 339.740800
   1672   1671   1674     1   108.3000464 339.740800
   1673   1671   1674     1   108.3000464 339.740800
   1675   1677   1679     1   108.8800464 416.726400
   1675   1677   1680     1   108.8800464 416.726400
   1676   1675   1677     1   117.6800502 383.254400
   1677   1678   1681     1   110.5600475 386.601600
   1677   1678   1682     1   110.5600475 386.601600
   1678   1677   1679     1   109.5600471 388.275200
   1678   1677   1680     1   109.5600471 388.275200
   1678   1683   1684     1   110.1100470 384.091200
   1678   1683   1685     1   110.1100470 384.091200
   1678   1683   1686     1   110.1100470 384.091200
   1679   1677   1680     1   108.4600466 328.025600
   1681   1678   1683     1   108.0100461 406.684800
   1681   1678   1682     1   109.7500473 328.025600
   1682   1678   1683     1   108.0100461 406.684800
   1684   1683   1685     1   108.3000464 339.740800
   1684   1683   1686     1   108.3000464 339.740800
   1685   1683   1686     1   108.3000464 339.740800
   1687   1689   1691     1   108.8800464 416.726400
   1687   1689   1692     1   108.8800464 416.726400
   1688   1687   1689     1   117.6800502 383.254400
   1689   1690   1693     1   110.5600475 386.601600
   1689   1690   1694     1   110.5600475 386.601600
   1690   1695   1696     1   110.1100470 384.091200
   1690   1695   1697     1   110.1100470 384.091200
   1690   1695   1698     1   110.1100470 384.091200
   1690   1689   1691     1   109.5600471 388.275200
   1690   1689   1692     1   109.5600471 388.275200
   1691   1689   1692     1   108.4600466 328.025600
   1693   1690   1695     1   108.0100461 406.684800
   1693   1690   1694     1   109.7500473 328.025600
   1694   1690   1695     1   108.0100461 406.684800
   1696   1695   1697     1   108.3000464 339.740800
   1696   1695   1698     1   108.3000464 339.740800
   1697   1695   1698     1   108.3000464 339.740800
   1699   1701   1703     1   108.8800464 416.726400
   1699   1701   1704     1   108.8800464 416.726400
   1700   1699   1701     1   117.6800502 383.254400
   1701   1702   1705     1   110.5600475 386.601600
   1701   1702   1706     1   110.5600475 386.601600
   1702   1701   1703     1   109.5600471 388.275200
   1702   1701   1704     1   109.5600471 388.275200
   1702   1707   1708     1   110.1100470 384.091200
   1702   1707   1709     1   110.1100470 384.091200
   1702   1707   1710     1   110.1100470 384.091200
   1703   1701   1704     1   108.4600466 328.025600
   1705   1702   1707     1   108.0100461 406.684800
   1705   1702   1706     1   109.7500473 328.025600
   1706   1702   1707     1   108.0100461 406.684800
   1708   1707   1709     1   108.3000464 339.740800
   1708   1707   1710     1   108.3000464 339.740800
   1709   1707   1710     1   108.3000464 339.740800
   1711   1713   1715     1   108.8800464 416.726400
   1711   1713   1716     1   108.8800464 416.726400
   1712   1711   1713     1   117.6800502 383.254400
   1713   1714   1717     1   110.5600475 386.601600
   1713   1714   1718     1   110.5600475 386.601600
   1714   1719   1720     1   110.1100470 384.091200
   1714   1719   1721     1   110.1100470 384.091200
   1714   1719   1722     1   110.1100470 384.091200
   1714   1713   1715     1   109.5600471 388.275200
   1714   1713   1716     1   109.5600471 388.275200
   1715   1713   1716     1   108.4600466 328.025600
   1717   1714   1719     1   108.0100461 406.684800
   1717   1714   1718     1   109.7500473 328.025600
   1718   1714   1719     1   108.0100461 406.684800
   1720   1719   1721     1   108.3000464 339.740800
   1720   1719   1722     1   108.3000464 339.740800
   1721   1719   1722     1   108.3000464 339.740800
   1723   1725   1727     1   108.8800464 416.726400
   1723   1725   1728     1   108.8800464 416.726400
   1724   1723   1725     1   117.6800502 383.254400
   1725   1726   1729     1   110.5600475 386.601600
   1725   1726   1730     1   110.5600475 386.601600
   1726   1725   1727     1   109.5600471 388.275200
   1726   1725   1728     1   109.5600471 388.275200
   1726   1731   1732     1   110.1100470 384.091200
   1726   1731   1733     1   110.1100470 384.091200
   1726   1731   1734     1   110.1100470 384.091200
   1727   1725   1728     1   108.4600466 328.025600
   1729   1726   1731     1   108.0100461 406.684800
   1729   1726   1730     1   109.7500473 328.025600
   1730   1726   1731     1   108.0100461 406.684800
   1732   1731   1733     1   108.3000464 339.740800
   1732   1731   1734     1   108.3000464 339.740800
   1733   1731   1734     1   108.3000464 339.740800
   1735   1737   1739     1   108.8800464 416.726400
   1735   1737   1740     1   108.8800464 416.726400
   1736   1735   1737     1   117.6800502 383.254400
   1737   1738   1741     1   110.5600475 386.601600
   1737   1738   1742     1   110.5600475 386.601600
   1738   1743   1744     1   110.1100470 384.091200
   1738   1743   1745     1   110.1100470 384.091200
   1738   1743   1746     1   110.1100470 384.091200
   1738   1737   1739     1   109.5600471 388.275200
   1738   1737   1740     1   109.5600471 388.275200
   1739   1737   1740     1   108.4600466 328.025600
   1741   1738   1743     1   108.0100461 406.684800
   1741   1738   1742     1   109.7500473 328.025600
   1742   1738   1743     1   108.0100461 406.684800
   1744   1743   1745     1   108.3000464 339.740800
   1744   1743   1746     1   108.3000464 339.740800
   1745   1743   1746     1   108.3000464 339.740800
   1747   1749   1751     1   108.8800464 416.726400
   1747   1749   1752     1   108.8800464 416.726400
   1748   1747   1749     1   117.6800502 383.254400
   1749   1750   1753     1   110.5600475 386.601600
   1749   1750   1754     1   110.5600475 386.601600
   1750   1749   1751     1   109.5600471 388.275200
   1750   1749   1752     1   109.5600471 388.275200
   1750   1755   1756     1   110.1100470 384.091200
   1750   1755   1757     1   110.1100470 384.091200
   1750   1755   1758     1   110.1100470 384.091200
   1751   1749   1752     1   108.4600466 328.025600
   1753   1750   1755     1   108.0100461 406.684800
   1753   1750   1754     1   109.7500473 328.025600
   1754   1750   1755     1   108.0100461 406.684800
   1756   1755   1757     1   108.3000464 339.740800
   1756   1755   1758     1   108.3000464 339.740800
   1757   1755   1758     1   108.3000464 339.740800
   1759   1761   1763     1   108.8800464 416.726400
   1759   1761   1764     1   108.8800464 416.726400
   1760   1759   1761     1   117.6800502 383.254400
   1761   1762   1765     1   110.5600475 386.601600
   1761   1762   1766     1   110.5600475 386.601600
   1762   1767   1768     1   110.1100470 384.091200
   1762   1767   1769     1   110.1100470 384.091200
   1762   1767   1770     1   110.1100470 384.091200
   1762   1761   1763     1   109.5600471 388.275200
   1762   1761   1764     1   109.5600471 388.275200
   1763   1761   1764     1   108.4600466 328.025600
   1765   1762   1767     1   108.0100461 406.684800
   1765   1762   1766     1   109.7500473 328.025600
   1766   1762   1767     1   108.0100461 406.684800
   1768   1767   1769     1   108.3000464 339.740800
   1768   1767   1770     1   108.3000464 339.740800
   1769   1767   1770     1   108.3000464 339.740800
   1771   1773   1775     1   108.8800464 416.726400
   1771   1773   1776     1   108.8800464 416.726400
   1772   1771   1773     1   117.6800502 383.254400
   1773   1774   1777     1   110.5600475 386.601600
   1773   1774   1778     1   110.5600475 386.601600
   1774   1773   1775     1   109.5600471 388.275200
   1774   1773   1776     1   109.5600471 388.275200
   1774   1779   1780     1   110.1100470 384.091200
   1774   1779   1781     1   110.1100470 384.091200
   1774   1779   1782     1   110.1100470 384.091200
   1775   1773   1776     1   108.4600466 328.025600
   1777   1774   1779     1   108.0100461 406.684800
   1777   1774   1778     1   109.7500473 328.025600
   1778   1774   1779     1   108.0100461 406.684800
   1780   1779   1781     1   108.3000464 339.740800
   1780   1779   1782     1   108.3000464 339.740800
   1781   1779   1782     1   108.3000464 339.740800
   1783   1785   1787     1   108.8800464 416.726400
   1783   1785   1788     1   108.8800464 416.726400
   1784   1783   1785     1   117.6800502 383.254400
   1785   1786   1789     1   110.5600475 386.601600
   1785   1786   1790     1   110.5600475 386.601600
   1786   1791   1792     1   110.1100470 384.091200
   1786   1791   1793     1   110.1100470 384.091200
   1786   1791   1794     1   110.1100470 384.091200
   1786   1785   1787     1   109.5600471 388.275200
   1786   1785   1788     1   109.5600471 388.275200
   1787   1785   1788     1   108.4600466 328.025600
   1789   1786   1791     1   108.0100461 406.684800
   1789   1786   1790     1   109.7500473 328.025600
   1790   1786   1791     1   108.0100461 406.684800
   1792   1791   1793     1   108.3000464 339.740800
   1792   1791   1794     1   108.3000464 339.740800
   1793   1791   1794     1   108.3000464 339.740800
   1795   1797   1799     1   108.8800464 416.726400
   1795   1797   1800     1   108.8800464 416.726400
   1796   1795   1797     1   117.6800502 383.254400
   1797   1798   1801     1   110.5600475 386.601600
   1797   1798   1802     1   110.5600475 386.601600
   1798   1797   1799     1   109.5600471 388.275200
   1798   1797   1800     1   109.5600471 388.275200
   1798   1803   1804     1   110.1100470 384.091200
   1798   1803   1805     1   110.1100470 384.091200
   1798   1803   1806     1   110.1100470 384.091200
   1799   1797   1800     1   108.4600466 328.025600
   1801   1798   1803     1   108.0100461 406.684800
   1801   1798   1802     1   109.7500473 328.025600
   1802   1798   1803     1   108.0100461 406.684800
   1804   1803   1805     1   108.3000464 339.740800
   1804   1803   1806     1   108.3000464 339.740800
   1805   1803   1806     1   108.3000464 339.740800
   1807   1809   1811     1   108.8800464 416.726400
   1807   1809   1812     1   108.8800464 416.726400
   1808   1807   1809     1   117.6800502 383.254400
   1809   1810   1813     1   110.5600475 386.601600
   1809   1810   1814     1   110.5600475 386.601600
   1810   1815   1816     1   110.1100470 384.091200
   1810   1815   1817     1   110.1100470 384.091200
   1810   1815   1818     1   110.1100470 384.091200
   1810   1809   1811     1   109.5600471 388.275200
   1810   1809   1812     1   109.5600471 388.275200
   1811   1809   1812     1   108.4600466 328.025600
   1813   1810   1815     1   108.0100461 406.684800
   1813   1810   1814     1   109.7500473 328.025600
   1814   1810   1815     1   108.0100461 406.684800
   1816   1815   1817     1   108.3000464 339.740800
   1816   1815   1818     1   108.3000464 339.740800
   1817   1815   1818     1   108.3000464 339.740800
   1819   1821   1823     1   108.8800464 416.726400
   1819   1821   1824     1   108.8800464 416.726400
   1820   1819   1821     1   117.6800502 383.254400
   1821   1822   1825     1   110.5600475 386.601600
   1821   1822   1826     1   110.5600475 386.601600
   1822   1821   1823     1   109.5600471 388.275200
   1822   1821   1824     1   109.5600471 388.275200
   1822   1827   1828     1   110.1100470 384.091200
   1822   1827   1829     1   110.1100470 384.091200
   1822   1827   1830     1   110.1100470 384.091200
   1823   1821   1824     1   108.4600466 328.025600
   1825   1822   1827     1   108.0100461 406.684800
   1825   1822   1826     1   109.7500473 328.025600
   1826   1822   1827     1   108.0100461 406.684800
   1828   1827   1829     1   108.3000464 339.740800
   1828   1827   1830     1   108.3000464 339.740800
   1829   1827   1830     1   108.3000464 339.740800
   1831   1833   1835     1   108.8800464 416.726400
   1831   1833   1836     1   108.8800464 416.726400
   1832   1831   1833     1   117.6800502 383.254400
   1833   1834   1837     1   110.5600475 386.601600
   1833   1834   1838     1   110.5600475 386.601600
   1834   1839   1840     1   110.1100470 384.091200
   1834   1839   1841     1   110.1100470 384.091200
   1834   1839   1842     1   110.1100470 384.091200
   1834   1833   1835     1   109.5600471 388.275200
   1834   1833   1836     1   109.5600471 388.275200
   1835   1833   1836     1   108.4600466 328.025600
   1837   1834   1839     1   108.0100461 406.684800
   1837   1834   1838     1   109.7500473 328.025600
   1838   1834   1839     1   108.0100461 406.684800
   1840   1839   1841     1   108.3000464 339.740800
   1840   1839   1842     1   108.3000464 339.740800
   1841   1839   1842     1   108.3000464 339.740800
   1843   1845   1847     1   108.8800464 416.726400
   1843   1845   1848     1   108.8800464 416.726400
   1844   1843   1845     1   117.6800502 383.254400
   1845   1846   1849     1   110.5600475 386.601600
   1845   1846   1850     1   110.5600475 386.601600
   1846   1845   1847     1   109.5600471 388.275200
   1846   1845   1848     1   109.5600471 388.275200
   1846   1851   1852     1   110.1100470 384.091200
   1846   1851   1853     1   110.1100470 384.091200
   1846   1851   1854     1   110.1100470 384.091200
   1847   1845   1848     1   108.4600466 328.025600
   1849   1846   1851     1   108.0100461 406.684800
   1849   1846   1850     1   109.7500473 328.025600
   1850   1846   1851     1   108.0100461 406.684800
   1852   1851   1853     1   108.3000464 339.740800
   1852   1851   1854     1   108.3000464 339.740800
   1853   1851   1854     1   108.3000464 339.740800
   1855   1857   1859     1   108.8800464 416.726400
   1855   1857   1860     1   108.8800464 416.726400
   1856   1855   1857     1   117.6800502 383.254400
   1857   1858   1861     1   110.5600475 386.601600
   1857   1858   1862     1   110.5600475 386.601600
   1858   1863   1864     1   110.1100470 384.091200
   1858   1863   1865     1   110.1100470 384.091200
   1858   1863   1866     1   110.1100470 384.091200
   1858   1857   1859     1   109.5600471 388.275200
   1858   1857   1860     1   109.5600471 388.275200
   1859   1857   1860     1   108.4600466 328.025600
   1861   1858   1863     1   108.0100461 406.684800
   1861   1858   1862     1   109.7500473 328.025600
   1862   1858   1863     1   108.0100461 406.684800
   1864   1863   1865     1   108.3000464 339.740800
   1864   1863   1866     1   108.3000464 339.740800
   1865   1863   1866     1   108.3000464 339.740800
   1867   1869   1871     1   108.8800464 416.726400
   1867   1869   1872     1   108.8800464 416.726400
   1868   1867   1869     1   117.6800502 383.254400
   1869   1870   1873     1   110.5600475 386.601600
   1869   1870   1874     1   110.5600475 386.601600
   1870   1869   1871     1   109.5600471 388.275200
   1870   1869   1872     1   109.5600471 388.275200
   1870   1875   1876     1   110.1100470 384.091200
   1870   1875   1877     1   110.1100470 384.091200
   1870   1875   1878     1   110.1100470 384.091200
   1871   1869   1872     1   108.4600466 328.025600
   1873   1870   1875     1   108.0100461 406.684800
   1873   1870   1874     1   109.7500473 328.025600
   1874   1870   1875     1   108.0100461 406.684800
   1876   1875   1877     1   108.3000464 339.740800
   1876   1875   1878     1   108.3000464 339.740800
   1877   1875   1878     1   108.3000464 339.740800
   1879   1881   1883     1   108.8800464 416.726400
   1879   1881   1884     1   108.8800464 416.726400
   1880   1879   1881     1   117.6800502 383.254400
   1881   1882   1885     1   110.5600475 386.601600
   1881   1882   1886     1   110.5600475 386.601600
   1882   1887   1888     1   110.1100470 384.091200
   1882   1887   1889     1   110.1100470 384.091200
   1882   1887   1890     1   110.1100470 384.091200
   1882   1881   1883     1   109.5600471 388.275200
   1882   1881   1884     1   109.5600471 388.275200
   1883   1881   1884     1   108.4600466 328.025600
   1885   1882   1887     1   108.0100461 406.684800
   1885   1882   1886     1   109.7500473 328.025600
   1886   1882   1887     1   108.0100461 406.684800
   1888   1887   1889     1   108.3000464 339.740800
   1888   1887   1890     1   108.3000464 339.740800
   1889   1887   1890     1   108.3000464 339.740800
   1891   1893   1895     1   108.8800464 416.726400
   1891   1893   1896     1   108.8800464 416.726400
   1892   1891   1893     1   117.6800502 383.254400
   1893   1894   1897     1   110.5600475 386.601600
   1893   1894   1898     1   110.5600475 386.601600
   1894   1893   1895     1   109.5600471 388.275200
   1894   1893   1896     1   109.5600471 388.275200
   1894   1899   1900     1   110.1100470 384.091200
   1894   1899   1901     1   110.1100470 384.091200
   1894   1899   1902     1   110.1100470 384.091200
   1895   1893   1896     1   108.4600466 328.025600
   1897   1894   1899     1   108.0100461 406.684800
   1897   1894   1898     1   109.7500473 328.025600
   1898   1894   1899     1   108.0100461 406.684800
   1900   1899   1901     1   108.3000464 339.740800
   1900   1899   1902     1   108.3000464 339.740800
   1901   1899   1902     1   108.3000464 339.740800
   1903   1905   1907     1   108.8800464 416.726400
   1903   1905   1908     1   108.8800464 416.726400
   1904   1903   1905     1   117.6800502 383.254400
   1905   1906   1909     1   110.5600475 386.601600
   1905   1906   1910     1   110.5600475 386.601600
   1906   1911   1912     1   110.1100470 384.091200
   1906   1911   1913     1   110.1100470 384.091200
   1906   1911   1914     1   110.1100470 384.091200
   1906   1905   1907     1   109.5600471 388.275200
   1906   1905   1908     1   109.5600471 388.275200
   1907   1905   1908     1   108.4600466 328.025600
   1909   1906   1911     1   108.0100461 406.684800
   1909   1906   1910     1   109.7500473 328.025600
   1910   1906   1911     1   108.0100461 406.684800
   1912   1911   1913     1   108.3000464 339.740800
   1912   1911   1914     1   108.3000464 339.740800
   1913   1911   1914     1   108.3000464 339.740800
   1915   1917   1919     1   108.8800464 416.726400
   1915   1917   1920     1   108.8800464 416.726400
   1916   1915   1917     1   117.6800502 383.254400
   1917   1918   1921     1   110.5600475 386.601600
   1917   1918   1922     1   110.5600475 386.601600
   1918   1917   1919     1   109.5600471 388.275200
   1918   1917   1920     1   109.5600471 388.275200
   1918   1923   1924     1   110.1100470 384.091200
   1918   1923   1925     1   110.1100470 384.091200
   1918   1923   1926     1   110.1100470 384.091200
   1919   1917   1920     1   108.4600466 328.025600
   1921   1918   1923     1   108.0100461 406.684800
   1921   1918   1922     1   109.7500473 328.025600
   1922   1918   1923     1   108.0100461 406.684800
   1924   1923   1925     1   108.3000464 339.740800
   1924   1923   1926     1   108.3000464 339.740800
   1925   1923   1926     1   108.3000464 339.740800
   1927   1929   1931     1   108.8800464 416.726400
   1927   1929   1932     1   108.8800464 416.726400
   1928   1927   1929     1   117.6800502 383.254400
   1929   1930   1933     1   110.5600475 386.601600
   1929   1930   1934     1   110.5600475 386.601600
   1930   1935   1936     1   110.1100470 384.091200
   1930   1935   1937     1   110.1100470 384.091200
   1930   1935   1938     1   110.1100470 384.091200
   1930   1929   1931     1   109.5600471 388.275200
   1930   1929   1932     1   109.5600471 388.275200
   1931   1929   1932     1   108.4600466 328.025600
   1933   1930   1935     1   108.0100461 406.684800
   1933   1930   1934     1   109.7500473 328.025600
   1934   1930   1935     1   108.0100461 406.684800
   1936   1935   1937     1   108.3000464 339.740800
   1936   1935   1938     1   108.3000464 339.740800
   1937   1935   1938     1   108.3000464 339.740800
   1939   1941   1943     1   108.8800464 416.726400
   1939   1941   1944     1   108.8800464 416.726400
   1940   1939   1941     1   117.6800502 383.254400
   1941   1942   1945     1   110.5600475 386.601600
   1941   1942   1946     1   110.5600475 386.601600
   1942   1941   1943     1   109.5600471 388.275200
   1942   1941   1944     1   109.5600471 388.275200
   1942   1947   1948     1   110.1100470 384.091200
   1942   1947   1949     1   110.1100470 384.091200
   1942   1947   1950     1   110.1100470 384.091200
   1943   1941   1944     1   108.4600466 328.025600
   1945   1942   1947     1   108.0100461 406.684800
   1945   1942   1946     1   109.7500473 328.025600
   1946   1942   1947     1   108.0100461 406.684800
   1948   1947   1949     1   108.3000464 339.740800
   1948   1947   1950     1   108.3000464 339.740800
   1949   1947   1950     1   108.3000464 339.740800
   1951   1953   1955     1   108.8800464 416.726400
   1951   1953   1956     1   108.8800464 416.726400
   1952   1951   1953     1   117.6800502 383.254400
   1953   1954   1957     1   110.5600475 386.601600
   1953   1954   1958     1   110.5600475 386.601600
   1954   1959   1960     1   110.1100470 384.091200
   1954   1959   1961     1   110.1100470 384.091200
   1954   1959   1962     1   110.1100470 384.091200
   1954   1953   1955     1   109.5600471 388.275200
   1954   1953   1956     1   109.5600471 388.275200
   1955   1953   1956     1   108.4600466 328.025600
   1957   1954   1959     1   108.0100461 406.684800
   1957   1954   1958     1   109.7500473 328.025600
   1958   1954   1959     1   108.0100461 406.684800
   1960   1959   1961     1   108.3000464 339.740800
   1960   1959   1962     1   108.3000464 339.740800
   1961   1959   1962     1   108.3000464 339.740800
   1963   1965   1967     1   108.8800464 416.726400
   1963   1965   1968     1   108.8800464 416.726400
   1964   1963   1965     1   117.6800502 383.254400
   1965   1966   1969     1   110.5600475 386.601600
   1965   1966   1970     1   110.5600475 386.601600
   1966   1965   1967     1   109.5600471 388.275200
   1966   1965   1968     1   109.5600471 388.275200
   1966   1971   1972     1   110.1100470 384.091200
   1966   1971   1973     1   110.1100470 384.091200
   1966   1971   1974     1   110.1100470 384.091200
   1967   1965   1968     1   108.4600466 328.025600
   1969   1966   1971     1   108.0100461 406.684800
   1969   1966   1970     1   109.7500473 328.025600
   1970   1966   1971     1   108.0100461 406.684800
   1972   1971   1973     1   108.3000464 339.740800
   1972   1971   1974     1   108.3000464 339.740800
   1973   1971   1974     1   108.3000464 339.740800
   1975   1977   1979     1   108.8800464 416.726400
   1975   1977   1980     1   108.8800464 416.726400
   1976   1975   1977     1   117.6800502 383.254400
   1977   1978   1981     1   110.5600475 386.601600
   1977   1978   1982     1   110.5600475 386.601600
   1978   1983   1984     1   110.1100470 384.091200
   1978   1983   1985     1   110.1100470 384.091200
   1978   1983   1986     1   110.1100470 384.091200
   1978   1977   1979     1   109.5600471 388.275200
   1978   1977   1980     1   109.5600471 388.275200
   1979   1977   1980     1   108.4600466 328.025600
   1981   1978   1983     1   108.0100461 406.684800
   1981   1978   1982     1   109.7500473 328.025600
   1982   1978   1983     1   108.0100461 406.684800
   1984   1983   1985     1   108.3000464 339.740800
   1984   1983   1986     1   108.3000464 339.740800
   1985   1983   1986     1   108.3000464 339.740800
   1987   1989   1991     1   108.8800464 416.726400
   1987   1989   1992     1   108.8800464 416.726400
   1988   1987   1989     1   117.6800502 383.254400
   1989   1990   1993     1   110.5600475 386.601600
   1989   1990   1994     1   110.5600475 386.601600
   1990   1989   1991     1   109.5600471 388.275200
   1990   1989   1992     1   109.5600471 388.275200
   1990   1995   1996     1   110.1100470 384.091200
   1990   1995   1997     1   110.1100470 384.091200
   1990   1995   1998     1   110.1100470 384.091200
   1991   1989   1992     1   108.4600466 328.025600
   1993   1990   1995     1   108.0100461 406.684800
   1993   1990   1994     1   109.7500473 328.025600
   1994   1990   1995     1   108.0100461 406.684800
   1996   1995   1997     1   108.3000464 339.740800
   1996   1995   1998     1   108.3000464 339.740800
   1997   1995   1998     1   108.3000464 339.740800
   1999   2001   2003     1   108.8800464 416.726400
   1999   2001   2004     1   108.8800464 416.726400
   2000   1999   2001     1   117.6800502 383.254400
   2001   2002   2005     1   110.5600475 386.601600
   2001   2002   2006     1   110.5600475 386.601600
   2002   2007   2008     1   110.1100470 384.091200
   2002   2007   2009     1   110.1100470 384.091200
   2002   2007   2010     1   110.1100470 384.091200
   2002   2001   2003     1   109.5600471 388.275200
   2002   2001   2004     1   109.5600471 388.275200
   2003   2001   2004     1   108.4600466 328.025600
   2005   2002   2007     1   108.0100461 406.684800
   2005   2002   2006     1   109.7500473 328.025600
   2006   2002   2007     1   108.0100461 406.684800
   2008   2007   2009     1   108.3000464 339.740800
   2008   2007   2010     1   108.3000464 339.740800
   2009   2007   2010     1   108.3000464 339.740800
   2011   2013   2015     1   108.8800464 416.726400
   2011   2013   2016     1   108.8800464 416.726400
   2012   2011   2013     1   117.6800502 383.254400
   2013   2014   2017     1   110.5600475 386.601600
   2013   2014   2018     1   110.5600475 386.601600
   2014   2013   2015     1   109.5600471 388.275200
   2014   2013   2016     1   109.5600471 388.275200
   2014   2019   2020     1   110.1100470 384.091200
   2014   2019   2021     1   110.1100470 384.091200
   2014   2019   2022     1   110.1100470 384.091200
   2015   2013   2016     1   108.4600466 328.025600
   2017   2014   2019     1   108.0100461 406.684800
   2017   2014   2018     1   109.7500473 328.025600
   2018   2014   2019     1   108.0100461 406.684800
   2020   2019   2021     1   108.3000464 339.740800
   2020   2019   2022     1   108.3000464 339.740800
   2021   2019   2022     1   108.3000464 339.740800
   2023   2025   2027     1   108.8800464 416.726400
   2023   2025   2028     1   108.8800464 416.726400
   2024   2023   2025     1   117.6800502 383.254400
   2025   2026   2029     1   110.5600475 386.601600
   2025   2026   2030     1   110.5600475 386.601600
   2026   2031   2032     1   110.1100470 384.091200
   2026   2031   2033     1   110.1100470 384.091200
   2026   2031   2034     1   110.1100470 384.091200
   2026   2025   2027     1   109.5600471 388.275200
   2026   2025   2028     1   109.5600471 388.275200
   2027   2025   2028     1   108.4600466 328.025600
   2029   2026   2031     1   108.0100461 406.684800
   2029   2026   2030     1   109.7500473 328.025600
   2030   2026   2031     1   108.0100461 406.684800
   2032   2031   2033     1   108.3000464 339.740800
   2032   2031   2034     1   108.3000464 339.740800
   2033   2031   2034     1   108.3000464 339.740800
   2035   2037   2039     1   108.8800464 416.726400
   2035   2037   2040     1   108.8800464 416.726400
   2036   2035   2037     1   117.6800502 383.254400
   2037   2038   2041     1   110.5600475 386.601600
   2037   2038   2042     1   110.5600475 386.601600
   2038   2037   2039     1   109.5600471 388.275200
   2038   2037   2040     1   109.5600471 388.275200
   2038   2043   2044     1   110.1100470 384.091200
   2038   2043   2045     1   110.1100470 384.091200
   2038   2043   2046     1   110.1100470 384.091200
   2039   2037   2040     1   108.4600466 328.025600
   2041   2038   2043     1   108.0100461 406.684800
   2041   2038   2042     1   109.7500473 328.025600
   2042   2038   2043     1   108.0100461 406.684800
   2044   2043   2045     1   108.3000464 339.740800
   2044   2043   2046     1   108.3000464 339.740800
   2045   2043   2046     1   108.3000464 339.740800
   2047   2049   2051     1   108.8800464 416.726400
   2047   2049   2052     1   108.8800464 416.726400
   2048   2047   2049     1   117.6800502 383.254400
   2049   2050   2053     1   110.5600475 386.601600
   2049   2050   2054     1   110.5600475 386.601600
   2050   2055   2056     1   110.1100470 384.091200
   2050   2055   2057     1   110.1100470 384.091200
   2050   2055   2058     1   110.1100470 384.091200
   2050   2049   2051     1   109.5600471 388.275200
   2050   2049   2052     1   109.5600471 388.275200
   2051   2049   2052     1   108.4600466 328.025600
   2053   2050   2055     1   108.0100461 406.684800
   2053   2050   2054     1   109.7500473 328.025600
   2054   2050   2055     1   108.0100461 406.684800
   2056   2055   2057     1   108.3000464 339.740800
   2056   2055   2058     1   108.3000464 339.740800
   2057   2055   2058     1   108.3000464 339.740800
   2059   2061   2063     1   108.8800464 416.726400
   2059   2061   2064     1   108.8800464 416.726400
   2060   2059   2061     1   117.6800502 383.254400
   2061   2062   2065     1   110.5600475 386.601600
   2061   2062   2066     1   110.5600475 386.601600
   2062   2061   2063     1   109.5600471 388.275200
   2062   2061   2064     1   109.5600471 388.275200
   2062   2067   2068     1   110.1100470 384.091200
   2062   2067   2069     1   110.1100470 384.091200
   2062   2067   2070     1   110.1100470 384.091200
   2063   2061   2064     1   108.4600466 328.025600
   2065   2062   2067     1   108.0100461 406.684800
   2065   2062   2066     1   109.7500473 328.025600
   2066   2062   2067     1   108.0100461 406.684800
   2068   2067   2069     1   108.3000464 339.740800
   2068   2067   2070     1   108.3000464 339.740800
   2069   2067   2070     1   108.3000464 339.740800
   2071   2073   2075     1   108.8800464 416.726400
   2071   2073   2076     1   108.8800464 416.726400
   2072   2071   2073     1   117.6800502 383.254400
   2073   2074   2077     1   110.5600475 386.601600
   2073   2074   2078     1   110.5600475 386.601600
   2074   2079   2080     1   110.1100470 384.091200
   2074   2079   2081     1   110.1100470 384.091200
   2074   2079   2082     1   110.1100470 384.091200
   2074   2073   2075     1   109.5600471 388.275200
   2074   2073   2076     1   109.5600471 388.275200
   2075   2073   2076     1   108.4600466 328.025600
   2077   2074   2079     1   108.0100461 406.684800
   2077   2074   2078     1   109.7500473 328.025600
   2078   2074   2079     1   108.0100461 406.684800
   2080   2079   2081     1   108.3000464 339.740800
   2080   2079   2082     1   108.3000464 339.740800
   2081   2079   2082     1   108.3000464 339.740800
   2083   2085   2087     1   108.8800464 416.726400
   2083   2085   2088     1   108.8800464 416.726400
   2084   2083   2085     1   117.6800502 383.254400
   2085   2086   2089     1   110.5600475 386.601600
   2085   2086   2090     1   110.5600475 386.601600
   2086   2085   2087     1   109.5600471 388.275200
   2086   2085   2088     1   109.5600471 388.275200
   2086   2091   2092     1   110.1100470 384.091200
   2086   2091   2093     1   110.1100470 384.091200
   2086   2091   2094     1   110.1100470 384.091200
   2087   2085   2088     1   108.4600466 328.025600
   2089   2086   2091     1   108.0100461 406.684800
   2089   2086   2090     1   109.7500473 328.025600
   2090   2086   2091     1   108.0100461 406.684800
   2092   2091   2093     1   108.3000464 339.740800
   2092   2091   2094     1   108.3000464 339.740800
   2093   2091   2094     1   108.3000464 339.740800
   2095   2097   2099     1   108.8800464 416.726400
   2095   2097   2100     1   108.8800464 416.726400
   2096   2095   2097     1   117.6800502 383.254400
   2097   2098   2101     1   110.5600475 386.601600
   2097   2098   2102     1   110.5600475 386.601600
   2098   2103   2104     1   110.1100470 384.091200
   2098   2103   2105     1   110.1100470 384.091200
   2098   2103   2106     1   110.1100470 384.091200
   2098   2097   2099     1   109.5600471 388.275200
   2098   2097   2100     1   109.5600471 388.275200
   2099   2097   2100     1   108.4600466 328.025600
   2101   2098   2103     1   108.0100461 406.684800
   2101   2098   2102     1   109.7500473 328.025600
   2102   2098   2103     1   108.0100461 406.684800
   2104   2103   2105     1   108.3000464 339.740800
   2104   2103   2106     1   108.3000464 339.740800
   2105   2103   2106     1   108.3000464 339.740800
   2107   2109   2111     1   108.8800464 416.726400
   2107   2109   2112     1   108.8800464 416.726400
   2108   2107   2109     1   117.6800502 383.254400
   2109   2110   2113     1   110.5600475 386.601600
   2109   2110   2114     1   110.5600475 386.601600
   2110   2109   2111     1   109.5600471 388.275200
   2110   2109   2112     1   109.5600471 388.275200
   2110   2115   2116     1   110.1100470 384.091200
   2110   2115   2117     1   110.1100470 384.091200
   2110   2115   2118     1   110.1100470 384.091200
   2111   2109   2112     1   108.4600466 328.025600
   2113   2110   2115     1   108.0100461 406.684800
   2113   2110   2114     1   109.7500473 328.025600
   2114   2110   2115     1   108.0100461 406.684800
   2116   2115   2117     1   108.3000464 339.740800
   2116   2115   2118     1   108.3000464 339.740800
   2117   2115   2118     1   108.3000464 339.740800
   2119   2121   2123     1   108.8800464 416.726400
   2119   2121   2124     1   108.8800464 416.726400
   2120   2119   2121     1   117.6800502 383.254400
   2121   2122   2125     1   110.5600475 386.601600
   2121   2122   2126     1   110.5600475 386.601600
   2122   2127   2128     1   110.1100470 384.091200
   2122   2127   2129     1   110.1100470 384.091200
   2122   2127   2130     1   110.1100470 384.091200
   2122   2121   2123     1   109.5600471 388.275200
   2122   2121   2124     1   109.5600471 388.275200
   2123   2121   2124     1   108.4600466 328.025600
   2125   2122   2127     1   108.0100461 406.684800
   2125   2122   2126     1   109.7500473 328.025600
   2126   2122   2127     1   108.0100461 406.684800
   2128   2127   2129     1   108.3000464 339.740800
   2128   2127   2130     1   108.3000464 339.740800
   2129   2127   2130     1   108.3000464 339.740800
   2131   2133   2135     1   108.8800464 416.726400
   2131   2133   2136     1   108.8800464 416.726400
   2132   2131   2133     1   117.6800502 383.254400
   2133   2134   2137     1   110.5600475 386.601600
   2133   2134   2138     1   110.5600475 386.601600
   2134   2133   2135     1   109.5600471 388.275200
   2134   2133   2136     1   109.5600471 388.275200
   2134   2139   2140     1   110.1100470 384.091200
   2134   2139   2141     1   110.1100470 384.091200
   2134   2139   2142     1   110.1100470 384.091200
   2135   2133   2136     1   108.4600466 328.025600
   2137   2134   2139     1   108.0100461 406.684800
   2137   2134   2138     1   109.7500473 328.025600
   2138   2134   2139     1   108.0100461 406.684800
   2140   2139   2141     1   108.3000464 339.740800
   2140   2139   2142     1   108.3000464 339.740800
   2141   2139   2142     1   108.3000464 339.740800
   2143   2145   2147     1   108.8800464 416.726400
   2143   2145   2148     1   108.8800464 416.726400
   2144   2143   2145     1   117.6800502 383.254400
   2145   2146   2149     1   110.5600475 386.601600
   2145   2146   2150     1   110.5600475 386.601600
   2146   2151   2152     1   110.1100470 384.091200
   2146   2151   2153     1   110.1100470 384.091200
   2146   2151   2154     1   110.1100470 384.091200
   2146   2145   2147     1   109.5600471 388.275200
   2146   2145   2148     1   109.5600471 388.275200
   2147   2145   2148     1   108.4600466 328.025600
   2149   2146   2151     1   108.0100461 406.684800
   2149   2146   2150     1   109.7500473 328.025600
   2150   2146   2151     1   108.0100461 406.684800
   2152   2151   2153     1   108.3000464 339.740800
   2152   2151   2154     1   108.3000464 339.740800
   2153   2151   2154     1   108.3000464 339.740800
   2155   2157   2159     1   108.8800464 416.726400
   2155   2157   2160     1   108.8800464 416.726400
   2156   2155   2157     1   117.6800502 383.254400
   2157   2158   2161     1   110.5600475 386.601600
   2157   2158   2162     1   110.5600475 386.601600
   2158   2157   2159     1   109.5600471 388.275200
   2158   2157   2160     1   109.5600471 388.275200
   2158   2163   2164     1   110.1100470 384.091200
   2158   2163   2165     1   110.1100470 384.091200
   2158   2163   2166     1   110.1100470 384.091200
   2159   2157   2160     1   108.4600466 328.025600
   2161   2158   2163     1   108.0100461 406.684800
   2161   2158   2162     1   109.7500473 328.025600
   2162   2158   2163     1   108.0100461 406.684800
   2164   2163   2165     1   108.3000464 339.740800
   2164   2163   2166     1   108.3000464 339.740800
   2165   2163   2166     1   108.3000464 339.740800
   2167   2169   2171     1   108.8800464 416.726400
   2167   2169   2172     1   108.8800464 416.726400
   2168   2167   2169     1   117.6800502 383.254400
   2169   2170   2173     1   110.5600475 386.601600
   2169   2170   2174     1   110.5600475 386.601600
   2170   2175   2176     1   110.1100470 384.091200
   2170   2175   2177     1   110.1100470 384.091200
   2170   2175   2178     1   110.1100470 384.091200
   2170   2169   2171     1   109.5600471 388.275200
   2170   2169   2172     1   109.5600471 388.275200
   2171   2169   2172     1   108.4600466 328.025600
   2173   2170   2175     1   108.0100461 406.684800
   2173   2170   2174     1   109.7500473 328.025600
   2174   2170   2175     1   108.0100461 406.684800
   2176   2175   2177     1   108.3000464 339.740800
   2176   2175   2178     1   108.3000464 339.740800
   2177   2175   2178     1   108.3000464 339.740800
   2179   2181   2183     1   108.8800464 416.726400
   2179   2181   2184     1   108.8800464 416.726400
   2180   2179   2181     1   117.6800502 383.254400
   2181   2182   2185     1   110.5600475 386.601600
   2181   2182   2186     1   110.5600475 386.601600
   2182   2181   2183     1   109.5600471 388.275200
   2182   2181   2184     1   109.5600471 388.275200
   2182   2187   2188     1   110.1100470 384.091200
   2182   2187   2189     1   110.1100470 384.091200
   2182   2187   2190     1   110.1100470 384.091200
   2183   2181   2184     1   108.4600466 328.025600
   2185   2182   2187     1   108.0100461 406.684800
   2185   2182   2186     1   109.7500473 328.025600
   2186   2182   2187     1   108.0100461 406.684800
   2188   2187   2189     1   108.3000464 339.740800
   2188   2187   2190     1   108.3000464 339.740800
   2189   2187   2190     1   108.3000464 339.740800
   2191   2193   2195     1   108.8800464 416.726400
   2191   2193   2196     1   108.8800464 416.726400
   2192   2191   2193     1   117.6800502 383.254400
   2193   2194   2197     1   110.5600475 386.601600
   2193   2194   2198     1   110.5600475 386.601600
   2194   2199   2200     1   110.1100470 384.091200
   2194   2199   2201     1   110.1100470 384.091200
   2194   2199   2202     1   110.1100470 384.091200
   2194   2193   2195     1   109.5600471 388.275200
   2194   2193   2196     1   109.5600471 388.275200
   2195   2193   2196     1   108.4600466 328.025600
   2197   2194   2199     1   108.0100461 406.684800
   2197   2194   2198     1   109.7500473 328.025600
   2198   2194   2199     1   108.0100461 406.684800
   2200   2199   2201     1   108.3000464 339.740800
   2200   2199   2202     1   108.3000464 339.740800
   2201   2199   2202     1   108.3000464 339.740800
   2203   2205   2207     1   108.8800464 416.726400
   2203   2205   2208     1   108.8800464 416.726400
   2204   2203   2205     1   117.6800502 383.254400
   2205   2206   2209     1   110.5600475 386.601600
   2205   2206   2210     1   110.5600475 386.601600
   2206   2205   2207     1   109.5600471 388.275200
   2206   2205   2208     1   109.5600471 388.275200
   2206   2211   2212     1   110.1100470 384.091200
   2206   2211   2213     1   110.1100470 384.091200
   2206   2211   2214     1   110.1100470 384.091200
   2207   2205   2208     1   108.4600466 328.025600
   2209   2206   2211     1   108.0100461 406.684800
   2209   2206   2210     1   109.7500473 328.025600
   2210   2206   2211     1   108.0100461 406.684800
   2212   2211   2213     1   108.3000464 339.740800
   2212   2211   2214     1   108.3000464 339.740800
   2213   2211   2214     1   108.3000464 339.740800
   2215   2217   2219     1   108.8800464 416.726400
   2215   2217   2220     1   108.8800464 416.726400
   2216   2215   2217     1   117.6800502 383.254400
   2217   2218   2221     1   110.5600475 386.601600
   2217   2218   2222     1   110.5600475 386.601600
   2218   2223   2224     1   110.1100470 384.091200
   2218   2223   2225     1   110.1100470 384.091200
   2218   2223   2226     1   110.1100470 384.091200
   2218   2217   2219     1   109.5600471 388.275200
   2218   2217   2220     1   109.5600471 388.275200
   2219   2217   2220     1   108.4600466 328.025600
   2221   2218   2223     1   108.0100461 406.684800
   2221   2218   2222     1   109.7500473 328.025600
   2222   2218   2223     1   108.0100461 406.684800
   2224   2223   2225     1   108.3000464 339.740800
   2224   2223   2226     1   108.3000464 339.740800
   2225   2223   2226     1   108.3000464 339.740800
   2227   2229   2231     1   108.8800464 416.726400
   2227   2229   2232     1   108.8800464 416.726400
   2228   2227   2229     1   117.6800502 383.254400
   2229   2230   2233     1   110.5600475 386.601600
   2229   2230   2234     1   110.5600475 386.601600
   2230   2229   2231     1   109.5600471 388.275200
   2230   2229   2232     1   109.5600471 388.275200
   2230   2235   2236     1   110.1100470 384.091200
   2230   2235   2237     1   110.1100470 384.091200
   2230   2235   2238     1   110.1100470 384.091200
   2231   2229   2232     1   108.4600466 328.025600
   2233   2230   2235     1   108.0100461 406.684800
   2233   2230   2234     1   109.7500473 328.025600
   2234   2230   2235     1   108.0100461 406.684800
   2236   2235   2237     1   108.3000464 339.740800
   2236   2235   2238     1   108.3000464 339.740800
   2237   2235   2238     1   108.3000464 339.740800
   2239   2241   2243     1   108.8800464 416.726400
   2239   2241   2244     1   108.8800464 416.726400
   2240   2239   2241     1   117.6800502 383.254400
   2241   2242   2245     1   110.5600475 386.601600
   2241   2242   2246     1   110.5600475 386.601600
   2242   2247   2248     1   110.1100470 384.091200
   2242   2247   2249     1   110.1100470 384.091200
   2242   2247   2250     1   110.1100470 384.091200
   2242   2241   2243     1   109.5600471 388.275200
   2242   2241   2244     1   109.5600471 388.275200
   2243   2241   2244     1   108.4600466 328.025600
   2245   2242   2247     1   108.0100461 406.684800
   2245   2242   2246     1   109.7500473 328.025600
   2246   2242   2247     1   108.0100461 406.684800
   2248   2247   2249     1   108.3000464 339.740800
   2248   2247   2250     1   108.3000464 339.740800
   2249   2247   2250     1   108.3000464 339.740800
   2251   2253   2255     1   108.8800464 416.726400
   2251   2253   2256     1   108.8800464 416.726400
   2252   2251   2253     1   117.6800502 383.254400
   2253   2254   2257     1   110.5600475 386.601600
   2253   2254   2258     1   110.5600475 386.601600
   2254   2253   2255     1   109.5600471 388.275200
   2254   2253   2256     1   109.5600471 388.275200
   2254   2259   2260     1   110.1100470 384.091200
   2254   2259   2261     1   110.1100470 384.091200
   2254   2259   2262     1   110.1100470 384.091200
   2255   2253   2256     1   108.4600466 328.025600
   2257   2254   2259     1   108.0100461 406.684800
   2257   2254   2258     1   109.7500473 328.025600
   2258   2254   2259     1   108.0100461 406.684800
   2260   2259   2261     1   108.3000464 339.740800
   2260   2259   2262     1   108.3000464 339.740800
   2261   2259   2262     1   108.3000464 339.740800
   2263   2265   2267     1   108.8800464 416.726400
   2263   2265   2268     1   108.8800464 416.726400
   2264   2263   2265     1   117.6800502 383.254400
   2265   2266   2269     1   110.5600475 386.601600
   2265   2266   2270     1   110.5600475 386.601600
   2266   2271   2272     1   110.1100470 384.091200
   2266   2271   2273     1   110.1100470 384.091200
   2266   2271   2274     1   110.1100470 384.091200
   2266   2265   2267     1   109.5600471 388.275200
   2266   2265   2268     1   109.5600471 388.275200
   2267   2265   2268     1   108.4600466 328.025600
   2269   2266   2271     1   108.0100461 406.684800
   2269   2266   2270     1   109.7500473 328.025600
   2270   2266   2271     1   108.0100461 406.684800
   2272   2271   2273     1   108.3000464 339.740800
   2272   2271   2274     1   108.3000464 339.740800
   2273   2271   2274     1   108.3000464 339.740800
   2275   2277   2279     1   108.8800464 416.726400
   2275   2277   2280     1   108.8800464 416.726400
   2276   2275   2277     1   117.6800502 383.254400
   2277   2278   2281     1   110.5600475 386.601600
   2277   2278   2282     1   110.5600475 386.601600
   2278   2277   2279     1   109.5600471 388.275200
   2278   2277   2280     1   109.5600471 388.275200
   2278   2283   2284     1   110.1100470 384.091200
   2278   2283   2285     1   110.1100470 384.091200
   2278   2283   2286     1   110.1100470 384.091200
   2279   2277   2280     1   108.4600466 328.025600
   2281   2278   2283     1   108.0100461 406.684800
   2281   2278   2282     1   109.7500473 328.025600
   2282   2278   2283     1   108.0100461 406.684800
   2284   2283   2285     1   108.3000464 339.740800
   2284   2283   2286     1   108.3000464 339.740800
   2285   2283   2286     1   108.3000464 339.740800
   2287   2289   2291     1   108.8800464 416.726400
   2287   2289   2292     1   108.8800464 416.726400
   2288   2287   2289     1   117.6800502 383.254400
   2289   2290   2293     1   110.5600475 386.601600
   2289   2290   2294     1   110.5600475 386.601600
   2290   2295   2296     1   110.1100470 384.091200
   2290   2295   2297     1   110.1100470 384.091200
   2290   2295   2298     1   110.1100470 384.091200
   2290   2289   2291     1   109.5600471 388.275200
   2290   2289   2292     1   109.5600471 388.275200
   2291   2289   2292     1   108.4600466 328.025600
   2293   2290   2295     1   108.0100461 406.684800
   2293   2290   2294     1   109.7500473 328.025600
   2294   2290   2295     1   108.0100461 406.684800
   2296   2295   2297     1   108.3000464 339.740800
   2296   2295   2298     1   108.3000464 339.740800
   2297   2295   2298     1   108.3000464 339.740800
   2299   2301   2303     1   108.8800464 416.726400
   2299   2301   2304     1   108.8800464 416.726400
   2300   2299   2301     1   117.6800502 383.254400
   2301   2302   2305     1   110.5600475 386.601600
   2301   2302   2306     1   110.5600475 386.601600
   2302   2301   2303     1   109.5600471 388.275200
   2302   2301   2304     1   109.5600471 388.275200
   2302   2307   2308     1   110.1100470 384.091200
   2302   2307   2309     1   110.1100470 384.091200
   2302   2307   2310     1   110.1100470 384.091200
   2303   2301   2304     1   108.4600466 328.025600
   2305   2302   2307     1   108.0100461 406.684800
   2305   2302   2306     1   109.7500473 328.025600
   2306   2302   2307     1   108.0100461 406.684800
   2308   2307   2309     1   108.3000464 339.740800
   2308   2307   2310     1   108.3000464 339.740800
   2309   2307   2310     1   108.3000464 339.740800
   2311   2313   2315     1   108.8800464 416.726400
   2311   2313   2316     1   108.8800464 416.726400
   2312   2311   2313     1   117.6800502 383.254400
   2313   2314   2317     1   110.5600475 386.601600
   2313   2314   2318     1   110.5600475 386.601600
   2314   2319   2320     1   110.1100470 384.091200
   2314   2319   2321     1   110.1100470 384.091200
   2314   2319   2322     1   110.1100470 384.091200
   2314   2313   2315     1   109.5600471 388.275200
   2314   2313   2316     1   109.5600471 388.275200
   2315   2313   2316     1   108.4600466 328.025600
   2317   2314   2319     1   108.0100461 406.684800
   2317   2314   2318     1   109.7500473 328.025600
   2318   2314   2319     1   108.0100461 406.684800
   2320   2319   2321     1   108.3000464 339.740800
   2320   2319   2322     1   108.3000464 339.740800
   2321   2319   2322     1   108.3000464 339.740800
   2323   2325   2327     1   108.8800464 416.726400
   2323   2325   2328     1   108.8800464 416.726400
   2324   2323   2325     1   117.6800502 383.254400
   2325   2326   2329     1   110.5600475 386.601600
   2325   2326   2330     1   110.5600475 386.601600
   2326   2325   2327     1   109.5600471 388.275200
   2326   2325   2328     1   109.5600471 388.275200
   2326   2331   2332     1   110.1100470 384.091200
   2326   2331   2333     1   110.1100470 384.091200
   2326   2331   2334     1   110.1100470 384.091200
   2327   2325   2328     1   108.4600466 328.025600
   2329   2326   2331     1   108.0100461 406.684800
   2329   2326   2330     1   109.7500473 328.025600
   2330   2326   2331     1   108.0100461 406.684800
   2332   2331   2333     1   108.3000464 339.740800
   2332   2331   2334     1   108.3000464 339.740800
   2333   2331   2334     1   108.3000464 339.740800
   2335   2337   2339     1   108.8800464 416.726400
   2335   2337   2340     1   108.8800464 416.726400
   2336   2335   2337     1   117.6800502 383.254400
   2337   2338   2341     1   110.5600475 386.601600
   2337   2338   2342     1   110.5600475 386.601600
   2338   2343   2344     1   110.1100470 384.091200
   2338   2343   2345     1   110.1100470 384.091200
   2338   2343   2346     1   110.1100470 384.091200
   2338   2337   2339     1   109.5600471 388.275200
   2338   2337   2340     1   109.5600471 388.275200
   2339   2337   2340     1   108.4600466 328.025600
   2341   2338   2343     1   108.0100461 406.684800
   2341   2338   2342     1   109.7500473 328.025600
   2342   2338   2343     1   108.0100461 406.684800
   2344   2343   2345     1   108.3000464 339.740800
   2344   2343   2346     1   108.3000464 339.740800
   2345   2343   2346     1   108.3000464 339.740800
   2347   2349   2351     1   108.8800464 416.726400
   2347   2349   2352     1   108.8800464 416.726400
   2348   2347   2349     1   117.6800502 383.254400
   2349   2350   2353     1   110.5600475 386.601600
   2349   2350   2354     1   110.5600475 386.601600
   2350   2349   2351     1   109.5600471 388.275200
   2350   2349   2352     1   109.5600471 388.275200
   2350   2355   2356     1   110.1100470 384.091200
   2350   2355   2357     1   110.1100470 384.091200
   2350   2355   2358     1   110.1100470 384.091200
   2351   2349   2352     1   108.4600466 328.025600
   2353   2350   2355     1   108.0100461 406.684800
   2353   2350   2354     1   109.7500473 328.025600
   2354   2350   2355     1   108.0100461 406.684800
   2356   2355   2357     1   108.3000464 339.740800
   2356   2355   2358     1   108.3000464 339.740800
   2357   2355   2358     1   108.3000464 339.740800
   2359   2361   2363     1   108.8800464 416.726400
   2359   2361   2364     1   108.8800464 416.726400
   2360   2359   2361     1   117.6800502 383.254400
   2361   2362   2365     1   110.5600475 386.601600
   2361   2362   2366     1   110.5600475 386.601600
   2362   2367   2368     1   110.1100470 384.091200
   2362   2367   2369     1   110.1100470 384.091200
   2362   2367   2370     1   110.1100470 384.091200
   2362   2361   2363     1   109.5600471 388.275200
   2362   2361   2364     1   109.5600471 388.275200
   2363   2361   2364     1   108.4600466 328.025600
   2365   2362   2367     1   108.0100461 406.684800
   2365   2362   2366     1   109.7500473 328.025600
   2366   2362   2367     1   108.0100461 406.684800
   2368   2367   2369     1   108.3000464 339.740800
   2368   2367   2370     1   108.3000464 339.740800
   2369   2367   2370     1   108.3000464 339.740800

[ dihedrals ]
;    ai     aj     ak     al funct         c0         c1         c2         c3         c4         c5
      1      2      3      4     1  0.0000000  0.6508444  3
      1      7     13     14     1  0.0000000  0.6508444  3
      1      8     15     16     1  0.0000000  0.6508444  3
      2      1      7     13     1  0.0000000  0.6508444  3
      2      1      8     15     1  0.0000000  0.6508444  3
      2      3      4      5     1  0.0000000  0.6508444  3
      2      3      4      6     1  0.0000000  0.6508444  3
      7      1      2      3     1  0.0000000  0.6508444  3
      8      1      2      3     1  0.0000000  0.6508444  3
      3      4      5     11     1  0.0000000  0.6508444  3
      3      4      6      9     1  0.0000000  0.6508444  3
      4      5     11     12     1  0.0000000  0.6508444  3
      4      6      9     10     1  0.0000000  0.6508444  3
      5      4      6      9     1  0.0000000  0.6508444  3
      5     11     12     17     1  180.0000771  0.0000000  2
      5     11     12     78     1  0.0000000  0.2928800  2
      5     11     12     78     1  0.0000000  0.4184000  4
      6      4      5     11     1  0.0000000  0.6508444  3
      6      9     10     18     1  180.0000771  0.0000000  2
      6      9     10     52     1  0.0000000  0.2928800  2
      6      9     10     52     1  0.0000000  0.4184000  4
      7      1      8     15     1  0.0000000  0.6508444  3
      7     13     14     20     1  180.0000771  0.0000000  2
      7     13     14    104     1  0.0000000  0.2928800  2
      7     13     14    104     1  0.0000000  0.4184000  4
      8      1      7     13     1  0.0000000  0.6508444  3
      8     15     16     19     1  180.0000771  0.0000000  2
      8     15     16    130     1  0.0000000  0.2928800  2
      8     15     16    130     1  0.0000000  0.4184000  4
      9     10     52     51     1  180.0000771  6.2760000  1
      9     10     52     51     1  0.0000000  0.0000000  2
     10     52     51     50     1  0.0000000  2.2175200  1
     10     52     51     50     1  0.0000000  0.0000000  2
     10     52     51     50     1  180.0000771  0.6276000  3
     10     52     51     50     1  180.0000771  2.0920000  4
     11     12     78     77     1  180.0000771  6.2760000  1
     11     12     78     77     1  0.0000000  0.0000000  2
     12     78     77     76     1  0.0000000  2.2175200  1
     12     78     77     76     1  0.0000000  0.0000000  2
     12     78     77     76     1  180.0000771  0.6276000  3
     12     78     77     76     1  180.0000771  2.0920000  4
     13     14    104    103     1  180.0000771  6.2760000  1
     13     14    104    103     1  0.0000000  0.0000000  2
     14    104    103    102     1  0.0000000  2.2175200  1
     14    104    103    102     1  0.0000000  0.0000000  2
     14    104    103    102     1  180.0000771  0.6276000  3
     14    104    103    102     1  180.0000771  2.0920000  4
     15     16    130    129     1  180.0000771  6.2760000  1
     15     16    130    129     1  0.0000000  0.0000000  2
     16    130    129    128     1  0.0000000  2.2175200  1
     16    130    129    128     1  0.0000000  0.0000000  2
     16    130    129    128     1  180.0000771  0.6276000  3
     16    130    129    128     1  180.0000771  2.0920000  4
     17     12     78     77     1  180.0000771  10.4600000  2
     18     10     52     51     1  180.0000771  10.4600000  2
     19     16    130    129     1  180.0000771  10.4600000  2
     20     14    104    103     1  180.0000771  10.4600000  2
     43     44     46     47     1  0.0000000  0.6508444  3
     43     45     48     49     1  0.0000000  0.6508444  3
     43     50     51     52     1  0.0000000  0.6508444  3
     44     43     45     48     1  0.0000000  0.6508444  3
     44     43     50     51     1  0.0000000  0.6508444  3
     44     46     47     53     1  180.0000771  0.0000000  2
     44     46     47    156     1  0.0000000  0.2928800  2
     44     46     47    156     1  0.0000000  0.4184000  4
     45     43     44     46     1  0.0000000  0.6508444  3
     45     43     50     51     1  0.0000000  0.6508444  3
     45     48     49     54     1  180.0000771  0.0000000  2
     45     48     49    182     1  0.0000000  0.2928800  2
     45     48     49    182     1  0.0000000  0.4184000  4
     46     44     43     50     1  0.0000000  0.6508444  3
     46     47    156    155     1  180.0000771  6.2760000  1
     46     47    156    155     1  0.0000000  0.0000000  2
     47    156    155    154     1  0.0000000  2.2175200  1
     47    156    155    154     1  0.0000000  0.0000000  2
     47    156    155    154     1  180.0000771  0.6276000  3
     47    156    155    154     1  180.0000771  2.0920000  4
     48     45     43     50     1  0.0000000  0.6508444  3
     48     49    182    181     1  180.0000771  6.2760000  1
     48     49    182    181     1  0.0000000  0.0000000  2
     49    182    181    180     1  0.0000000  2.2175200  1
     49    182    181    180     1  0.0000000  0.0000000  2
     49    182    181    180     1  180.0000771  0.6276000  3
     49    182    181    180     1  180.0000771  2.0920000  4
     53     47    156    155     1  180.0000771  10.4600000  2
     54     49    182    181     1  180.0000771  10.4600000  2
     69     70     72     73     1  0.0000000  0.6508444  3
     69     71     74     75     1  0.0000000  0.6508444  3
     69     76     77     78     1  0.0000000  0.6508444  3
     70     69     71     74     1  0.0000000  0.6508444  3
     70     69     76     77     1  0.0000000  0.6508444  3
     70     72     73     79     1  180.0000771  0.0000000  2
     70     72     73    208     1  0.0000000  0.2928800  2
     70     72     73    208     1  0.0000000  0.4184000  4
     71     69     70     72     1  0.0000000  0.6508444  3
     71     69     76     77     1  0.0000000  0.6508444  3
     71     74     75     80     1  180.0000771  0.0000000  2
     71     74     75    234     1  0.0000000  0.2928800  2
     71     74     75    234     1  0.0000000  0.4184000  4
     72     70     69     76     1  0.0000000  0.6508444  3
     72     73    208    207     1  180.0000771  6.2760000  1
     72     73    208    207     1  0.0000000  0.0000000  2
     73    208    207    206     1  0.0000000  2.2175200  1
     73    208    207    206     1  0.0000000  0.0000000  2
     73    208    207    206     1  180.0000771  0.6276000  3
     73    208    207    206     1  180.0000771  2.0920000  4
     74     71     69     76     1  0.0000000  0.6508444  3
     74     75    234    233     1  180.0000771  6.2760000  1
     74     75    234    233     1  0.0000000  0.0000000  2
     75    234    233    232     1  0.0000000  2.2175200  1
     75    234    233    232     1  0.0000000  0.0000000  2
     75    234    233    232     1  180.0000771  0.6276000  3
     75    234    233    232     1  180.0000771  2.0920000  4
     79     73    208    207     1  180.0000771  10.4600000  2
     80     75    234    233     1  180.0000771  10.4600000  2
     95     96     98     99     1  0.0000000  0.6508444  3
     95     97    100    101     1  0.0000000  0.6508444  3
     95    102    103    104     1  0.0000000  0.6508444  3
     96     95     97    100     1  0.0000000  0.6508444  3
     96     95    102    103     1  0.0000000  0.6508444  3
     96     98     99    105     1  180.0000771  0.0000000  2
     96     98     99    260     1  0.0000000  0.2928800  2
     96     98     99    260     1  0.0000000  0.4184000  4
     97     95     96     98     1  0.0000000  0.6508444  3
     97     95    102    103     1  0.0000000  0.6508444  3
     97    100    101    106     1  180.0000771  0.0000000  2
     97    100    101    286     1  0.0000000  0.2928800  2
     97    100    101    286     1  0.0000000  0.4184000  4
     98     96     95    102     1  0.0000000  0.6508444  3
     98     99    260    259     1  180.0000771  6.2760000  1
     98     99    260    259     1  0.0000000  0.0000000  2
     99    260    259    258     1  0.0000000  2.2175200  1
     99    260    259    258     1  0.0000000  0.0000000  2
     99    260    259    258     1  180.0000771  0.6276000  3
     99    260    259    258     1  180.0000771  2.0920000  4
    100     97     95    102     1  0.0000000  0.6508444  3
    100    101    286    285     1  180.0000771  6.2760000  1
    100    101    286    285     1  0.0000000  0.0000000  2
    101    286    285    284     1  0.0000000  2.2175200  1
    101    286    285    284     1  0.0000000  0.0000000  2
    101    286    285    284     1  180.0000771  0.6276000  3
    101    286    285    284     1  180.0000771  2.0920000  4
    105     99    260    259     1  180.0000771  10.4600000  2
    106    101    286    285     1  180.0000771  10.4600000  2
    121    122    124    125     1  0.0000000  0.6508444  3
    121    123    126    127     1  0.0000000  0.6508444  3
    121    128    129    130     1  0.0000000  0.6508444  3
    122    121    123    126     1  0.0000000  0.6508444  3
    122    121    128    129     1  0.0000000  0.6508444  3
    122    124    125    131     1  180.0000771  0.0000000  2
    122    124    125    312     1  0.0000000  0.2928800  2
    122    124    125    312     1  0.0000000  0.4184000  4
    123    121    122    124     1  0.0000000  0.6508444  3
    123    121    128    129     1  0.0000000  0.6508444  3
    123    126    127    132     1  180.0000771  0.0000000  2
    123    126    127    338     1  0.0000000  0.2928800  2
    123    126    127    338     1  0.0000000  0.4184000  4
    124    122    121    128     1  0.0000000  0.6508444  3
    124    125    312    311     1  180.0000771  6.2760000  1
    124    125    312    311     1  0.0000000  0.0000000  2
    125    312    311    310     1  0.0000000  2.2175200  1
    125    312    311    310     1  0.0000000  0.0000000  2
    125    312    311    310     1  180.0000771  0.6276000  3
    125    312    311    310     1  180.0000771  2.0920000  4
    126    123    121    128     1  0.0000000  0.6508444  3
    126    127    338    337     1  180.0000771  6.2760000  1
    126    127    338    337     1  0.0000000  0.0000000  2
    127    338    337    336     1  0.0000000  2.2175200  1
    127    338    337    336     1  0.0000000  0.0000000  2
    127    338    337    336     1  180.0000771  0.6276000  3
    127    338    337    336     1  180.0000771  2.0920000  4
    131    125    312    311     1  180.0000771  10.4600000  2
    132    127    338    337     1  180.0000771  10.4600000  2
    147    148    150    151     1  0.0000000  0.6508444  3
    147    149    152    153     1  0.0000000  0.6508444  3
    147    154    155    156     1  0.0000000  0.6508444  3
    148    147    149    152     1  0.0000000  0.6508444  3
    148    147    154    155     1  0.0000000  0.6508444  3
    148    150    151    157     1  180.0000771  0.0000000  2
    148    150    151    364     1  0.0000000  0.2928800  2
    148    150    151    364     1  0.0000000  0.4184000  4
    149    147    148    150     1  0.0000000  0.6508444  3
    149    147    154    155     1  0.0000000  0.6508444  3
    149    152    153    158     1  180.0000771  0.0000000  2
    149    152    153    390     1  0.0000000  0.2928800  2
    149    152    153    390     1  0.0000000  0.4184000  4
    150    148    147    154     1  0.0000000  0.6508444  3
    150    151    364    363     1  180.0000771  6.2760000  1
    150    151    364    363     1  0.0000000  0.0000000  2
    151    364    363    362     1  0.0000000  2.2175200  1
    151    364    363    362     1  0.0000000  0.0000000  2
    151    364    363    362     1  180.0000771  0.6276000  3
    151    364    363    362     1  180.0000771  2.0920000  4
    152    149    147    154     1  0.0000000  0.6508444  3
    152    153    390    389     1  180.0000771  6.2760000  1
    152    153    390    389     1  0.0000000  0.0000000  2
    153    390    389    388     1  0.0000000  2.2175200  1
    153    390    389    388     1  0.0000000  0.0000000  2
    153    390    389    388     1  180.0000771  0.6276000  3
    153    390    389    388     1  180.0000771  2.0920000  4
    157    151    364    363     1  180.0000771  10.4600000  2
    158    153    390    389     1  180.0000771  10.4600000  2
    173    174    176    177     1  0.0000000  0.6508444  3
    173    175    178    179     1  0.0000000  0.6508444  3
    173    180    181    182     1  0.0000000  0.6508444  3
    174    173    175    178     1  0.0000000  0.6508444  3
    174    173    180    181     1  0.0000000  0.6508444  3
    174    176    177    183     1  180.0000771  0.0000000  2
    174    176    177    416     1  0.0000000  0.2928800  2
    174    176    177    416     1  0.0000000  0.4184000  4
    175    173    174    176     1  0.0000000  0.6508444  3
    175    173    180    181     1  0.0000000  0.6508444  3
    175    178    179    184     1  180.0000771  0.0000000  2
    175    178    179    442     1  0.0000000  0.2928800  2
    175    178    179    442     1  0.0000000  0.4184000  4
    176    174    173    180     1  0.0000000  0.6508444  3
    176    177    416    415     1  180.0000771  6.2760000  1
    176    177    416    415     1  0.0000000  0.0000000  2
    177    416    415    414     1  0.0000000  2.2175200  1
    177    416    415    414     1  0.0000000  0.0000000  2
    177    416    415    414     1  180.0000771  0.6276000  3
    177    416    415    414     1  180.0000771  2.0920000  4
    178    175    173    180     1  0.0000000  0.6508444  3
    178    179    442    441     1  180.0000771  6.2760000  1
    178    179    442    441     1  0.0000000  0.0000000  2
    179    442    441    440     1  0.0000000  2.2175200  1
    179    442    441    440     1  0.0000000  0.0000000  2
    179    442    441    440     1  180.0000771  0.6276000  3
    179    442    441    440     1  180.0000771  2.0920000  4
    183    177    416    415     1  180.0000771  10.4600000  2
    184    179    442    441     1  180.0000771  10.4600000  2
    199    200    202    203     1  0.0000000  0.6508444  3
    199    201    204    205     1  0.0000000  0.6508444  3
    199    206    207    208     1  0.0000000  0.6508444  3
    200    199    201    204     1  0.0000000  0.6508444  3
    200    199    206    207     1  0.0000000  0.6508444  3
    200    202    203    209     1  180.0000771  0.0000000  2
    200    202    203    468     1  0.0000000  0.2928800  2
    200    202    203    468     1  0.0000000  0.4184000  4
    201    199    200    202     1  0.0000000  0.6508444  3
    201    199    206    207     1  0.0000000  0.6508444  3
    201    204    205    210     1  180.0000771  0.0000000  2
    201    204    205    494     1  0.0000000  0.2928800  2
    201    204    205    494     1  0.0000000  0.4184000  4
    202    200    199    206     1  0.0000000  0.6508444  3
    202    203    468    467     1  180.0000771  6.2760000  1
    202    203    468    467     1  0.0000000  0.0000000  2
    203    468    467    466     1  0.0000000  2.2175200  1
    203    468    467    466     1  0.0000000  0.0000000  2
    203    468    467    466     1  180.0000771  0.6276000  3
    203    468    467    466     1  180.0000771  2.0920000  4
    204    201    199    206     1  0.0000000  0.6508444  3
    204    205    494    493     1  180.0000771  6.2760000  1
    204    205    494    493     1  0.0000000  0.0000000  2
    205    494    493    492     1  0.0000000  2.2175200  1
    205    494    493    492     1  0.0000000  0.0000000  2
    205    494    493    492     1  180.0000771  0.6276000  3
    205    494    493    492     1  180.0000771  2.0920000  4
    209    203    468    467     1  180.0000771  10.4600000  2
    210    205    494    493     1  180.0000771  10.4600000  2
    225    226    228    229     1  0.0000000  0.6508444  3
    225    227    230    231     1  0.0000000  0.6508444  3
    225    232    233    234     1  0.0000000  0.6508444  3
    226    225    227    230     1  0.0000000  0.6508444  3
    226    225    232    233     1  0.0000000  0.6508444  3
    226    228    229    235     1  180.0000771  0.0000000  2
    226    228    229    520     1  0.0000000  0.2928800  2
    226    228    229    520     1  0.0000000  0.4184000  4
    227    225    226    228     1  0.0000000  0.6508444  3
    227    225    232    233     1  0.0000000  0.6508444  3
    227    230    231    236     1  180.0000771  0.0000000  2
    227    230    231    546     1  0.0000000  0.2928800  2
    227    230    231    546     1  0.0000000  0.4184000  4
    228    226    225    232     1  0.0000000  0.6508444  3
    228    229    520    519     1  180.0000771  6.2760000  1
    228    229    520    519     1  0.0000000  0.0000000  2
    229    520    519    518     1  0.0000000  2.2175200  1
    229    520    519    518     1  0.0000000  0.0000000  2
    229    520    519    518     1  180.0000771  0.6276000  3
    229    520    519    518     1  180.0000771  2.0920000  4
    230    227    225    232     1  0.0000000  0.6508444  3
    230    231    546    545     1  180.0000771  6.2760000  1
    230    231    546    545     1  0.0000000  0.0000000  2
    231    546    545    544     1  0.0000000  2.2175200  1
    231    546    545    544     1  0.0000000  0.0000000  2
    231    546    545    544     1  180.0000771  0.6276000  3
    231    546    545    544     1  180.0000771  2.0920000  4
    235    229    520    519     1  180.0000771  10.4600000  2
    236    231    546    545     1  180.0000771  10.4600000  2
    251    252    254    255     1  0.0000000  0.6508444  3
    251    253    256    257     1  0.0000000  0.6508444  3
    251    258    259    260     1  0.0000000  0.6508444  3
    252    251    253    256     1  0.0000000  0.6508444  3
    252    251    258    259     1  0.0000000  0.6508444  3
    252    254    255    261     1  180.0000771  0.0000000  2
    252    254    255    572     1  0.0000000  0.2928800  2
    252    254    255    572     1  0.0000000  0.4184000  4
    253    251    252    254     1  0.0000000  0.6508444  3
    253    251    258    259     1  0.0000000  0.6508444  3
    253    256    257    262     1  180.0000771  0.0000000  2
    253    256    257    598     1  0.0000000  0.2928800  2
    253    256    257    598     1  0.0000000  0.4184000  4
    254    252    251    258     1  0.0000000  0.6508444  3
    254    255    572    571     1  180.0000771  6.2760000  1
    254    255    572    571     1  0.0000000  0.0000000  2
    255    572    571    570     1  0.0000000  2.2175200  1
    255    572    571    570     1  0.0000000  0.0000000  2
    255    572    571    570     1  180.0000771  0.6276000  3
    255    572    571    570     1  180.0000771  2.0920000  4
    256    253    251    258     1  0.0000000  0.6508444  3
    256    257    598    597     1  180.0000771  6.2760000  1
    256    257    598    597     1  0.0000000  0.0000000  2
    257    598    597    596     1  0.0000000  2.2175200  1
    257    598    597    596     1  0.0000000  0.0000000  2
    257    598    597    596     1  180.0000771  0.6276000  3
    257    598    597    596     1  180.0000771  2.0920000  4
    261    255    572    571     1  180.0000771  10.4600000  2
    262    257    598    597     1  180.0000771  10.4600000  2
    277    278    280    281     1  0.0000000  0.6508444  3
    277    279    282    283     1  0.0000000  0.6508444  3
    277    284    285    286     1  0.0000000  0.6508444  3
    278    277    279    282     1  0.0000000  0.6508444  3
    278    277    284    285     1  0.0000000  0.6508444  3
    278    280    281    287     1  180.0000771  0.0000000  2
    278    280    281    624     1  0.0000000  0.2928800  2
    278    280    281    624     1  0.0000000  0.4184000  4
    279    277    278    280     1  0.0000000  0.6508444  3
    279    277    284    285     1  0.0000000  0.6508444  3
    279    282    283    288     1  180.0000771  0.0000000  2
    279    282    283    650     1  0.0000000  0.2928800  2
    279    282    283    650     1  0.0000000  0.4184000  4
    280    278    277    284     1  0.0000000  0.6508444  3
    280    281    624    623     1  180.0000771  6.2760000  1
    280    281    624    623     1  0.0000000  0.0000000  2
    281    624    623    622     1  0.0000000  2.2175200  1
    281    624    623    622     1  0.0000000  0.0000000  2
    281    624    623    622     1  180.0000771  0.6276000  3
    281    624    623    622     1  180.0000771  2.0920000  4
    282    279    277    284     1  0.0000000  0.6508444  3
    282    283    650    649     1  180.0000771  6.2760000  1
    282    283    650    649     1  0.0000000  0.0000000  2
    283    650    649    648     1  0.0000000  2.2175200  1
    283    650    649    648     1  0.0000000  0.0000000  2
    283    650    649    648     1  180.0000771  0.6276000  3
    283    650    649    648     1  180.0000771  2.0920000  4
    287    281    624    623     1  180.0000771  10.4600000  2
    288    283    650    649     1  180.0000771  10.4600000  2
    303    304    306    307     1  0.0000000  0.6508444  3
    303    305    308    309     1  0.0000000  0.6508444  3
    303    310    311    312     1  0.0000000  0.6508444  3
    304    303    305    308     1  0.0000000  0.6508444  3
    304    303    310    311     1  0.0000000  0.6508444  3
    304    306    307    313     1  180.0000771  0.0000000  2
    304    306    307    676     1  0.0000000  0.2928800  2
    304    306    307    676     1  0.0000000  0.4184000  4
    305    303    304    306     1  0.0000000  0.6508444  3
    305    303    310    311     1  0.0000000  0.6508444  3
    305    308    309    314     1  180.0000771  0.0000000  2
    305    308    309    702     1  0.0000000  0.2928800  2
    305    308    309    702     1  0.0000000  0.4184000  4
    306    304    303    310     1  0.0000000  0.6508444  3
    306    307    676    675     1  180.0000771  6.2760000  1
    306    307    676    675     1  0.0000000  0.0000000  2
    307    676    675    674     1  0.0000000  2.2175200  1
    307    676    675    674     1  0.0000000  0.0000000  2
    307    676    675    674     1  180.0000771  0.6276000  3
    307    676    675    674     1  180.0000771  2.0920000  4
    308    305    303    310     1  0.0000000  0.6508444  3
    308    309    702    701     1  180.0000771  6.2760000  1
    308    309    702    701     1  0.0000000  0.0000000  2
    309    702    701    700     1  0.0000000  2.2175200  1
    309    702    701    700     1  0.0000000  0.0000000  2
    309    702    701    700     1  180.0000771  0.6276000  3
    309    702    701    700     1  180.0000771  2.0920000  4
    313    307    676    675     1  180.0000771  10.4600000  2
    314    309    702    701     1  180.0000771  10.4600000  2
    329    330    332    333     1  0.0000000  0.6508444  3
    329    331    334    335     1  0.0000000  0.6508444  3
    329    336    337    338     1  0.0000000  0.6508444  3
    330    329    331    334     1  0.0000000  0.6508444  3
    330    329    336    337     1  0.0000000  0.6508444  3
    330    332    333    339     1  180.0000771  0.0000000  2
    330    332    333    728     1  0.0000000  0.2928800  2
    330    332    333    728     1  0.0000000  0.4184000  4
    331    329    330    332     1  0.0000000  0.6508444  3
    331    329    336    337     1  0.0000000  0.6508444  3
    331    334    335    340     1  180.0000771  0.0000000  2
    331    334    335    754     1  0.0000000  0.2928800  2
    331    334    335    754     1  0.0000000  0.4184000  4
    332    330    329    336     1  0.0000000  0.6508444  3
    332    333    728    727     1  180.0000771  6.2760000  1
    332    333    728    727     1  0.0000000  0.0000000  2
    333    728    727    726     1  0.0000000  2.2175200  1
    333    728    727    726     1  0.0000000  0.0000000  2
    333    728    727    726     1  180.0000771  0.6276000  3
    333    728    727    726     1  180.0000771  2.0920000  4
    334    331    329    336     1  0.0000000  0.6508444  3
    334    335    754    753     1  180.0000771  6.2760000  1
    334    335    754    753     1  0.0000000  0.0000000  2
    335    754    753    752     1  0.0000000  2.2175200  1
    335    754    753    752     1  0.0000000  0.0000000  2
    335    754    753    752     1  180.0000771  0.6276000  3
    335    754    753    752     1  180.0000771  2.0920000  4
    339    333    728    727     1  180.0000771  10.4600000  2
    340    335    754    753     1  180.0000771  10.4600000  2
    355    356    358    359     1  0.0000000  0.6508444  3
    355    357    360    361     1  0.0000000  0.6508444  3
    355    362    363    364     1  0.0000000  0.6508444  3
    356    355    357    360     1  0.0000000  0.6508444  3
    356    355    362    363     1  0.0000000  0.6508444  3
    356    358    359    365     1  180.0000771  0.0000000  2
    356    358    359    780     1  0.0000000  0.2928800  2
    356    358    359    780     1  0.0000000  0.4184000  4
    357    355    356    358     1  0.0000000  0.6508444  3
    357    355    362    363     1  0.0000000  0.6508444  3
    357    360    361    366     1  180.0000771  0.0000000  2
    357    360    361    806     1  0.0000000  0.2928800  2
    357    360    361    806     1  0.0000000  0.4184000  4
    358    356    355    362     1  0.0000000  0.6508444  3
    358    359    780    779     1  180.0000771  6.2760000  1
    358    359    780    779     1  0.0000000  0.0000000  2
    359    780    779    778     1  0.0000000  2.2175200  1
    359    780    779    778     1  0.0000000  0.0000000  2
    359    780    779    778     1  180.0000771  0.6276000  3
    359    780    779    778     1  180.0000771  2.0920000  4
    360    357    355    362     1  0.0000000  0.6508444  3
    360    361    806    805     1  180.0000771  6.2760000  1
    360    361    806    805     1  0.0000000  0.0000000  2
    361    806    805    804     1  0.0000000  2.2175200  1
    361    806    805    804     1  0.0000000  0.0000000  2
    361    806    805    804     1  180.0000771  0.6276000  3
    361    806    805    804     1  180.0000771  2.0920000  4
    365    359    780    779     1  180.0000771  10.4600000  2
    366    361    806    805     1  180.0000771  10.4600000  2
    381    382    384    385     1  0.0000000  0.6508444  3
    381    383    386    387     1  0.0000000  0.6508444  3
    381    388    389    390     1  0.0000000  0.6508444  3
    382    381    383    386     1  0.0000000  0.6508444  3
    382    381    388    389     1  0.0000000  0.6508444  3
    382    384    385    391     1  180.0000771  0.0000000  2
    382    384    385    832     1  0.0000000  0.2928800  2
    382    384    385    832     1  0.0000000  0.4184000  4
    383    381    382    384     1  0.0000000  0.6508444  3
    383    381    388    389     1  0.0000000  0.6508444  3
    383    386    387    392     1  180.0000771  0.0000000  2
    383    386    387    858     1  0.0000000  0.2928800  2
    383    386    387    858     1  0.0000000  0.4184000  4
    384    382    381    388     1  0.0000000  0.6508444  3
    384    385    832    831     1  180.0000771  6.2760000  1
    384    385    832    831     1  0.0000000  0.0000000  2
    385    832    831    830     1  0.0000000  2.2175200  1
    385    832    831    830     1  0.0000000  0.0000000  2
    385    832    831    830     1  180.0000771  0.6276000  3
    385    832    831    830     1  180.0000771  2.0920000  4
    386    383    381    388     1  0.0000000  0.6508444  3
    386    387    858    857     1  180.0000771  6.2760000  1
    386    387    858    857     1  0.0000000  0.0000000  2
    387    858    857    856     1  0.0000000  2.2175200  1
    387    858    857    856     1  0.0000000  0.0000000  2
    387    858    857    856     1  180.0000771  0.6276000  3
    387    858    857    856     1  180.0000771  2.0920000  4
    391    385    832    831     1  180.0000771  10.4600000  2
    392    387    858    857     1  180.0000771  10.4600000  2
    407    408    410    411     1  0.0000000  0.6508444  3
    407    409    412    413     1  0.0000000  0.6508444  3
    407    414    415    416     1  0.0000000  0.6508444  3
    408    407    409    412     1  0.0000000  0.6508444  3
    408    407    414    415     1  0.0000000  0.6508444  3
    408    410    411    417     1  180.0000771  0.0000000  2
    408    410    411    884     1  0.0000000  0.2928800  2
    408    410    411    884     1  0.0000000  0.4184000  4
    409    407    408    410     1  0.0000000  0.6508444  3
    409    407    414    415     1  0.0000000  0.6508444  3
    409    412    413    418     1  180.0000771  0.0000000  2
    409    412    413    910     1  0.0000000  0.2928800  2
    409    412    413    910     1  0.0000000  0.4184000  4
    410    408    407    414     1  0.0000000  0.6508444  3
    410    411    884    883     1  180.0000771  6.2760000  1
    410    411    884    883     1  0.0000000  0.0000000  2
    411    884    883    882     1  0.0000000  2.2175200  1
    411    884    883    882     1  0.0000000  0.0000000  2
    411    884    883    882     1  180.0000771  0.6276000  3
    411    884    883    882     1  180.0000771  2.0920000  4
    412    409    407    414     1  0.0000000  0.6508444  3
    412    413    910    909     1  180.0000771  6.2760000  1
    412    413    910    909     1  0.0000000  0.0000000  2
    413    910    909    908     1  0.0000000  2.2175200  1
    413    910    909    908     1  0.0000000  0.0000000  2
    413    910    909    908     1  180.0000771  0.6276000  3
    413    910    909    908     1  180.0000771  2.0920000  4
    417    411    884    883     1  180.0000771  10.4600000  2
    418    413    910    909     1  180.0000771  10.4600000  2
    433    434    436    437     1  0.0000000  0.6508444  3
    433    435    438    439     1  0.0000000  0.6508444  3
    433    440    441    442     1  0.0000000  0.6508444  3
    434    433    435    438     1  0.0000000  0.6508444  3
    434    433    440    441     1  0.0000000  0.6508444  3
    434    436    437    443     1  180.0000771  0.0000000  2
    434    436    437    936     1  0.0000000  0.2928800  2
    434    436    437    936     1  0.0000000  0.4184000  4
    435    433    434    436     1  0.0000000  0.6508444  3
    435    433    440    441     1  0.0000000  0.6508444  3
    435    438    439    444     1  180.0000771  0.0000000  2
    435    438    439    962     1  0.0000000  0.2928800  2
    435    438    439    962     1  0.0000000  0.4184000  4
    436    434    433    440     1  0.0000000  0.6508444  3
    436    437    936    935     1  180.0000771  6.2760000  1
    436    437    936    935     1  0.0000000  0.0000000  2
    437    936    935    934     1  0.0000000  2.2175200  1
    437    936    935    934     1  0.0000000  0.0000000  2
    437    936    935    934     1  180.0000771  0.6276000  3
    437    936    935    934     1  180.0000771  2.0920000  4
    438    435    433    440     1  0.0000000  0.6508444  3
    438    439    962    961     1  180.0000771  6.2760000  1
    438    439    962    961     1  0.0000000  0.0000000  2
    439    962    961    960     1  0.0000000  2.2175200  1
    439    962    961    960     1  0.0000000  0.0000000  2
    439    962    961    960     1  180.0000771  0.6276000  3
    439    962    961    960     1  180.0000771  2.0920000  4
    443    437    936    935     1  180.0000771  10.4600000  2
    444    439    962    961     1  180.0000771  10.4600000  2
    459    460    462    463     1  0.0000000  0.6508444  3
    459    461    464    465     1  0.0000000  0.6508444  3
    459    466    467    468     1  0.0000000  0.6508444  3
    460    459    461    464     1  0.0000000  0.6508444  3
    460    459    466    467     1  0.0000000  0.6508444  3
    460    462    463    469     1  180.0000771  0.0000000  2
    460    462    463    988     1  0.0000000  0.2928800  2
    460    462    463    988     1  0.0000000  0.4184000  4
    461    459    460    462     1  0.0000000  0.6508444  3
    461    459    466    467     1  0.0000000  0.6508444  3
    461    464    465    470     1  180.0000771  0.0000000  2
    461    464    465   1014     1  0.0000000  0.2928800  2
    461    464    465   1014     1  0.0000000  0.4184000  4
    462    460    459    466     1  0.0000000  0.6508444  3
    462    463    988    987     1  180.0000771  6.2760000  1
    462    463    988    987     1  0.0000000  0.0000000  2
    463    988    987    986     1  0.0000000  2.2175200  1
    463    988    987    986     1  0.0000000  0.0000000  2
    463    988    987    986     1  180.0000771  0.6276000  3
    463    988    987    986     1  180.0000771  2.0920000  4
    464    461    459    466     1  0.0000000  0.6508444  3
    464    465   1014   1013     1  180.0000771  6.2760000  1
    464    465   1014   1013     1  0.0000000  0.0000000  2
    465   1014   1013   1012     1  0.0000000  2.2175200  1
    465   1014   1013   1012     1  0.0000000  0.0000000  2
    465   1014   1013   1012     1  180.0000771  0.6276000  3
    465   1014   1013   1012     1  180.0000771  2.0920000  4
    469    463    988    987     1  180.0000771  10.4600000  2
    470    465   1014   1013     1  180.0000771  10.4600000  2
    485    486    488    489     1  0.0000000  0.6508444  3
    485    487    490    491     1  0.0000000  0.6508444  3
    485    492    493    494     1  0.0000000  0.6508444  3
    486    485    487    490     1  0.0000000  0.6508444  3
    486    485    492    493     1  0.0000000  0.6508444  3
    486    488    489    495     1  180.0000771  0.0000000  2
    486    488    489   1040     1  0.0000000  0.2928800  2
    486    488    489   1040     1  0.0000000  0.4184000  4
    487    485    486    488     1  0.0000000  0.6508444  3
    487    485    492    493     1  0.0000000  0.6508444  3
    487    490    491    496     1  180.0000771  0.0000000  2
    487    490    491   1066     1  0.0000000  0.2928800  2
    487    490    491   1066     1  0.0000000  0.4184000  4
    488    486    485    492     1  0.0000000  0.6508444  3
    488    489   1040   1039     1  180.0000771  6.2760000  1
    488    489   1040   1039     1  0.0000000  0.0000000  2
    489   1040   1039   1038     1  0.0000000  2.2175200  1
    489   1040   1039   1038     1  0.0000000  0.0000000  2
    489   1040   1039   1038     1  180.0000771  0.6276000  3
    489   1040   1039   1038     1  180.0000771  2.0920000  4
    490    487    485    492     1  0.0000000  0.6508444  3
    490    491   1066   1065     1  180.0000771  6.2760000  1
    490    491   1066   1065     1  0.0000000  0.0000000  2
    491   1066   1065   1064     1  0.0000000  2.2175200  1
    491   1066   1065   1064     1  0.0000000  0.0000000  2
    491   1066   1065   1064     1  180.0000771  0.6276000  3
    491   1066   1065   1064     1  180.0000771  2.0920000  4
    495    489   1040   1039     1  180.0000771  10.4600000  2
    496    491   1066   1065     1  180.0000771  10.4600000  2
    511    512    514    515     1  0.0000000  0.6508444  3
    511    513    516    517     1  0.0000000  0.6508444  3
    511    518    519    520     1  0.0000000  0.6508444  3
    512    511    513    516     1  0.0000000  0.6508444  3
    512    511    518    519     1  0.0000000  0.6508444  3
    512    514    515    521     1  180.0000771  0.0000000  2
    512    514    515   1092     1  0.0000000  0.2928800  2
    512    514    515   1092     1  0.0000000  0.4184000  4
    513    511    512    514     1  0.0000000  0.6508444  3
    513    511    518    519     1  0.0000000  0.6508444  3
    513    516    517    522     1  180.0000771  0.0000000  2
    513    516    517   1118     1  0.0000000  0.2928800  2
    513    516    517   1118     1  0.0000000  0.4184000  4
    514    512    511    518     1  0.0000000  0.6508444  3
    514    515   1092   1091     1  180.0000771  6.2760000  1
    514    515   1092   1091     1  0.0000000  0.0000000  2
    515   1092   1091   1090     1  0.0000000  2.2175200  1
    515   1092   1091   1090     1  0.0000000  0.0000000  2
    515   1092   1091   1090     1  180.0000771  0.6276000  3
    515   1092   1091   1090     1  180.0000771  2.0920000  4
    516    513    511    518     1  0.0000000  0.6508444  3
    516    517   1118   1117     1  180.0000771  6.2760000  1
    516    517   1118   1117     1  0.0000000  0.0000000  2
    517   1118   1117   1116     1  0.0000000  2.2175200  1
    517   1118   1117   1116     1  0.0000000  0.0000000  2
    517   1118   1117   1116     1  180.0000771  0.6276000  3
    517   1118   1117   1116     1  180.0000771  2.0920000  4
    521    515   1092   1091     1  180.0000771  10.4600000  2
    522    517   1118   1117     1  180.0000771  10.4600000  2
    537    538    540    541     1  0.0000000  0.6508444  3
    537    539    542    543     1  0.0000000  0.6508444  3
    537    544    545    546     1  0.0000000  0.6508444  3
    538    537    539    542     1  0.0000000  0.6508444  3
    538    537    544    545     1  0.0000000  0.6508444  3
    538    540    541    547     1  180.0000771  0.0000000  2
    538    540    541   1144     1  0.0000000  0.2928800  2
    538    540    541   1144     1  0.0000000  0.4184000  4
    539    537    538    540     1  0.0000000  0.6508444  3
    539    537    544    545     1  0.0000000  0.6508444  3
    539    542    543    548     1  180.0000771  0.0000000  2
    539    542    543   1170     1  0.0000000  0.2928800  2
    539    542    543   1170     1  0.0000000  0.4184000  4
    540    538    537    544     1  0.0000000  0.6508444  3
    540    541   1144   1143     1  180.0000771  6.2760000  1
    540    541   1144   1143     1  0.0000000  0.0000000  2
    541   1144   1143   1142     1  0.0000000  2.2175200  1
    541   1144   1143   1142     1  0.0000000  0.0000000  2
    541   1144   1143   1142     1  180.0000771  0.6276000  3
    541   1144   1143   1142     1  180.0000771  2.0920000  4
    542    539    537    544     1  0.0000000  0.6508444  3
    542    543   1170   1169     1  180.0000771  6.2760000  1
    542    543   1170   1169     1  0.0000000  0.0000000  2
    543   1170   1169   1168     1  0.0000000  2.2175200  1
    543   1170   1169   1168     1  0.0000000  0.0000000  2
    543   1170   1169   1168     1  180.0000771  0.6276000  3
    543   1170   1169   1168     1  180.0000771  2.0920000  4
    547    541   1144   1143     1  180.0000771  10.4600000  2
    548    543   1170   1169     1  180.0000771  10.4600000  2
    563    564    566    567     1  0.0000000  0.6508444  3
    563    565    568    569     1  0.0000000  0.6508444  3
    563    570    571    572     1  0.0000000  0.6508444  3
    564    563    565    568     1  0.0000000  0.6508444  3
    564    563    570    571     1  0.0000000  0.6508444  3
    564    566    567    573     1  180.0000771  0.0000000  2
    564    566    567   1196     1  0.0000000  0.2928800  2
    564    566    567   1196     1  0.0000000  0.4184000  4
    565    563    564    566     1  0.0000000  0.6508444  3
    565    563    570    571     1  0.0000000  0.6508444  3
    565    568    569    574     1  180.0000771  0.0000000  2
    565    568    569   1222     1  0.0000000  0.2928800  2
    565    568    569   1222     1  0.0000000  0.4184000  4
    566    564    563    570     1  0.0000000  0.6508444  3
    566    567   1196   1195     1  180.0000771  6.2760000  1
    566    567   1196   1195     1  0.0000000  0.0000000  2
    567   1196   1195   1194     1  0.0000000  2.2175200  1
    567   1196   1195   1194     1  0.0000000  0.0000000  2
    567   1196   1195   1194     1  180.0000771  0.6276000  3
    567   1196   1195   1194     1  180.0000771  2.0920000  4
    568    565    563    570     1  0.0000000  0.6508444  3
    568    569   1222   1221     1  180.0000771  6.2760000  1
    568    569   1222   1221     1  0.0000000  0.0000000  2
    569   1222   1221   1220     1  0.0000000  2.2175200  1
    569   1222   1221   1220     1  0.0000000  0.0000000  2
    569   1222   1221   1220     1  180.0000771  0.6276000  3
    569   1222   1221   1220     1  180.0000771  2.0920000  4
    573    567   1196   1195     1  180.0000771  10.4600000  2
    574    569   1222   1221     1  180.0000771  10.4600000  2
    589    590    592    593     1  0.0000000  0.6508444  3
    589    591    594    595     1  0.0000000  0.6508444  3
    589    596    597    598     1  0.0000000  0.6508444  3
    590    589    591    594     1  0.0000000  0.6508444  3
    590    589    596    597     1  0.0000000  0.6508444  3
    590    592    593    599     1  180.0000771  0.0000000  2
    590    592    593   1248     1  0.0000000  0.2928800  2
    590    592    593   1248     1  0.0000000  0.4184000  4
    591    589    590    592     1  0.0000000  0.6508444  3
    591    589    596    597     1  0.0000000  0.6508444  3
    591    594    595    600     1  180.0000771  0.0000000  2
    591    594    595   1274     1  0.0000000  0.2928800  2
    591    594    595   1274     1  0.0000000  0.4184000  4
    592    590    589    596     1  0.0000000  0.6508444  3
    592    593   1248   1247     1  180.0000771  6.2760000  1
    592    593   1248   1247     1  0.0000000  0.0000000  2
    593   1248   1247   1246     1  0.0000000  2.2175200  1
    593   1248   1247   1246     1  0.0000000  0.0000000  2
    593   1248   1247   1246     1  180.0000771  0.6276000  3
    593   1248   1247   1246     1  180.0000771  2.0920000  4
    594    591    589    596     1  0.0000000  0.6508444  3
    594    595   1274   1273     1  180.0000771  6.2760000  1
    594    595   1274   1273     1  0.0000000  0.0000000  2
    595   1274   1273   1272     1  0.0000000  2.2175200  1
    595   1274   1273   1272     1  0.0000000  0.0000000  2
    595   1274   1273   1272     1  180.0000771  0.6276000  3
    595   1274   1273   1272     1  180.0000771  2.0920000  4
    599    593   1248   1247     1  180.0000771  10.4600000  2
    600    595   1274   1273     1  180.0000771  10.4600000  2
    615    616    618    619     1  0.0000000  0.6508444  3
    615    617    620    621     1  0.0000000  0.6508444  3
    615    622    623    624     1  0.0000000  0.6508444  3
    616    615    617    620     1  0.0000000  0.6508444  3
    616    615    622    623     1  0.0000000  0.6508444  3
    616    618    619    625     1  180.0000771  0.0000000  2
    616    618    619   1300     1  0.0000000  0.2928800  2
    616    618    619   1300     1  0.0000000  0.4184000  4
    617    615    616    618     1  0.0000000  0.6508444  3
    617    615    622    623     1  0.0000000  0.6508444  3
    617    620    621    626     1  180.0000771  0.0000000  2
    617    620    621   1326     1  0.0000000  0.2928800  2
    617    620    621   1326     1  0.0000000  0.4184000  4
    618    616    615    622     1  0.0000000  0.6508444  3
    618    619   1300   1299     1  180.0000771  6.2760000  1
    618    619   1300   1299     1  0.0000000  0.0000000  2
    619   1300   1299   1298     1  0.0000000  2.2175200  1
    619   1300   1299   1298     1  0.0000000  0.0000000  2
    619   1300   1299   1298     1  180.0000771  0.6276000  3
    619   1300   1299   1298     1  180.0000771  2.0920000  4
    620    617    615    622     1  0.0000000  0.6508444  3
    620    621   1326   1325     1  180.0000771  6.2760000  1
    620    621   1326   1325     1  0.0000000  0.0000000  2
    621   1326   1325   1324     1  0.0000000  2.2175200  1
    621   1326   1325   1324     1  0.0000000  0.0000000  2
    621   1326   1325   1324     1  180.0000771  0.6276000  3
    621   1326   1325   1324     1  180.0000771  2.0920000  4
    625    619   1300   1299     1  180.0000771  10.4600000  2
    626    621   1326   1325     1  180.0000771  10.4600000  2
    641    642    644    645     1  0.0000000  0.6508444  3
    641    643    646    647     1  0.0000000  0.6508444  3
    641    648    649    650     1  0.0000000  0.6508444  3
    642    641    643    646     1  0.0000000  0.6508444  3
    642    641    648    649     1  0.0000000  0.6508444  3
    642    644    645    651     1  180.0000771  0.0000000  2
    642    644    645   1352     1  0.0000000  0.2928800  2
    642    644    645   1352     1  0.0000000  0.4184000  4
    643    641    642    644     1  0.0000000  0.6508444  3
    643    641    648    649     1  0.0000000  0.6508444  3
    643    646    647    652     1  180.0000771  0.0000000  2
    643    646    647   1378     1  0.0000000  0.2928800  2
    643    646    647   1378     1  0.0000000  0.4184000  4
    644    642    641    648     1  0.0000000  0.6508444  3
    644    645   1352   1351     1  180.0000771  6.2760000  1
    644    645   1352   1351     1  0.0000000  0.0000000  2
    645   1352   1351   1350     1  0.0000000  2.2175200  1
    645   1352   1351   1350     1  0.0000000  0.0000000  2
    645   1352   1351   1350     1  180.0000771  0.6276000  3
    645   1352   1351   1350     1  180.0000771  2.0920000  4
    646    643    641    648     1  0.0000000  0.6508444  3
    646    647   1378   1377     1  180.0000771  6.2760000  1
    646    647   1378   1377     1  0.0000000  0.0000000  2
    647   1378   1377   1376     1  0.0000000  2.2175200  1
    647   1378   1377   1376     1  0.0000000  0.0000000  2
    647   1378   1377   1376     1  180.0000771  0.6276000  3
    647   1378   1377   1376     1  180.0000771  2.0920000  4
    651    645   1352   1351     1  180.0000771  10.4600000  2
    652    647   1378   1377     1  180.0000771  10.4600000  2
    667    668    670    671     1  0.0000000  0.6508444  3
    667    669    672    673     1  0.0000000  0.6508444  3
    667    674    675    676     1  0.0000000  0.6508444  3
    668    667    669    672     1  0.0000000  0.6508444  3
    668    667    674    675     1  0.0000000  0.6508444  3
    668    670    671    677     1  180.0000771  0.0000000  2
    668    670    671   1404     1  0.0000000  0.2928800  2
    668    670    671   1404     1  0.0000000  0.4184000  4
    669    667    668    670     1  0.0000000  0.6508444  3
    669    667    674    675     1  0.0000000  0.6508444  3
    669    672    673    678     1  180.0000771  0.0000000  2
    669    672    673   1430     1  0.0000000  0.2928800  2
    669    672    673   1430     1  0.0000000  0.4184000  4
    670    668    667    674     1  0.0000000  0.6508444  3
    670    671   1404   1403     1  180.0000771  6.2760000  1
    670    671   1404   1403     1  0.0000000  0.0000000  2
    671   1404   1403   1402     1  0.0000000  2.2175200  1
    671   1404   1403   1402     1  0.0000000  0.0000000  2
    671   1404   1403   1402     1  180.0000771  0.6276000  3
    671   1404   1403   1402     1  180.0000771  2.0920000  4
    672    669    667    674     1  0.0000000  0.6508444  3
    672    673   1430   1429     1  180.0000771  6.2760000  1
    672    673   1430   1429     1  0.0000000  0.0000000  2
    673   1430   1429   1428     1  0.0000000  2.2175200  1
    673   1430   1429   1428     1  0.0000000  0.0000000  2
    673   1430   1429   1428     1  180.0000771  0.6276000  3
    673   1430   1429   1428     1  180.0000771  2.0920000  4
    677    671   1404   1403     1  180.0000771  10.4600000  2
    678    673   1430   1429     1  180.0000771  10.4600000  2
    693    694    696    697     1  0.0000000  0.6508444  3
    693    695    698    699     1  0.0000000  0.6508444  3
    693    700    701    702     1  0.0000000  0.6508444  3
    694    693    695    698     1  0.0000000  0.6508444  3
    694    693    700    701     1  0.0000000  0.6508444  3
    694    696    697    703     1  180.0000771  0.0000000  2
    694    696    697   1456     1  0.0000000  0.2928800  2
    694    696    697   1456     1  0.0000000  0.4184000  4
    695    693    694    696     1  0.0000000  0.6508444  3
    695    693    700    701     1  0.0000000  0.6508444  3
    695    698    699    704     1  180.0000771  0.0000000  2
    695    698    699   1482     1  0.0000000  0.2928800  2
    695    698    699   1482     1  0.0000000  0.4184000  4
    696    694    693    700     1  0.0000000  0.6508444  3
    696    697   1456   1455     1  180.0000771  6.2760000  1
    696    697   1456   1455     1  0.0000000  0.0000000  2
    697   1456   1455   1454     1  0.0000000  2.2175200  1
    697   1456   1455   1454     1  0.0000000  0.0000000  2
    697   1456   1455   1454     1  180.0000771  0.6276000  3
    697   1456   1455   1454     1  180.0000771  2.0920000  4
    698    695    693    700     1  0.0000000  0.6508444  3
    698    699   1482   1481     1  180.0000771  6.2760000  1
    698    699   1482   1481     1  0.0000000  0.0000000  2
    699   1482   1481   1480     1  0.0000000  2.2175200  1
    699   1482   1481   1480     1  0.0000000  0.0000000  2
    699   1482   1481   1480     1  180.0000771  0.6276000  3
    699   1482   1481   1480     1  180.0000771  2.0920000  4
    703    697   1456   1455     1  180.0000771  10.4600000  2
    704    699   1482   1481     1  180.0000771  10.4600000  2
    719    720    722    723     1  0.0000000  0.6508444  3
    719    721    724    725     1  0.0000000  0.6508444  3
    719    726    727    728     1  0.0000000  0.6508444  3
    720    719    721    724     1  0.0000000  0.6508444  3
    720    719    726    727     1  0.0000000  0.6508444  3
    720    722    723    729     1  180.0000771  0.0000000  2
    720    722    723   1508     1  0.0000000  0.2928800  2
    720    722    723   1508     1  0.0000000  0.4184000  4
    721    719    720    722     1  0.0000000  0.6508444  3
    721    719    726    727     1  0.0000000  0.6508444  3
    721    724    725    730     1  180.0000771  0.0000000  2
    721    724    725   1534     1  0.0000000  0.2928800  2
    721    724    725   1534     1  0.0000000  0.4184000  4
    722    720    719    726     1  0.0000000  0.6508444  3
    722    723   1508   1507     1  180.0000771  6.2760000  1
    722    723   1508   1507     1  0.0000000  0.0000000  2
    723   1508   1507   1506     1  0.0000000  2.2175200  1
    723   1508   1507   1506     1  0.0000000  0.0000000  2
    723   1508   1507   1506     1  180.0000771  0.6276000  3
    723   1508   1507   1506     1  180.0000771  2.0920000  4
    724    721    719    726     1  0.0000000  0.6508444  3
    724    725   1534   1533     1  180.0000771  6.2760000  1
    724    725   1534   1533     1  0.0000000  0.0000000  2
    725   1534   1533   1532     1  0.0000000  2.2175200  1
    725   1534   1533   1532     1  0.0000000  0.0000000  2
    725   1534   1533   1532     1  180.0000771  0.6276000  3
    725   1534   1533   1532     1  180.0000771  2.0920000  4
    729    723   1508   1507     1  180.0000771  10.4600000  2
    730    725   1534   1533     1  180.0000771  10.4600000  2
    745    746    748    749     1  0.0000000  0.6508444  3
    745    747    750    751     1  0.0000000  0.6508444  3
    745    752    753    754     1  0.0000000  0.6508444  3
    746    745    747    750     1  0.0000000  0.6508444  3
    746    745    752    753     1  0.0000000  0.6508444  3
    746    748    749    755     1  180.0000771  0.0000000  2
    746    748    749   1560     1  0.0000000  0.2928800  2
    746    748    749   1560     1  0.0000000  0.4184000  4
    747    745    746    748     1  0.0000000  0.6508444  3
    747    745    752    753     1  0.0000000  0.6508444  3
    747    750    751    756     1  180.0000771  0.0000000  2
    747    750    751   1586     1  0.0000000  0.2928800  2
    747    750    751   1586     1  0.0000000  0.4184000  4
    748    746    745    752     1  0.0000000  0.6508444  3
    748    749   1560   1559     1  180.0000771  6.2760000  1
    748    749   1560   1559     1  0.0000000  0.0000000  2
    749   1560   1559   1558     1  0.0000000  2.2175200  1
    749   1560   1559   1558     1  0.0000000  0.0000000  2
    749   1560   1559   1558     1  180.0000771  0.6276000  3
    749   1560   1559   1558     1  180.0000771  2.0920000  4
    750    747    745    752     1  0.0000000  0.6508444  3
    750    751   1586   1585     1  180.0000771  6.2760000  1
    750    751   1586   1585     1  0.0000000  0.0000000  2
    751   1586   1585   1584     1  0.0000000  2.2175200  1
    751   1586   1585   1584     1  0.0000000  0.0000000  2
    751   1586   1585   1584     1  180.0000771  0.6276000  3
    751   1586   1585   1584     1  180.0000771  2.0920000  4
    755    749   1560   1559     1  180.0000771  10.4600000  2
    756    751   1586   1585     1  180.0000771  10.4600000  2
    771    772    774    775     1  0.0000000  0.6508444  3
    771    773    776    777     1  0.0000000  0.6508444  3
    771    778    779    780     1  0.0000000  0.6508444  3
    772    771    773    776     1  0.0000000  0.6508444  3
    772    771    778    779     1  0.0000000  0.6508444  3
    772    774    775   1603     1  0.0000000  0.2928800  2
    772    774    775   1603     1  0.0000000  0.4184000  4
    772    774    775    781     1  180.0000771  0.0000000  2
    773    771    772    774     1  0.0000000  0.6508444  3
    773    771    778    779     1  0.0000000  0.6508444  3
    773    776    777    782     1  180.0000771  0.0000000  2
    773    776    777   1615     1  0.0000000  0.2928800  2
    773    776    777   1615     1  0.0000000  0.4184000  4
    774    772    771    778     1  0.0000000  0.6508444  3
    774    775   1603   1605     1  180.0000771  6.2760000  1
    774    775   1603   1605     1  0.0000000  0.0000000  2
    775   1603   1605   1606     1  0.0000000  2.2175200  1
    775   1603   1605   1606     1  0.0000000  0.0000000  2
    775   1603   1605   1606     1  180.0000771  0.6276000  3
    775   1603   1605   1606     1  180.0000771  2.0920000  4
    776    773    771    778     1  0.0000000  0.6508444  3
    776    777   1615   1617     1  180.0000771  6.2760000  1
    776    777   1615   1617     1  0.0000000  0.0000000  2
    777   1615   1617   1618     1  0.0000000  2.2175200  1
    777   1615   1617   1618     1  0.0000000  0.0000000  2
    777   1615   1617   1618     1  180.0000771  0.6276000  3
    777   1615   1617   1618     1  180.0000771  2.0920000  4
    781    775   1603   1605     1  180.0000771  10.4600000  2
    782    777   1615   1617     1  180.0000771  10.4600000  2
    797    798    800    801     1  0.0000000  0.6508444  3
    797    799    802    803     1  0.0000000  0.6508444  3
    797    804    805    806     1  0.0000000  0.6508444  3
    798    797    799    802     1  0.0000000  0.6508444  3
    798    797    804    805     1  0.0000000  0.6508444  3
    798    800    801   1627     1  0.0000000  0.2928800  2
    798    800    801   1627     1  0.0000000  0.4184000  4
    798    800    801    807     1  180.0000771  0.0000000  2
    799    797    798    800     1  0.0000000  0.6508444  3
    799    797    804    805     1  0.0000000  0.6508444  3
    799    802    803    808     1  180.0000771  0.0000000  2
    799    802    803   1639     1  0.0000000  0.2928800  2
    799    802    803   1639     1  0.0000000  0.4184000  4
    800    798    797    804     1  0.0000000  0.6508444  3
    800    801   1627   1629     1  180.0000771  6.2760000  1
    800    801   1627   1629     1  0.0000000  0.0000000  2
    801   1627   1629   1630     1  0.0000000  2.2175200  1
    801   1627   1629   1630     1  0.0000000  0.0000000  2
    801   1627   1629   1630     1  180.0000771  0.6276000  3
    801   1627   1629   1630     1  180.0000771  2.0920000  4
    802    799    797    804     1  0.0000000  0.6508444  3
    802    803   1639   1641     1  180.0000771  6.2760000  1
    802    803   1639   1641     1  0.0000000  0.0000000  2
    803   1639   1641   1642     1  0.0000000  2.2175200  1
    803   1639   1641   1642     1  0.0000000  0.0000000  2
    803   1639   1641   1642     1  180.0000771  0.6276000  3
    803   1639   1641   1642     1  180.0000771  2.0920000  4
    807    801   1627   1629     1  180.0000771  10.4600000  2
    808    803   1639   1641     1  180.0000771  10.4600000  2
    823    824    826    827     1  0.0000000  0.6508444  3
    823    825    828    829     1  0.0000000  0.6508444  3
    823    830    831    832     1  0.0000000  0.6508444  3
    824    823    825    828     1  0.0000000  0.6508444  3
    824    823    830    831     1  0.0000000  0.6508444  3
    824    826    827   1651     1  0.0000000  0.2928800  2
    824    826    827   1651     1  0.0000000  0.4184000  4
    824    826    827    833     1  180.0000771  0.0000000  2
    825    823    824    826     1  0.0000000  0.6508444  3
    825    823    830    831     1  0.0000000  0.6508444  3
    825    828    829    834     1  180.0000771  0.0000000  2
    825    828    829   1663     1  0.0000000  0.2928800  2
    825    828    829   1663     1  0.0000000  0.4184000  4
    826    824    823    830     1  0.0000000  0.6508444  3
    826    827   1651   1653     1  180.0000771  6.2760000  1
    826    827   1651   1653     1  0.0000000  0.0000000  2
    827   1651   1653   1654     1  0.0000000  2.2175200  1
    827   1651   1653   1654     1  0.0000000  0.0000000  2
    827   1651   1653   1654     1  180.0000771  0.6276000  3
    827   1651   1653   1654     1  180.0000771  2.0920000  4
    828    825    823    830     1  0.0000000  0.6508444  3
    828    829   1663   1665     1  180.0000771  6.2760000  1
    828    829   1663   1665     1  0.0000000  0.0000000  2
    829   1663   1665   1666     1  0.0000000  2.2175200  1
    829   1663   1665   1666     1  0.0000000  0.0000000  2
    829   1663   1665   1666     1  180.0000771  0.6276000  3
    829   1663   1665   1666     1  180.0000771  2.0920000  4
    833    827   1651   1653     1  180.0000771  10.4600000  2
    834    829   1663   1665     1  180.0000771  10.4600000  2
    849    850    852    853     1  0.0000000  0.6508444  3
    849    851    854    855     1  0.0000000  0.6508444  3
    849    856    857    858     1  0.0000000  0.6508444  3
    850    849    851    854     1  0.0000000  0.6508444  3
    850    849    856    857     1  0.0000000  0.6508444  3
    850    852    853   1675     1  0.0000000  0.2928800  2
    850    852    853   1675     1  0.0000000  0.4184000  4
    850    852    853    859     1  180.0000771  0.0000000  2
    851    849    850    852     1  0.0000000  0.6508444  3
    851    849    856    857     1  0.0000000  0.6508444  3
    851    854    855    860     1  180.0000771  0.0000000  2
    851    854    855   1687     1  0.0000000  0.2928800  2
    851    854    855   1687     1  0.0000000  0.4184000  4
    852    850    849    856     1  0.0000000  0.6508444  3
    852    853   1675   1677     1  180.0000771  6.2760000  1
    852    853   1675   1677     1  0.0000000  0.0000000  2
    853   1675   1677   1678     1  0.0000000  2.2175200  1
    853   1675   1677   1678     1  0.0000000  0.0000000  2
    853   1675   1677   1678     1  180.0000771  0.6276000  3
    853   1675   1677   1678     1  180.0000771  2.0920000  4
    854    851    849    856     1  0.0000000  0.6508444  3
    854    855   1687   1689     1  180.0000771  6.2760000  1
    854    855   1687   1689     1  0.0000000  0.0000000  2
    855   1687   1689   1690     1  0.0000000  2.2175200  1
    855   1687   1689   1690     1  0.0000000  0.0000000  2
    855   1687   1689   1690     1  180.0000771  0.6276000  3
    855   1687   1689   1690     1  180.0000771  2.0920000  4
    859    853   1675   1677     1  180.0000771  10.4600000  2
    860    855   1687   1689     1  180.0000771  10.4600000  2
    875    876    878    879     1  0.0000000  0.6508444  3
    875    877    880    881     1  0.0000000  0.6508444  3
    875    882    883    884     1  0.0000000  0.6508444  3
    876    875    877    880     1  0.0000000  0.6508444  3
    876    875    882    883     1  0.0000000  0.6508444  3
    876    878    879   1699     1  0.0000000  0.2928800  2
    876    878    879   1699     1  0.0000000  0.4184000  4
    876    878    879    885     1  180.0000771  0.0000000  2
    877    875    876    878     1  0.0000000  0.6508444  3
    877    875    882    883     1  0.0000000  0.6508444  3
    877    880    881    886     1  180.0000771  0.0000000  2
    877    880    881   1711     1  0.0000000  0.2928800  2
    877    880    881   1711     1  0.0000000  0.4184000  4
    878    876    875    882     1  0.0000000  0.6508444  3
    878    879   1699   1701     1  180.0000771  6.2760000  1
    878    879   1699   1701     1  0.0000000  0.0000000  2
    879   1699   1701   1702     1  0.0000000  2.2175200  1
    879   1699   1701   1702     1  0.0000000  0.0000000  2
    879   1699   1701   1702     1  180.0000771  0.6276000  3
    879   1699   1701   1702     1  180.0000771  2.0920000  4
    880    877    875    882     1  0.0000000  0.6508444  3
    880    881   1711   1713     1  180.0000771  6.2760000  1
    880    881   1711   1713     1  0.0000000  0.0000000  2
    881   1711   1713   1714     1  0.0000000  2.2175200  1
    881   1711   1713   1714     1  0.0000000  0.0000000  2
    881   1711   1713   1714     1  180.0000771  0.6276000  3
    881   1711   1713   1714     1  180.0000771  2.0920000  4
    885    879   1699   1701     1  180.0000771  10.4600000  2
    886    881   1711   1713     1  180.0000771  10.4600000  2
    901    902    904    905     1  0.0000000  0.6508444  3
    901    903    906    907     1  0.0000000  0.6508444  3
    901    908    909    910     1  0.0000000  0.6508444  3
    902    901    903    906     1  0.0000000  0.6508444  3
    902    901    908    909     1  0.0000000  0.6508444  3
    902    904    905   1723     1  0.0000000  0.2928800  2
    902    904    905   1723     1  0.0000000  0.4184000  4
    902    904    905    911     1  180.0000771  0.0000000  2
    903    901    902    904     1  0.0000000  0.6508444  3
    903    901    908    909     1  0.0000000  0.6508444  3
    903    906    907    912     1  180.0000771  0.0000000  2
    903    906    907   1735     1  0.0000000  0.2928800  2
    903    906    907   1735     1  0.0000000  0.4184000  4
    904    902    901    908     1  0.0000000  0.6508444  3
    904    905   1723   1725     1  180.0000771  6.2760000  1
    904    905   1723   1725     1  0.0000000  0.0000000  2
    905   1723   1725   1726     1  0.0000000  2.2175200  1
    905   1723   1725   1726     1  0.0000000  0.0000000  2
    905   1723   1725   1726     1  180.0000771  0.6276000  3
    905   1723   1725   1726     1  180.0000771  2.0920000  4
    906    903    901    908     1  0.0000000  0.6508444  3
    906    907   1735   1737     1  180.0000771  6.2760000  1
    906    907   1735   1737     1  0.0000000  0.0000000  2
    907   1735   1737   1738     1  0.0000000  2.2175200  1
    907   1735   1737   1738     1  0.0000000  0.0000000  2
    907   1735   1737   1738     1  180.0000771  0.6276000  3
    907   1735   1737   1738     1  180.0000771  2.0920000  4
    911    905   1723   1725     1  180.0000771  10.4600000  2
    912    907   1735   1737     1  180.0000771  10.4600000  2
    927    928    930    931     1  0.0000000  0.6508444  3
    927    929    932    933     1  0.0000000  0.6508444  3
    927    934    935    936     1  0.0000000  0.6508444  3
    928    927    929    932     1  0.0000000  0.6508444  3
    928    927    934    935     1  0.0000000  0.6508444  3
    928    930    931   1747     1  0.0000000  0.2928800  2
    928    930    931   1747     1  0.0000000  0.4184000  4
    928    930    931    937     1  180.0000771  0.0000000  2
    929    927    928    930     1  0.0000000  0.6508444  3
    929    927    934    935     1  0.0000000  0.6508444  3
    929    932    933    938     1  180.0000771  0.0000000  2
    929    932    933   1759     1  0.0000000  0.2928800  2
    929    932    933   1759     1  0.0000000  0.4184000  4
    930    928    927    934     1  0.0000000  0.6508444  3
    930    931   1747   1749     1  180.0000771  6.2760000  1
    930    931   1747   1749     1  0.0000000  0.0000000  2
    931   1747   1749   1750     1  0.0000000  2.2175200  1
    931   1747   1749   1750     1  0.0000000  0.0000000  2
    931   1747   1749   1750     1  180.0000771  0.6276000  3
    931   1747   1749   1750     1  180.0000771  2.0920000  4
    932    929    927    934     1  0.0000000  0.6508444  3
    932    933   1759   1761     1  180.0000771  6.2760000  1
    932    933   1759   1761     1  0.0000000  0.0000000  2
    933   1759   1761   1762     1  0.0000000  2.2175200  1
    933   1759   1761   1762     1  0.0000000  0.0000000  2
    933   1759   1761   1762     1  180.0000771  0.6276000  3
    933   1759   1761   1762     1  180.0000771  2.0920000  4
    937    931   1747   1749     1  180.0000771  10.4600000  2
    938    933   1759   1761     1  180.0000771  10.4600000  2
    953    954    956    957     1  0.0000000  0.6508444  3
    953    955    958    959     1  0.0000000  0.6508444  3
    953    960    961    962     1  0.0000000  0.6508444  3
    954    953    955    958     1  0.0000000  0.6508444  3
    954    953    960    961     1  0.0000000  0.6508444  3
    954    956    957   1771     1  0.0000000  0.2928800  2
    954    956    957   1771     1  0.0000000  0.4184000  4
    954    956    957    963     1  180.0000771  0.0000000  2
    955    953    954    956     1  0.0000000  0.6508444  3
    955    953    960    961     1  0.0000000  0.6508444  3
    955    958    959    964     1  180.0000771  0.0000000  2
    955    958    959   1783     1  0.0000000  0.2928800  2
    955    958    959   1783     1  0.0000000  0.4184000  4
    956    954    953    960     1  0.0000000  0.6508444  3
    956    957   1771   1773     1  180.0000771  6.2760000  1
    956    957   1771   1773     1  0.0000000  0.0000000  2
    957   1771   1773   1774     1  0.0000000  2.2175200  1
    957   1771   1773   1774     1  0.0000000  0.0000000  2
    957   1771   1773   1774     1  180.0000771  0.6276000  3
    957   1771   1773   1774     1  180.0000771  2.0920000  4
    958    955    953    960     1  0.0000000  0.6508444  3
    958    959   1783   1785     1  180.0000771  6.2760000  1
    958    959   1783   1785     1  0.0000000  0.0000000  2
    959   1783   1785   1786     1  0.0000000  2.2175200  1
    959   1783   1785   1786     1  0.0000000  0.0000000  2
    959   1783   1785   1786     1  180.0000771  0.6276000  3
    959   1783   1785   1786     1  180.0000771  2.0920000  4
    963    957   1771   1773     1  180.0000771  10.4600000  2
    964    959   1783   1785     1  180.0000771  10.4600000  2
    979    980    982    983     1  0.0000000  0.6508444  3
    979    981    984    985     1  0.0000000  0.6508444  3
    979    986    987    988     1  0.0000000  0.6508444  3
    980    979    981    984     1  0.0000000  0.6508444  3
    980    979    986    987     1  0.0000000  0.6508444  3
    980    982    983   1795     1  0.0000000  0.2928800  2
    980    982    983   1795     1  0.0000000  0.4184000  4
    980    982    983    989     1  180.0000771  0.0000000  2
    981    979    980    982     1  0.0000000  0.6508444  3
    981    979    986    987     1  0.0000000  0.6508444  3
    981    984    985    990     1  180.0000771  0.0000000  2
    981    984    985   1807     1  0.0000000  0.2928800  2
    981    984    985   1807     1  0.0000000  0.4184000  4
    982    980    979    986     1  0.0000000  0.6508444  3
    982    983   1795   1797     1  180.0000771  6.2760000  1
    982    983   1795   1797     1  0.0000000  0.0000000  2
    983   1795   1797   1798     1  0.0000000  2.2175200  1
    983   1795   1797   1798     1  0.0000000  0.0000000  2
    983   1795   1797   1798     1  180.0000771  0.6276000  3
    983   1795   1797   1798     1  180.0000771  2.0920000  4
    984    981    979    986     1  0.0000000  0.6508444  3
    984    985   1807   1809     1  180.0000771  6.2760000  1
    984    985   1807   1809     1  0.0000000  0.0000000  2
    985   1807   1809   1810     1  0.0000000  2.2175200  1
    985   1807   1809   1810     1  0.0000000  0.0000000  2
    985   1807   1809   1810     1  180.0000771  0.6276000  3
    985   1807   1809   1810     1  180.0000771  2.0920000  4
    989    983   1795   1797     1  180.0000771  10.4600000  2
    990    985   1807   1809     1  180.0000771  10.4600000  2
   1005   1006   1008   1009     1  0.0000000  0.6508444  3
   1005   1007   1010   1011     1  0.0000000  0.6508444  3
   1005   1012   1013   1014     1  0.0000000  0.6508444  3
   1006   1005   1007   1010     1  0.0000000  0.6508444  3
   1006   1005   1012   1013     1  0.0000000  0.6508444  3
   1006   1008   1009   1819     1  0.0000000  0.2928800  2
   1006   1008   1009   1819     1  0.0000000  0.4184000  4
   1006   1008   1009   1015     1  180.0000771  0.0000000  2
   1007   1005   1006   1008     1  0.0000000  0.6508444  3
   1007   1005   1012   1013     1  0.0000000  0.6508444  3
   1007   1010   1011   1016     1  180.0000771  0.0000000  2
   1007   1010   1011   1831     1  0.0000000  0.2928800  2
   1007   1010   1011   1831     1  0.0000000  0.4184000  4
   1008   1006   1005   1012     1  0.0000000  0.6508444  3
   1008   1009   1819   1821     1  180.0000771  6.2760000  1
   1008   1009   1819   1821     1  0.0000000  0.0000000  2
   1009   1819   1821   1822     1  0.0000000  2.2175200  1
   1009   1819   1821   1822     1  0.0000000  0.0000000  2
   1009   1819   1821   1822     1  180.0000771  0.6276000  3
   1009   1819   1821   1822     1  180.0000771  2.0920000  4
   1010   1007   1005   1012     1  0.0000000  0.6508444  3
   1010   1011   1831   1833     1  180.0000771  6.2760000  1
   1010   1011   1831   1833     1  0.0000000  0.0000000  2
   1011   1831   1833   1834     1  0.0000000  2.2175200  1
   1011   1831   1833   1834     1  0.0000000  0.0000000  2
   1011   1831   1833   1834     1  180.0000771  0.6276000  3
   1011   1831   1833   1834     1  180.0000771  2.0920000  4
   1015   1009   1819   1821     1  180.0000771  10.4600000  2
   1016   1011   1831   1833     1  180.0000771  10.4600000  2
   1031   1032   1034   1035     1  0.0000000  0.6508444  3
   1031   1033   1036   1037     1  0.0000000  0.6508444  3
   1031   1038   1039   1040     1  0.0000000  0.6508444  3
   1032   1031   1033   1036     1  0.0000000  0.6508444  3
   1032   1031   1038   1039     1  0.0000000  0.6508444  3
   1032   1034   1035   1843     1  0.0000000  0.2928800  2
   1032   1034   1035   1843     1  0.0000000  0.4184000  4
   1032   1034   1035   1041     1  180.0000771  0.0000000  2
   1033   1031   1032   1034     1  0.0000000  0.6508444  3
   1033   1031   1038   1039     1  0.0000000  0.6508444  3
   1033   1036   1037   1042     1  180.0000771  0.0000000  2
   1033   1036   1037   1855     1  0.0000000  0.2928800  2
   1033   1036   1037   1855     1  0.0000000  0.4184000  4
   1034   1032   1031   1038     1  0.0000000  0.6508444  3
   1034   1035   1843   1845     1  180.0000771  6.2760000  1
   1034   1035   1843   1845     1  0.0000000  0.0000000  2
   1035   1843   1845   1846     1  0.0000000  2.2175200  1
   1035   1843   1845   1846     1  0.0000000  0.0000000  2
   1035   1843   1845   1846     1  180.0000771  0.6276000  3
   1035   1843   1845   1846     1  180.0000771  2.0920000  4
   1036   1033   1031   1038     1  0.0000000  0.6508444  3
   1036   1037   1855   1857     1  180.0000771  6.2760000  1
   1036   1037   1855   1857     1  0.0000000  0.0000000  2
   1037   1855   1857   1858     1  0.0000000  2.2175200  1
   1037   1855   1857   1858     1  0.0000000  0.0000000  2
   1037   1855   1857   1858     1  180.0000771  0.6276000  3
   1037   1855   1857   1858     1  180.0000771  2.0920000  4
   1041   1035   1843   1845     1  180.0000771  10.4600000  2
   1042   1037   1855   1857     1  180.0000771  10.4600000  2
   1057   1058   1060   1061     1  0.0000000  0.6508444  3
   1057   1059   1062   1063     1  0.0000000  0.6508444  3
   1057   1064   1065   1066     1  0.0000000  0.6508444  3
   1058   1057   1059   1062     1  0.0000000  0.6508444  3
   1058   1057   1064   1065     1  0.0000000  0.6508444  3
   1058   1060   1061   1867     1  0.0000000  0.2928800  2
   1058   1060   1061   1867     1  0.0000000  0.4184000  4
   1058   1060   1061   1067     1  180.0000771  0.0000000  2
   1059   1057   1058   1060     1  0.0000000  0.6508444  3
   1059   1057   1064   1065     1  0.0000000  0.6508444  3
   1059   1062   1063   1068     1  180.0000771  0.0000000  2
   1059   1062   1063   1879     1  0.0000000  0.2928800  2
   1059   1062   1063   1879     1  0.0000000  0.4184000  4
   1060   1058   1057   1064     1  0.0000000  0.6508444  3
   1060   1061   1867   1869     1  180.0000771  6.2760000  1
   1060   1061   1867   1869     1  0.0000000  0.0000000  2
   1061   1867   1869   1870     1  0.0000000  2.2175200  1
   1061   1867   1869   1870     1  0.0000000  0.0000000  2
   1061   1867   1869   1870     1  180.0000771  0.6276000  3
   1061   1867   1869   1870     1  180.0000771  2.0920000  4
   1062   1059   1057   1064     1  0.0000000  0.6508444  3
   1062   1063   1879   1881     1  180.0000771  6.2760000  1
   1062   1063   1879   1881     1  0.0000000  0.0000000  2
   1063   1879   1881   1882     1  0.0000000  2.2175200  1
   1063   1879   1881   1882     1  0.0000000  0.0000000  2
   1063   1879   1881   1882     1  180.0000771  0.6276000  3
   1063   1879   1881   1882     1  180.0000771  2.0920000  4
   1067   1061   1867   1869     1  180.0000771  10.4600000  2
   1068   1063   1879   1881     1  180.0000771  10.4600000  2
   1083   1084   1086   1087     1  0.0000000  0.6508444  3
   1083   1085   1088   1089     1  0.0000000  0.6508444  3
   1083   1090   1091   1092     1  0.0000000  0.6508444  3
   1084   1083   1085   1088     1  0.0000000  0.6508444  3
   1084   1083   1090   1091     1  0.0000000  0.6508444  3
   1084   1086   1087   1891     1  0.0000000  0.2928800  2
   1084   1086   1087   1891     1  0.0000000  0.4184000  4
   1084   1086   1087   1093     1  180.0000771  0.0000000  2
   1085   1083   1084   1086     1  0.0000000  0.6508444  3
   1085   1083   1090   1091     1  0.0000000  0.6508444  3
   1085   1088   1089   1094     1  180.0000771  0.0000000  2
   1085   1088   1089   1903     1  0.0000000  0.2928800  2
   1085   1088   1089   1903     1  0.0000000  0.4184000  4
   1086   1084   1083   1090     1  0.0000000  0.6508444  3
   1086   1087   1891   1893     1  180.0000771  6.2760000  1
   1086   1087   1891   1893     1  0.0000000  0.0000000  2
   1087   1891   1893   1894     1  0.0000000  2.2175200  1
   1087   1891   1893   1894     1  0.0000000  0.0000000  2
   1087   1891   1893   1894     1  180.0000771  0.6276000  3
   1087   1891   1893   1894     1  180.0000771  2.0920000  4
   1088   1085   1083   1090     1  0.0000000  0.6508444  3
   1088   1089   1903   1905     1  180.0000771  6.2760000  1
   1088   1089   1903   1905     1  0.0000000  0.0000000  2
   1089   1903   1905   1906     1  0.0000000  2.2175200  1
   1089   1903   1905   1906     1  0.0000000  0.0000000  2
   1089   1903   1905   1906     1  180.0000771  0.6276000  3
   1089   1903   1905   1906     1  180.0000771  2.0920000  4
   1093   1087   1891   1893     1  180.0000771  10.4600000  2
   1094   1089   1903   1905     1  180.0000771  10.4600000  2
   1109   1110   1112   1113     1  0.0000000  0.6508444  3
   1109   1111   1114   1115     1  0.0000000  0.6508444  3
   1109   1116   1117   1118     1  0.0000000  0.6508444  3
   1110   1109   1111   1114     1  0.0000000  0.6508444  3
   1110   1109   1116   1117     1  0.0000000  0.6508444  3
   1110   1112   1113   1915     1  0.0000000  0.2928800  2
   1110   1112   1113   1915     1  0.0000000  0.4184000  4
   1110   1112   1113   1119     1  180.0000771  0.0000000  2
   1111   1109   1110   1112     1  0.0000000  0.6508444  3
   1111   1109   1116   1117     1  0.0000000  0.6508444  3
   1111   1114   1115   1120     1  180.0000771  0.0000000  2
   1111   1114   1115   1927     1  0.0000000  0.2928800  2
   1111   1114   1115   1927     1  0.0000000  0.4184000  4
   1112   1110   1109   1116     1  0.0000000  0.6508444  3
   1112   1113   1915   1917     1  180.0000771  6.2760000  1
   1112   1113   1915   1917     1  0.0000000  0.0000000  2
   1113   1915   1917   1918     1  0.0000000  2.2175200  1
   1113   1915   1917   1918     1  0.0000000  0.0000000  2
   1113   1915   1917   1918     1  180.0000771  0.6276000  3
   1113   1915   1917   1918     1  180.0000771  2.0920000  4
   1114   1111   1109   1116     1  0.0000000  0.6508444  3
   1114   1115   1927   1929     1  180.0000771  6.2760000  1
   1114   1115   1927   1929     1  0.0000000  0.0000000  2
   1115   1927   1929   1930     1  0.0000000  2.2175200  1
   1115   1927   1929   1930     1  0.0000000  0.0000000  2
   1115   1927   1929   1930     1  180.0000771  0.6276000  3
   1115   1927   1929   1930     1  180.0000771  2.0920000  4
   1119   1113   1915   1917     1  180.0000771  10.4600000  2
   1120   1115   1927   1929     1  180.0000771  10.4600000  2
   1135   1136   1138   1139     1  0.0000000  0.6508444  3
   1135   1137   1140   1141     1  0.0000000  0.6508444  3
   1135   1142   1143   1144     1  0.0000000  0.6508444  3
   1136   1135   1137   1140     1  0.0000000  0.6508444  3
   1136   1135   1142   1143     1  0.0000000  0.6508444  3
   1136   1138   1139   1939     1  0.0000000  0.2928800  2
   1136   1138   1139   1939     1  0.0000000  0.4184000  4
   1136   1138   1139   1145     1  180.0000771  0.0000000  2
   1137   1135   1136   1138     1  0.0000000  0.6508444  3
   1137   1135   1142   1143     1  0.0000000  0.6508444  3
   1137   1140   1141   1146     1  180.0000771  0.0000000  2
   1137   1140   1141   1951     1  0.0000000  0.2928800  2
   1137   1140   1141   1951     1  0.0000000  0.4184000  4
   1138   1136   1135   1142     1  0.0000000  0.6508444  3
   1138   1139   1939   1941     1  180.0000771  6.2760000  1
   1138   1139   1939   1941     1  0.0000000  0.0000000  2
   1139   1939   1941   1942     1  0.0000000  2.2175200  1
   1139   1939   1941   1942     1  0.0000000  0.0000000  2
   1139   1939   1941   1942     1  180.0000771  0.6276000  3
   1139   1939   1941   1942     1  180.0000771  2.0920000  4
   1140   1137   1135   1142     1  0.0000000  0.6508444  3
   1140   1141   1951   1953     1  180.0000771  6.2760000  1
   1140   1141   1951   1953     1  0.0000000  0.0000000  2
   1141   1951   1953   1954     1  0.0000000  2.2175200  1
   1141   1951   1953   1954     1  0.0000000  0.0000000  2
   1141   1951   1953   1954     1  180.0000771  0.6276000  3
   1141   1951   1953   1954     1  180.0000771  2.0920000  4
   1145   1139   1939   1941     1  180.0000771  10.4600000  2
   1146   1141   1951   1953     1  180.0000771  10.4600000  2
   1161   1162   1164   1165     1  0.0000000  0.6508444  3
   1161   1163   1166   1167     1  0.0000000  0.6508444  3
   1161   1168   1169   1170     1  0.0000000  0.6508444  3
   1162   1161   1163   1166     1  0.0000000  0.6508444  3
   1162   1161   1168   1169     1  0.0000000  0.6508444  3
   1162   1164   1165   1963     1  0.0000000  0.2928800  2
   1162   1164   1165   1963     1  0.0000000  0.4184000  4
   1162   1164   1165   1171     1  180.0000771  0.0000000  2
   1163   1161   1162   1164     1  0.0000000  0.6508444  3
   1163   1161   1168   1169     1  0.0000000  0.6508444  3
   1163   1166   1167   1172     1  180.0000771  0.0000000  2
   1163   1166   1167   1975     1  0.0000000  0.2928800  2
   1163   1166   1167   1975     1  0.0000000  0.4184000  4
   1164   1162   1161   1168     1  0.0000000  0.6508444  3
   1164   1165   1963   1965     1  180.0000771  6.2760000  1
   1164   1165   1963   1965     1  0.0000000  0.0000000  2
   1165   1963   1965   1966     1  0.0000000  2.2175200  1
   1165   1963   1965   1966     1  0.0000000  0.0000000  2
   1165   1963   1965   1966     1  180.0000771  0.6276000  3
   1165   1963   1965   1966     1  180.0000771  2.0920000  4
   1166   1163   1161   1168     1  0.0000000  0.6508444  3
   1166   1167   1975   1977     1  180.0000771  6.2760000  1
   1166   1167   1975   1977     1  0.0000000  0.0000000  2
   1167   1975   1977   1978     1  0.0000000  2.2175200  1
   1167   1975   1977   1978     1  0.0000000  0.0000000  2
   1167   1975   1977   1978     1  180.0000771  0.6276000  3
   1167   1975   1977   1978     1  180.0000771  2.0920000  4
   1171   1165   1963   1965     1  180.0000771  10.4600000  2
   1172   1167   1975   1977     1  180.0000771  10.4600000  2
   1187   1188   1190   1191     1  0.0000000  0.6508444  3
   1187   1189   1192   1193     1  0.0000000  0.6508444  3
   1187   1194   1195   1196     1  0.0000000  0.6508444  3
   1188   1187   1189   1192     1  0.0000000  0.6508444  3
   1188   1187   1194   1195     1  0.0000000  0.6508444  3
   1188   1190   1191   1987     1  0.0000000  0.2928800  2
   1188   1190   1191   1987     1  0.0000000  0.4184000  4
   1188   1190   1191   1197     1  180.0000771  0.0000000  2
   1189   1187   1188   1190     1  0.0000000  0.6508444  3
   1189   1187   1194   1195     1  0.0000000  0.6508444  3
   1189   1192   1193   1198     1  180.0000771  0.0000000  2
   1189   1192   1193   1999     1  0.0000000  0.2928800  2
   1189   1192   1193   1999     1  0.0000000  0.4184000  4
   1190   1188   1187   1194     1  0.0000000  0.6508444  3
   1190   1191   1987   1989     1  180.0000771  6.2760000  1
   1190   1191   1987   1989     1  0.0000000  0.0000000  2
   1191   1987   1989   1990     1  0.0000000  2.2175200  1
   1191   1987   1989   1990     1  0.0000000  0.0000000  2
   1191   1987   1989   1990     1  180.0000771  0.6276000  3
   1191   1987   1989   1990     1  180.0000771  2.0920000  4
   1192   1189   1187   1194     1  0.0000000  0.6508444  3
   1192   1193   1999   2001     1  180.0000771  6.2760000  1
   1192   1193   1999   2001     1  0.0000000  0.0000000  2
   1193   1999   2001   2002     1  0.0000000  2.2175200  1
   1193   1999   2001   2002     1  0.0000000  0.0000000  2
   1193   1999   2001   2002     1  180.0000771  0.6276000  3
   1193   1999   2001   2002     1  180.0000771  2.0920000  4
   1197   1191   1987   1989     1  180.0000771  10.4600000  2
   1198   1193   1999   2001     1  180.0000771  10.4600000  2
   1213   1214   1216   1217     1  0.0000000  0.6508444  3
   1213   1215   1218   1219     1  0.0000000  0.6508444  3
   1213   1220   1221   1222     1  0.0000000  0.6508444  3
   1214   1213   1215   1218     1  0.0000000  0.6508444  3
   1214   1213   1220   1221     1  0.0000000  0.6508444  3
   1214   1216   1217   2011     1  0.0000000  0.2928800  2
   1214   1216   1217   2011     1  0.0000000  0.4184000  4
   1214   1216   1217   1223     1  180.0000771  0.0000000  2
   1215   1213   1214   1216     1  0.0000000  0.6508444  3
   1215   1213   1220   1221     1  0.0000000  0.6508444  3
   1215   1218   1219   1224     1  180.0000771  0.0000000  2
   1215   1218   1219   2023     1  0.0000000  0.2928800  2
   1215   1218   1219   2023     1  0.0000000  0.4184000  4
   1216   1214   1213   1220     1  0.0000000  0.6508444  3
   1216   1217   2011   2013     1  180.0000771  6.2760000  1
   1216   1217   2011   2013     1  0.0000000  0.0000000  2
   1217   2011   2013   2014     1  0.0000000  2.2175200  1
   1217   2011   2013   2014     1  0.0000000  0.0000000  2
   1217   2011   2013   2014     1  180.0000771  0.6276000  3
   1217   2011   2013   2014     1  180.0000771  2.0920000  4
   1218   1215   1213   1220     1  0.0000000  0.6508444  3
   1218   1219   2023   2025     1  180.0000771  6.2760000  1
   1218   1219   2023   2025     1  0.0000000  0.0000000  2
   1219   2023   2025   2026     1  0.0000000  2.2175200  1
   1219   2023   2025   2026     1  0.0000000  0.0000000  2
   1219   2023   2025   2026     1  180.0000771  0.6276000  3
   1219   2023   2025   2026     1  180.0000771  2.0920000  4
   1223   1217   2011   2013     1  180.0000771  10.4600000  2
   1224   1219   2023   2025     1  180.0000771  10.4600000  2
   1239   1240   1242   1243     1  0.0000000  0.6508444  3
   1239   1241   1244   1245     1  0.0000000  0.6508444  3
   1239   1246   1247   1248     1  0.0000000  0.6508444  3
   1240   1239   1241   1244     1  0.0000000  0.6508444  3
   1240   1239   1246   1247     1  0.0000000  0.6508444  3
   1240   1242   1243   2035     1  0.0000000  0.2928800  2
   1240   1242   1243   2035     1  0.0000000  0.4184000  4
   1240   1242   1243   1249     1  180.0000771  0.0000000  2
   1241   1239   1240   1242     1  0.0000000  0.6508444  3
   1241   1239   1246   1247     1  0.0000000  0.6508444  3
   1241   1244   1245   1250     1  180.0000771  0.0000000  2
   1241   1244   1245   2047     1  0.0000000  0.2928800  2
   1241   1244   1245   2047     1  0.0000000  0.4184000  4
   1242   1240   1239   1246     1  0.0000000  0.6508444  3
   1242   1243   2035   2037     1  180.0000771  6.2760000  1
   1242   1243   2035   2037     1  0.0000000  0.0000000  2
   1243   2035   2037   2038     1  0.0000000  2.2175200  1
   1243   2035   2037   2038     1  0.0000000  0.0000000  2
   1243   2035   2037   2038     1  180.0000771  0.6276000  3
   1243   2035   2037   2038     1  180.0000771  2.0920000  4
   1244   1241   1239   1246     1  0.0000000  0.6508444  3
   1244   1245   2047   2049     1  180.0000771  6.2760000  1
   1244   1245   2047   2049     1  0.0000000  0.0000000  2
   1245   2047   2049   2050     1  0.0000000  2.2175200  1
   1245   2047   2049   2050     1  0.0000000  0.0000000  2
   1245   2047   2049   2050     1  180.0000771  0.6276000  3
   1245   2047   2049   2050     1  180.0000771  2.0920000  4
   1249   1243   2035   2037     1  180.0000771  10.4600000  2
   1250   1245   2047   2049     1  180.0000771  10.4600000  2
   1265   1266   1268   1269     1  0.0000000  0.6508444  3
   1265   1267   1270   1271     1  0.0000000  0.6508444  3
   1265   1272   1273   1274     1  0.0000000  0.6508444  3
   1266   1265   1267   1270     1  0.0000000  0.6508444  3
   1266   1265   1272   1273     1  0.0000000  0.6508444  3
   1266   1268   1269   2059     1  0.0000000  0.2928800  2
   1266   1268   1269   2059     1  0.0000000  0.4184000  4
   1266   1268   1269   1275     1  180.0000771  0.0000000  2
   1267   1265   1266   1268     1  0.0000000  0.6508444  3
   1267   1265   1272   1273     1  0.0000000  0.6508444  3
   1267   1270   1271   1276     1  180.0000771  0.0000000  2
   1267   1270   1271   2071     1  0.0000000  0.2928800  2
   1267   1270   1271   2071     1  0.0000000  0.4184000  4
   1268   1266   1265   1272     1  0.0000000  0.6508444  3
   1268   1269   2059   2061     1  180.0000771  6.2760000  1
   1268   1269   2059   2061     1  0.0000000  0.0000000  2
   1269   2059   2061   2062     1  0.0000000  2.2175200  1
   1269   2059   2061   2062     1  0.0000000  0.0000000  2
   1269   2059   2061   2062     1  180.0000771  0.6276000  3
   1269   2059   2061   2062     1  180.0000771  2.0920000  4
   1270   1267   1265   1272     1  0.0000000  0.6508444  3
   1270   1271   2071   2073     1  180.0000771  6.2760000  1
   1270   1271   2071   2073     1  0.0000000  0.0000000  2
   1271   2071   2073   2074     1  0.0000000  2.2175200  1
   1271   2071   2073   2074     1  0.0000000  0.0000000  2
   1271   2071   2073   2074     1  180.0000771  0.6276000  3
   1271   2071   2073   2074     1  180.0000771  2.0920000  4
   1275   1269   2059   2061     1  180.0000771  10.4600000  2
   1276   1271   2071   2073     1  180.0000771  10.4600000  2
   1291   1292   1294   1295     1  0.0000000  0.6508444  3
   1291   1293   1296   1297     1  0.0000000  0.6508444  3
   1291   1298   1299   1300     1  0.0000000  0.6508444  3
   1292   1291   1293   1296     1  0.0000000  0.6508444  3
   1292   1291   1298   1299     1  0.0000000  0.6508444  3
   1292   1294   1295   2083     1  0.0000000  0.2928800  2
   1292   1294   1295   2083     1  0.0000000  0.4184000  4
   1292   1294   1295   1301     1  180.0000771  0.0000000  2
   1293   1291   1292   1294     1  0.0000000  0.6508444  3
   1293   1291   1298   1299     1  0.0000000  0.6508444  3
   1293   1296   1297   1302     1  180.0000771  0.0000000  2
   1293   1296   1297   2095     1  0.0000000  0.2928800  2
   1293   1296   1297   2095     1  0.0000000  0.4184000  4
   1294   1292   1291   1298     1  0.0000000  0.6508444  3
   1294   1295   2083   2085     1  180.0000771  6.2760000  1
   1294   1295   2083   2085     1  0.0000000  0.0000000  2
   1295   2083   2085   2086     1  0.0000000  2.2175200  1
   1295   2083   2085   2086     1  0.0000000  0.0000000  2
   1295   2083   2085   2086     1  180.0000771  0.6276000  3
   1295   2083   2085   2086     1  180.0000771  2.0920000  4
   1296   1293   1291   1298     1  0.0000000  0.6508444  3
   1296   1297   2095   2097     1  180.0000771  6.2760000  1
   1296   1297   2095   2097     1  0.0000000  0.0000000  2
   1297   2095   2097   2098     1  0.0000000  2.2175200  1
   1297   2095   2097   2098     1  0.0000000  0.0000000  2
   1297   2095   2097   2098     1  180.0000771  0.6276000  3
   1297   2095   2097   2098     1  180.0000771  2.0920000  4
   1301   1295   2083   2085     1  180.0000771  10.4600000  2
   1302   1297   2095   2097     1  180.0000771  10.4600000  2
   1317   1318   1320   1321     1  0.0000000  0.6508444  3
   1317   1319   1322   1323     1  0.0000000  0.6508444  3
   1317   1324   1325   1326     1  0.0000000  0.6508444  3
   1318   1317   1319   1322     1  0.0000000  0.6508444  3
   1318   1317   1324   1325     1  0.0000000  0.6508444  3
   1318   1320   1321   2107     1  0.0000000  0.2928800  2
   1318   1320   1321   2107     1  0.0000000  0.4184000  4
   1318   1320   1321   1327     1  180.0000771  0.0000000  2
   1319   1317   1318   1320     1  0.0000000  0.6508444  3
   1319   1317   1324   1325     1  0.0000000  0.6508444  3
   1319   1322   1323   1328     1  180.0000771  0.0000000  2
   1319   1322   1323   2119     1  0.0000000  0.2928800  2
   1319   1322   1323   2119     1  0.0000000  0.4184000  4
   1320   1318   1317   1324     1  0.0000000  0.6508444  3
   1320   1321   2107   2109     1  180.0000771  6.2760000  1
   1320   1321   2107   2109     1  0.0000000  0.0000000  2
   1321   2107   2109   2110     1  0.0000000  2.2175200  1
   1321   2107   2109   2110     1  0.0000000  0.0000000  2
   1321   2107   2109   2110     1  180.0000771  0.6276000  3
   1321   2107   2109   2110     1  180.0000771  2.0920000  4
   1322   1319   1317   1324     1  0.0000000  0.6508444  3
   1322   1323   2119   2121     1  180.0000771  6.2760000  1
   1322   1323   2119   2121     1  0.0000000  0.0000000  2
   1323   2119   2121   2122     1  0.0000000  2.2175200  1
   1323   2119   2121   2122     1  0.0000000  0.0000000  2
   1323   2119   2121   2122     1  180.0000771  0.6276000  3
   1323   2119   2121   2122     1  180.0000771  2.0920000  4
   1327   1321   2107   2109     1  180.0000771  10.4600000  2
   1328   1323   2119   2121     1  180.0000771  10.4600000  2
   1343   1344   1346   1347     1  0.0000000  0.6508444  3
   1343   1345   1348   1349     1  0.0000000  0.6508444  3
   1343   1350   1351   1352     1  0.0000000  0.6508444  3
   1344   1343   1345   1348     1  0.0000000  0.6508444  3
   1344   1343   1350   1351     1  0.0000000  0.6508444  3
   1344   1346   1347   2131     1  0.0000000  0.2928800  2
   1344   1346   1347   2131     1  0.0000000  0.4184000  4
   1344   1346   1347   1353     1  180.0000771  0.0000000  2
   1345   1343   1344   1346     1  0.0000000  0.6508444  3
   1345   1343   1350   1351     1  0.0000000  0.6508444  3
   1345   1348   1349   1354     1  180.0000771  0.0000000  2
   1345   1348   1349   2143     1  0.0000000  0.2928800  2
   1345   1348   1349   2143     1  0.0000000  0.4184000  4
   1346   1344   1343   1350     1  0.0000000  0.6508444  3
   1346   1347   2131   2133     1  180.0000771  6.2760000  1
   1346   1347   2131   2133     1  0.0000000  0.0000000  2
   1347   2131   2133   2134     1  0.0000000  2.2175200  1
   1347   2131   2133   2134     1  0.0000000  0.0000000  2
   1347   2131   2133   2134     1  180.0000771  0.6276000  3
   1347   2131   2133   2134     1  180.0000771  2.0920000  4
   1348   1345   1343   1350     1  0.0000000  0.6508444  3
   1348   1349   2143   2145     1  180.0000771  6.2760000  1
   1348   1349   2143   2145     1  0.0000000  0.0000000  2
   1349   2143   2145   2146     1  0.0000000  2.2175200  1
   1349   2143   2145   2146     1  0.0000000  0.0000000  2
   1349   2143   2145   2146     1  180.0000771  0.6276000  3
   1349   2143   2145   2146     1  180.0000771  2.0920000  4
   1353   1347   2131   2133     1  180.0000771  10.4600000  2
   1354   1349   2143   2145     1  180.0000771  10.4600000  2
   1369   1370   1372   1373     1  0.0000000  0.6508444  3
   1369   1371   1374   1375     1  0.0000000  0.6508444  3
   1369   1376   1377   1378     1  0.0000000  0.6508444  3
   1370   1369   1371   1374     1  0.0000000  0.6508444  3
   1370   1369   1376   1377     1  0.0000000  0.6508444  3
   1370   1372   1373   2155     1  0.0000000  0.2928800  2
   1370   1372   1373   2155     1  0.0000000  0.4184000  4
   1370   1372   1373   1379     1  180.0000771  0.0000000  2
   1371   1369   1370   1372     1  0.0000000  0.6508444  3
   1371   1369   1376   1377     1  0.0000000  0.6508444  3
   1371   1374   1375   1380     1  180.0000771  0.0000000  2
   1371   1374   1375   2167     1  0.0000000  0.2928800  2
   1371   1374   1375   2167     1  0.0000000  0.4184000  4
   1372   1370   1369   1376     1  0.0000000  0.6508444  3
   1372   1373   2155   2157     1  180.0000771  6.2760000  1
   1372   1373   2155   2157     1  0.0000000  0.0000000  2
   1373   2155   2157   2158     1  0.0000000  2.2175200  1
   1373   2155   2157   2158     1  0.0000000  0.0000000  2
   1373   2155   2157   2158     1  180.0000771  0.6276000  3
   1373   2155   2157   2158     1  180.0000771  2.0920000  4
   1374   1371   1369   1376     1  0.0000000  0.6508444  3
   1374   1375   2167   2169     1  180.0000771  6.2760000  1
   1374   1375   2167   2169     1  0.0000000  0.0000000  2
   1375   2167   2169   2170     1  0.0000000  2.2175200  1
   1375   2167   2169   2170     1  0.0000000  0.0000000  2
   1375   2167   2169   2170     1  180.0000771  0.6276000  3
   1375   2167   2169   2170     1  180.0000771  2.0920000  4
   1379   1373   2155   2157     1  180.0000771  10.4600000  2
   1380   1375   2167   2169     1  180.0000771  10.4600000  2
   1395   1396   1398   1399     1  0.0000000  0.6508444  3
   1395   1397   1400   1401     1  0.0000000  0.6508444  3
   1395   1402   1403   1404     1  0.0000000  0.6508444  3
   1396   1395   1397   1400     1  0.0000000  0.6508444  3
   1396   1395   1402   1403     1  0.0000000  0.6508444  3
   1396   1398   1399   2179     1  0.0000000  0.2928800  2
   1396   1398   1399   2179     1  0.0000000  0.4184000  4
   1396   1398   1399   1405     1  180.0000771  0.0000000  2
   1397   1395   1396   1398     1  0.0000000  0.6508444  3
   1397   1395   1402   1403     1  0.0000000  0.6508444  3
   1397   1400   1401   1406     1  180.0000771  0.0000000  2
   1397   1400   1401   2191     1  0.0000000  0.2928800  2
   1397   1400   1401   2191     1  0.0000000  0.4184000  4
   1398   1396   1395   1402     1  0.0000000  0.6508444  3
   1398   1399   2179   2181     1  180.0000771  6.2760000  1
   1398   1399   2179   2181     1  0.0000000  0.0000000  2
   1399   2179   2181   2182     1  0.0000000  2.2175200  1
   1399   2179   2181   2182     1  0.0000000  0.0000000  2
   1399   2179   2181   2182     1  180.0000771  0.6276000  3
   1399   2179   2181   2182     1  180.0000771  2.0920000  4
   1400   1397   1395   1402     1  0.0000000  0.6508444  3
   1400   1401   2191   2193     1  180.0000771  6.2760000  1
   1400   1401   2191   2193     1  0.0000000  0.0000000  2
   1401   2191   2193   2194     1  0.0000000  2.2175200  1
   1401   2191   2193   2194     1  0.0000000  0.0000000  2
   1401   2191   2193   2194     1  180.0000771  0.6276000  3
   1401   2191   2193   2194     1  180.0000771  2.0920000  4
   1405   1399   2179   2181     1  180.0000771  10.4600000  2
   1406   1401   2191   2193     1  180.0000771  10.4600000  2
   1421   1422   1424   1425     1  0.0000000  0.6508444  3
   1421   1423   1426   1427     1  0.0000000  0.6508444  3
   1421   1428   1429   1430     1  0.0000000  0.6508444  3
   1422   1421   1423   1426     1  0.0000000  0.6508444  3
   1422   1421   1428   1429     1  0.0000000  0.6508444  3
   1422   1424   1425   2203     1  0.0000000  0.2928800  2
   1422   1424   1425   2203     1  0.0000000  0.4184000  4
   1422   1424   1425   1431     1  180.0000771  0.0000000  2
   1423   1421   1422   1424     1  0.0000000  0.6508444  3
   1423   1421   1428   1429     1  0.0000000  0.6508444  3
   1423   1426   1427   1432     1  180.0000771  0.0000000  2
   1423   1426   1427   2215     1  0.0000000  0.2928800  2
   1423   1426   1427   2215     1  0.0000000  0.4184000  4
   1424   1422   1421   1428     1  0.0000000  0.6508444  3
   1424   1425   2203   2205     1  180.0000771  6.2760000  1
   1424   1425   2203   2205     1  0.0000000  0.0000000  2
   1425   2203   2205   2206     1  0.0000000  2.2175200  1
   1425   2203   2205   2206     1  0.0000000  0.0000000  2
   1425   2203   2205   2206     1  180.0000771  0.6276000  3
   1425   2203   2205   2206     1  180.0000771  2.0920000  4
   1426   1423   1421   1428     1  0.0000000  0.6508444  3
   1426   1427   2215   2217     1  180.0000771  6.2760000  1
   1426   1427   2215   2217     1  0.0000000  0.0000000  2
   1427   2215   2217   2218     1  0.0000000  2.2175200  1
   1427   2215   2217   2218     1  0.0000000  0.0000000  2
   1427   2215   2217   2218     1  180.0000771  0.6276000  3
   1427   2215   2217   2218     1  180.0000771  2.0920000  4
   1431   1425   2203   2205     1  180.0000771  10.4600000  2
   1432   1427   2215   2217     1  180.0000771  10.4600000  2
   1447   1448   1450   1451     1  0.0000000  0.6508444  3
   1447   1449   1452   1453     1  0.0000000  0.6508444  3
   1447   1454   1455   1456     1  0.0000000  0.6508444  3
   1448   1447   1449   1452     1  0.0000000  0.6508444  3
   1448   1447   1454   1455     1  0.0000000  0.6508444  3
   1448   1450   1451   2227     1  0.0000000  0.2928800  2
   1448   1450   1451   2227     1  0.0000000  0.4184000  4
   1448   1450   1451   1457     1  180.0000771  0.0000000  2
   1449   1447   1448   1450     1  0.0000000  0.6508444  3
   1449   1447   1454   1455     1  0.0000000  0.6508444  3
   1449   1452   1453   1458     1  180.0000771  0.0000000  2
   1449   1452   1453   2239     1  0.0000000  0.2928800  2
   1449   1452   1453   2239     1  0.0000000  0.4184000  4
   1450   1448   1447   1454     1  0.0000000  0.6508444  3
   1450   1451   2227   2229     1  180.0000771  6.2760000  1
   1450   1451   2227   2229     1  0.0000000  0.0000000  2
   1451   2227   2229   2230     1  0.0000000  2.2175200  1
   1451   2227   2229   2230     1  0.0000000  0.0000000  2
   1451   2227   2229   2230     1  180.0000771  0.6276000  3
   1451   2227   2229   2230     1  180.0000771  2.0920000  4
   1452   1449   1447   1454     1  0.0000000  0.6508444  3
   1452   1453   2239   2241     1  180.0000771  6.2760000  1
   1452   1453   2239   2241     1  0.0000000  0.0000000  2
   1453   2239   2241   2242     1  0.0000000  2.2175200  1
   1453   2239   2241   2242     1  0.0000000  0.0000000  2
   1453   2239   2241   2242     1  180.0000771  0.6276000  3
   1453   2239   2241   2242     1  180.0000771  2.0920000  4
   1457   1451   2227   2229     1  180.0000771  10.4600000  2
   1458   1453   2239   2241     1  180.0000771  10.4600000  2
   1473   1474   1476   1477     1  0.0000000  0.6508444  3
   1473   1475   1478   1479     1  0.0000000  0.6508444  3
   1473   1480   1481   1482     1  0.0000000  0.6508444  3
   1474   1473   1475   1478     1  0.0000000  0.6508444  3
   1474   1473   1480   1481     1  0.0000000  0.6508444  3
   1474   1476   1477   2251     1  0.0000000  0.2928800  2
   1474   1476   1477   2251     1  0.0000000  0.4184000  4
   1474   1476   1477   1483     1  180.0000771  0.0000000  2
   1475   1473   1474   1476     1  0.0000000  0.6508444  3
   1475   1473   1480   1481     1  0.0000000  0.6508444  3
   1475   1478   1479   1484     1  180.0000771  0.0000000  2
   1475   1478   1479   2263     1  0.0000000  0.2928800  2
   1475   1478   1479   2263     1  0.0000000  0.4184000  4
   1476   1474   1473   1480     1  0.0000000  0.6508444  3
   1476   1477   2251   2253     1  180.0000771  6.2760000  1
   1476   1477   2251   2253     1  0.0000000  0.0000000  2
   1477   2251   2253   2254     1  0.0000000  2.2175200  1
   1477   2251   2253   2254     1  0.0000000  0.0000000  2
   1477   2251   2253   2254     1  180.0000771  0.6276000  3
   1477   2251   2253   2254     1  180.0000771  2.0920000  4
   1478   1475   1473   1480     1  0.0000000  0.6508444  3
   1478   1479   2263   2265     1  180.0000771  6.2760000  1
   1478   1479   2263   2265     1  0.0000000  0.0000000  2
   1479   2263   2265   2266     1  0.0000000  2.2175200  1
   1479   2263   2265   2266     1  0.0000000  0.0000000  2
   1479   2263   2265   2266     1  180.0000771  0.6276000  3
   1479   2263   2265   2266     1  180.0000771  2.0920000  4
   1483   1477   2251   2253     1  180.0000771  10.4600000  2
   1484   1479   2263   2265     1  180.0000771  10.4600000  2
   1499   1500   1502   1503     1  0.0000000  0.6508444  3
   1499   1501   1504   1505     1  0.0000000  0.6508444  3
   1499   1506   1507   1508     1  0.0000000  0.6508444  3
   1500   1499   1501   1504     1  0.0000000  0.6508444  3
   1500   1499   1506   1507     1  0.0000000  0.6508444  3
   1500   1502   1503   2275     1  0.0000000  0.2928800  2
   1500   1502   1503   2275     1  0.0000000  0.4184000  4
   1500   1502   1503   1509     1  180.0000771  0.0000000  2
   1501   1499   1500   1502     1  0.0000000  0.6508444  3
   1501   1499   1506   1507     1  0.0000000  0.6508444  3
   1501   1504   1505   1510     1  180.0000771  0.0000000  2
   1501   1504   1505   2287     1  0.0000000  0.2928800  2
   1501   1504   1505   2287     1  0.0000000  0.4184000  4
   1502   1500   1499   1506     1  0.0000000  0.6508444  3
   1502   1503   2275   2277     1  180.0000771  6.2760000  1
   1502   1503   2275   2277     1  0.0000000  0.0000000  2
   1503   2275   2277   2278     1  0.0000000  2.2175200  1
   1503   2275   2277   2278     1  0.0000000  0.0000000  2
   1503   2275   2277   2278     1  180.0000771  0.6276000  3
   1503   2275   2277   2278     1  180.0000771  2.0920000  4
   1504   1501   1499   1506     1  0.0000000  0.6508444  3
   1504   1505   2287   2289     1  180.0000771  6.2760000  1
   1504   1505   2287   2289     1  0.0000000  0.0000000  2
   1505   2287   2289   2290     1  0.0000000  2.2175200  1
   1505   2287   2289   2290     1  0.0000000  0.0000000  2
   1505   2287   2289   2290     1  180.0000771  0.6276000  3
   1505   2287   2289   2290     1  180.0000771  2.0920000  4
   1509   1503   2275   2277     1  180.0000771  10.4600000  2
   1510   1505   2287   2289     1  180.0000771  10.4600000  2
   1525   1526   1528   1529     1  0.0000000  0.6508444  3
   1525   1527   1530   1531     1  0.0000000  0.6508444  3
   1525   1532   1533   1534     1  0.0000000  0.6508444  3
   1526   1525   1527   1530     1  0.0000000  0.6508444  3
   1526   1525   1532   1533     1  0.0000000  0.6508444  3
   1526   1528   1529   2299     1  0.0000000  0.2928800  2
   1526   1528   1529   2299     1  0.0000000  0.4184000  4
   1526   1528   1529   1535     1  180.0000771  0.0000000  2
   1527   1525   1526   1528     1  0.0000000  0.6508444  3
   1527   1525   1532   1533     1  0.0000000  0.6508444  3
   1527   1530   1531   1536     1  180.0000771  0.0000000  2
   1527   1530   1531   2311     1  0.0000000  0.2928800  2
   1527   1530   1531   2311     1  0.0000000  0.4184000  4
   1528   1526   1525   1532     1  0.0000000  0.6508444  3
   1528   1529   2299   2301     1  180.0000771  6.2760000  1
   1528   1529   2299   2301     1  0.0000000  0.0000000  2
   1529   2299   2301   2302     1  0.0000000  2.2175200  1
   1529   2299   2301   2302     1  0.0000000  0.0000000  2
   1529   2299   2301   2302     1  180.0000771  0.6276000  3
   1529   2299   2301   2302     1  180.0000771  2.0920000  4
   1530   1527   1525   1532     1  0.0000000  0.6508444  3
   1530   1531   2311   2313     1  180.0000771  6.2760000  1
   1530   1531   2311   2313     1  0.0000000  0.0000000  2
   1531   2311   2313   2314     1  0.0000000  2.2175200  1
   1531   2311   2313   2314     1  0.0000000  0.0000000  2
   1531   2311   2313   2314     1  180.0000771  0.6276000  3
   1531   2311   2313   2314     1  180.0000771  2.0920000  4
   1535   1529   2299   2301     1  180.0000771  10.4600000  2
   1536   1531   2311   2313     1  180.0000771  10.4600000  2
   1551   1552   1554   1555     1  0.0000000  0.6508444  3
   1551   1553   1556   1557     1  0.0000000  0.6508444  3
   1551   1558   1559   1560     1  0.0000000  0.6508444  3
   1552   1551   1553   1556     1  0.0000000  0.6508444  3
   1552   1551   1558   1559     1  0.0000000  0.6508444  3
   1552   1554   1555   2323     1  0.0000000  0.2928800  2
   1552   1554   1555   2323     1  0.0000000  0.4184000  4
   1552   1554   1555   1561     1  180.0000771  0.0000000  2
   1553   1551   1552   1554     1  0.0000000  0.6508444  3
   1553   1551   1558   1559     1  0.0000000  0.6508444  3
   1553   1556   1557   1562     1  180.0000771  0.0000000  2
   1553   1556   1557   2335     1  0.0000000  0.2928800  2
   1553   1556   1557   2335     1  0.0000000  0.4184000  4
   1554   1552   1551   1558     1  0.0000000  0.6508444  3
   1554   1555   2323   2325     1  180.0000771  6.2760000  1
   1554   1555   2323   2325     1  0.0000000  0.0000000  2
   1555   2323   2325   2326     1  0.0000000  2.2175200  1
   1555   2323   2325   2326     1  0.0000000  0.0000000  2
   1555   2323   2325   2326     1  180.0000771  0.6276000  3
   1555   2323   2325   2326     1  180.0000771  2.0920000  4
   1556   1553   1551   1558     1  0.0000000  0.6508444  3
   1556   1557   2335   2337     1  180.0000771  6.2760000  1
   1556   1557   2335   2337     1  0.0000000  0.0000000  2
   1557   2335   2337   2338     1  0.0000000  2.2175200  1
   1557   2335   2337   2338     1  0.0000000  0.0000000  2
   1557   2335   2337   2338     1  180.0000771  0.6276000  3
   1557   2335   2337   2338     1  180.0000771  2.0920000  4
   1561   1555   2323   2325     1  180.0000771  10.4600000  2
   1562   1557   2335   2337     1  180.0000771  10.4600000  2
   1577   1578   1580   1581     1  0.0000000  0.6508444  3
   1577   1579   1582   1583     1  0.0000000  0.6508444  3
   1577   1584   1585   1586     1  0.0000000  0.6508444  3
   1578   1577   1579   1582     1  0.0000000  0.6508444  3
   1578   1577   1584   1585     1  0.0000000  0.6508444  3
   1578   1580   1581   2347     1  0.0000000  0.2928800  2
   1578   1580   1581   2347     1  0.0000000  0.4184000  4
   1578   1580   1581   1587     1  180.0000771  0.0000000  2
   1579   1577   1578   1580     1  0.0000000  0.6508444  3
   1579   1577   1584   1585     1  0.0000000  0.6508444  3
   1579   1582   1583   2359     1  0.0000000  0.2928800  2
   1579   1582   1583   2359     1  0.0000000  0.4184000  4
   1579   1582   1583   1588     1  180.0000771  0.0000000  2
   1580   1578   1577   1584     1  0.0000000  0.6508444  3
   1580   1581   2347   2349     1  180.0000771  6.2760000  1
   1580   1581   2347   2349     1  0.0000000  0.0000000  2
   1581   2347   2349   2350     1  0.0000000  2.2175200  1
   1581   2347   2349   2350     1  0.0000000  0.0000000  2
   1581   2347   2349   2350     1  180.0000771  0.6276000  3
   1581   2347   2349   2350     1  180.0000771  2.0920000  4
   1582   1579   1577   1584     1  0.0000000  0.6508444  3
   1582   1583   2359   2361     1  180.0000771  6.2760000  1
   1582   1583   2359   2361     1  0.0000000  0.0000000  2
   1583   2359   2361   2362     1  0.0000000  2.2175200  1
   1583   2359   2361   2362     1  0.0000000  0.0000000  2
   1583   2359   2361   2362     1  180.0000771  0.6276000  3
   1583   2359   2361   2362     1  180.0000771  2.0920000  4
   1587   1581   2347   2349     1  180.0000771  10.4600000  2
   1588   1583   2359   2361     1  180.0000771  10.4600000  2
   1603   1605   1606   1611     1  0.0000000  0.6508444  3
   1615   1617   1618   1623     1  0.0000000  0.6508444  3
   1627   1629   1630   1635     1  0.0000000  0.6508444  3
   1639   1641   1642   1647     1  0.0000000  0.6508444  3
   1651   1653   1654   1659     1  0.0000000  0.6508444  3
   1663   1665   1666   1671     1  0.0000000  0.6508444  3
   1675   1677   1678   1683     1  0.0000000  0.6508444  3
   1687   1689   1690   1695     1  0.0000000  0.6508444  3
   1699   1701   1702   1707     1  0.0000000  0.6508444  3
   1711   1713   1714   1719     1  0.0000000  0.6508444  3
   1723   1725   1726   1731     1  0.0000000  0.6508444  3
   1735   1737   1738   1743     1  0.0000000  0.6508444  3
   1747   1749   1750   1755     1  0.0000000  0.6508444  3
   1759   1761   1762   1767     1  0.0000000  0.6508444  3
   1771   1773   1774   1779     1  0.0000000  0.6508444  3
   1783   1785   1786   1791     1  0.0000000  0.6508444  3
   1795   1797   1798   1803     1  0.0000000  0.6508444  3
   1807   1809   1810   1815     1  0.0000000  0.6508444  3
   1819   1821   1822   1827     1  0.0000000  0.6508444  3
   1831   1833   1834   1839     1  0.0000000  0.6508444  3
   1843   1845   1846   1851     1  0.0000000  0.6508444  3
   1855   1857   1858   1863     1  0.0000000  0.6508444  3
   1867   1869   1870   1875     1  0.0000000  0.6508444  3
   1879   1881   1882   1887     1  0.0000000  0.6508444  3
   1891   1893   1894   1899     1  0.0000000  0.6508444  3
   1903   1905   1906   1911     1  0.0000000  0.6508444  3
   1915   1917   1918   1923     1  0.0000000  0.6508444  3
   1927   1929   1930   1935     1  0.0000000  0.6508444  3
   1939   1941   1942   1947     1  0.0000000  0.6508444  3
   1951   1953   1954   1959     1  0.0000000  0.6508444  3
   1963   1965   1966   1971     1  0.0000000  0.6508444  3
   1975   1977   1978   1983     1  0.0000000  0.6508444  3
   1987   1989   1990   1995     1  0.0000000  0.6508444  3
   1999   2001   2002   2007     1  0.0000000  0.6508444  3
   2011   2013   2014   2019     1  0.0000000  0.6508444  3
   2023   2025   2026   2031     1  0.0000000  0.6508444  3
   2035   2037   2038   2043     1  0.0000000  0.6508444  3
   2047   2049   2050   2055     1  0.0000000  0.6508444  3
   2059   2061   2062   2067     1  0.0000000  0.6508444  3
   2071   2073   2074   2079     1  0.0000000  0.6508444  3
   2083   2085   2086   2091     1  0.0000000  0.6508444  3
   2095   2097   2098   2103     1  0.0000000  0.6508444  3
   2107   2109   2110   2115     1  0.0000000  0.6508444  3
   2119   2121   2122   2127     1  0.0000000  0.6508444  3
   2131   2133   2134   2139     1  0.0000000  0.6508444  3
   2143   2145   2146   2151     1  0.0000000  0.6508444  3
   2155   2157   2158   2163     1  0.0000000  0.6508444  3
   2167   2169   2170   2175     1  0.0000000  0.6508444  3
   2179   2181   2182   2187     1  0.0000000  0.6508444  3
   2191   2193   2194   2199     1  0.0000000  0.6508444  3
   2203   2205   2206   2211     1  0.0000000  0.6508444  3
   2215   2217   2218   2223     1  0.0000000  0.6508444  3
   2227   2229   2230   2235     1  0.0000000  0.6508444  3
   2239   2241   2242   2247     1  0.0000000  0.6508444  3
   2251   2253   2254   2259     1  0.0000000  0.6508444  3
   2263   2265   2266   2271     1  0.0000000  0.6508444  3
   2275   2277   2278   2283     1  0.0000000  0.6508444  3
   2287   2289   2290   2295     1  0.0000000  0.6508444  3
   2299   2301   2302   2307     1  0.0000000  0.6508444  3
   2311   2313   2314   2319     1  0.0000000  0.6508444  3
   2323   2325   2326   2331     1  0.0000000  0.6508444  3
   2335   2337   2338   2343     1  0.0000000  0.6508444  3
   2347   2349   2350   2355     1  0.0000000  0.6508444  3
   2359   2361   2362   2367     1  0.0000000  0.6508444  3
      9     52     10     18     4  180.0000771  43.9320000  2
     11     78     12     17     4  180.0000771  43.9320000  2
     13    104     14     20     4  180.0000771  43.9320000  2
     15    130     16     19     4  180.0000771  43.9320000  2
     46    156     47     53     4  180.0000771  43.9320000  2
     48    182     49     54     4  180.0000771  43.9320000  2
     72    208     73     79     4  180.0000771  43.9320000  2
     74    234     75     80     4  180.0000771  43.9320000  2
     98    260     99    105     4  180.0000771  43.9320000  2
    100    286    101    106     4  180.0000771  43.9320000  2
    124    312    125    131     4  180.0000771  43.9320000  2
    126    338    127    132     4  180.0000771  43.9320000  2
    150    364    151    157     4  180.0000771  43.9320000  2
    152    390    153    158     4  180.0000771  43.9320000  2
    176    416    177    183     4  180.0000771  43.9320000  2
    178    442    179    184     4  180.0000771  43.9320000  2
    202    468    203    209     4  180.0000771  43.9320000  2
    204    494    205    210     4  180.0000771  43.9320000  2
    228    520    229    235     4  180.0000771  43.9320000  2
    230    546    231    236     4  180.0000771  43.9320000  2
    254    572    255    261     4  180.0000771  43.9320000  2
    256    598    257    262     4  180.0000771  43.9320000  2
    280    624    281    287     4  180.0000771  43.9320000  2
    282    650    283    288     4  180.0000771  43.9320000  2
    306    676    307    313     4  180.0000771  43.9320000  2
    308    702    309    314     4  180.0000771  43.9320000  2
    332    728    333    339     4  180.0000771  43.9320000  2
    334    754    335    340     4  180.0000771  43.9320000  2
    358    780    359    365     4  180.0000771  43.9320000  2
    360    806    361    366     4  180.0000771  43.9320000  2
    384    832    385    391     4  180.0000771  43.9320000  2
    386    858    387    392     4  180.0000771  43.9320000  2
    410    884    411    417     4  180.0000771  43.9320000  2
    412    910    413    418     4  180.0000771  43.9320000  2
    436    936    437    443     4  180.0000771  43.9320000  2
    438    962    439    444     4  180.0000771  43.9320000  2
    462    988    463    469     4  180.0000771  43.9320000  2
    464   1014    465    470     4  180.0000771  43.9320000  2
    488   1040    489    495     4  180.0000771  43.9320000  2
    490   1066    491    496     4  180.0000771  43.9320000  2
    514   1092    515    521     4  180.0000771  43.9320000  2
    516   1118    517    522     4  180.0000771  43.9320000  2
    540   1144    541    547     4  180.0000771  43.9320000  2
    542   1170    543    548     4  180.0000771  43.9320000  2
    566   1196    567    573     4  180.0000771  43.9320000  2
    568   1222    569    574     4  180.0000771  43.9320000  2
    592   1248    593    599     4  180.0000771  43.9320000  2
    594   1274    595    600     4  180.0000771  43.9320000  2
    618   1300    619    625     4  180.0000771  43.9320000  2
    620   1326    621    626     4  180.0000771  43.9320000  2
    644   1352    645    651     4  180.0000771  43.9320000  2
    646   1378    647    652     4  180.0000771  43.9320000  2
    670   1404    671    677     4  180.0000771  43.9320000  2
    672   1430    673    678     4  180.0000771  43.9320000  2
    696   1456    697    703     4  180.0000771  43.9320000  2
    698   1482    699    704     4  180.0000771  43.9320000  2
    722   1508    723    729     4  180.0000771  43.9320000  2
    724   1534    725    730     4  180.0000771  43.9320000  2
    748   1560    749    755     4  180.0000771  43.9320000  2
    750   1586    751    756     4  180.0000771  43.9320000  2
    774   1603    775    781     4  180.0000771  43.9320000  2
    776   1615    777    782     4  180.0000771  43.9320000  2
    800   1627    801    807     4  180.0000771  43.9320000  2
    802   1639    803    808     4  180.0000771  43.9320000  2
    826   1651    827    833     4  180.0000771  43.9320000  2
    828   1663    829    834     4  180.0000771  43.9320000  2
    852   1675    853    859     4  180.0000771  43.9320000  2
    854   1687    855    860     4  180.0000771  43.9320000  2
    878   1699    879    885     4  180.0000771  43.9320000  2
    880   1711    881    886     4  180.0000771  43.9320000  2
    904   1723    905    911     4  180.0000771  43.9320000  2
    906   1735    907    912     4  180.0000771  43.9320000  2
    930   1747    931    937     4  180.0000771  43.9320000  2
    932   1759    933    938     4  180.0000771  43.9320000  2
    956   1771    957    963     4  180.0000771  43.9320000  2
    958   1783    959    964     4  180.0000771  43.9320000  2
    982   1795    983    989     4  180.0000771  43.9320000  2
    984   1807    985    990     4  180.0000771  43.9320000  2
   1008   1819   1009   1015     4  180.0000771  43.9320000  2
   1010   1831   1011   1016     4  180.0000771  43.9320000  2
   1034   1843   1035   1041     4  180.0000771  43.9320000  2
   1036   1855   1037   1042     4  180.0000771  43.9320000  2
   1060   1867   1061   1067     4  180.0000771  43.9320000  2
   1062   1879   1063   1068     4  180.0000771  43.9320000  2
   1086   1891   1087   1093     4  180.0000771  43.9320000  2
   1088   1903   1089   1094     4  180.0000771  43.9320000  2
   1112   1915   1113   1119     4  180.0000771  43.9320000  2
   1114   1927   1115   1120     4  180.0000771  43.9320000  2
   1138   1939   1139   1145     4  180.0000771  43.9320000  2
   1140   1951   1141   1146     4  180.0000771  43.9320000  2
   1164   1963   1165   1171     4  180.0000771  43.9320000  2
   1166   1975   1167   1172     4  180.0000771  43.9320000  2
   1190   1987   1191   1197     4  180.0000771  43.9320000  2
   1192   1999   1193   1198     4  180.0000771  43.9320000  2
   1216   2011   1217   1223     4  180.0000771  43.9320000  2
   1218   2023   1219   1224     4  180.0000771  43.9320000  2
   1242   2035   1243   1249     4  180.0000771  43.9320000  2
   1244   2047   1245   1250     4  180.0000771  43.9320000  2
   1268   2059   1269   1275     4  180.0000771  43.9320000  2
   1270   2071   1271   1276     4  180.0000771  43.9320000  2
   1294   2083   1295   1301     4  180.0000771  43.9320000  2
   1296   2095   1297   1302     4  180.0000771  43.9320000  2
   1320   2107   1321   1327     4  180.0000771  43.9320000  2
   1322   2119   1323   1328     4  180.0000771  43.9320000  2
   1346   2131   1347   1353     4  180.0000771  43.9320000  2
   1348   2143   1349   1354     4  180.0000771  43.9320000  2
   1372   2155   1373   1379     4  180.0000771  43.9320000  2
   1374   2167   1375   1380     4  180.0000771  43.9320000  2
   1398   2179   1399   1405     4  180.0000771  43.9320000  2
   1400   2191   1401   1406     4  180.0000771  43.9320000  2
   1424   2203   1425   1431     4  180.0000771  43.9320000  2
   1426   2215   1427   1432     4  180.0000771  43.9320000  2
   1450   2227   1451   1457     4  180.0000771  43.9320000  2
   1452   2239   1453   1458     4  180.0000771  43.9320000  2
   1476   2251   1477   1483     4  180.0000771  43.9320000  2
   1478   2263   1479   1484     4  180.0000771  43.9320000  2
   1502   2275   1503   1509     4  180.0000771  43.9320000  2
   1504   2287   1505   1510     4  180.0000771  43.9320000  2
   1528   2299   1529   1535     4  180.0000771  43.9320000  2
   1530   2311   1531   1536     4  180.0000771  43.9320000  2
   1554   2323   1555   1561     4  180.0000771  43.9320000  2
   1556   2335   1557   1562     4  180.0000771  43.9320000  2
   1580   2347   1581   1587     4  180.0000771  43.9320000  2
   1582   2359   1583   1588     4  180.0000771  43.9320000  2
      1      2      3     23     1  0.0000000  0.6508444  3
      1      2      3     24     1  0.0000000  0.6508444  3
      1      7     13     37     1  0.0000000  0.6508444  3
      1      7     13     38     1  0.0000000  0.6508444  3
      1      8     15     39     1  0.0000000  0.6508444  3
      1      8     15     40     1  0.0000000  0.6508444  3
      2      1      7     29     1  0.0000000  0.6508444  3
      2      1      7     30     1  0.0000000  0.6508444  3
      2      1      8     31     1  0.0000000  0.6508444  3
      2      1      8     32     1  0.0000000  0.6508444  3
      2      3      4     42     1  0.0000000  0.6508444  3
     41      1      2      3     1  0.0000000  0.6508444  3
      3      4      5     25     1  0.0000000  0.6508444  3
      3      4      5     26     1  0.0000000  0.6508444  3
      3      4      6     27     1  0.0000000  0.6508444  3
      3      4      6     28     1  0.0000000  0.6508444  3
      4      3      2     21     1  0.0000000  0.6508444  3
      4      3      2     22     1  0.0000000  0.6508444  3
      4      5     11     35     1  0.0000000  0.6508444  3
      4      5     11     36     1  0.0000000  0.6508444  3
      4      6      9     33     1  0.0000000  0.6508444  3
      4      6      9     34     1  0.0000000  0.6508444  3
      5      4      3     23     1  0.0000000  0.6508444  3
      5      4      3     24     1  0.0000000  0.6508444  3
      5      4      6     27     1  0.0000000  0.6508444  3
      5      4      6     28     1  0.0000000  0.6508444  3
      6      4      3     23     1  0.0000000  0.6508444  3
      6      4      3     24     1  0.0000000  0.6508444  3
      6      4      5     25     1  0.0000000  0.6508444  3
      6      4      5     26     1  0.0000000  0.6508444  3
      7      1      2     21     1  0.0000000  0.6508444  3
      7      1      2     22     1  0.0000000  0.6508444  3
      7      1      8     31     1  0.0000000  0.6508444  3
      7      1      8     32     1  0.0000000  0.6508444  3
      8      1      2     21     1  0.0000000  0.6508444  3
      8      1      2     22     1  0.0000000  0.6508444  3
      8      1      7     29     1  0.0000000  0.6508444  3
      8      1      7     30     1  0.0000000  0.6508444  3
      9      6      4     42     1  0.0000000  0.6508444  3
      9     10     52     67     1  180.0000771  10.4600000  2
     10      9      6     27     1  0.0000000  0.6508444  3
     10      9      6     28     1  0.0000000  0.6508444  3
     10     52     51     65     1  0.0000000  0.0000000  2
     10     52     51     66     1  0.0000000  0.0000000  2
     11      5      4     42     1  0.0000000  0.6508444  3
     11     12     78     93     1  180.0000771  10.4600000  2
     12     11      5     25     1  0.0000000  0.6508444  3
     12     11      5     26     1  0.0000000  0.6508444  3
     12     78     77     91     1  0.0000000  0.0000000  2
     12     78     77     92     1  0.0000000  0.0000000  2
     41      1      7     13     1  0.0000000  0.6508444  3
     13     14    104    119     1  180.0000771  10.4600000  2
     14     13      7     29     1  0.0000000  0.6508444  3
     14     13      7     30     1  0.0000000  0.6508444  3
     14    104    103    117     1  0.0000000  0.0000000  2
     14    104    103    118     1  0.0000000  0.0000000  2
     41      1      8     15     1  0.0000000  0.6508444  3
     15     16    130    145     1  180.0000771  10.4600000  2
     16     15      8     31     1  0.0000000  0.6508444  3
     16     15      8     32     1  0.0000000  0.6508444  3
     16    130    129    143     1  0.0000000  0.0000000  2
     16    130    129    144     1  0.0000000  0.0000000  2
     17     12     11     35     1  0.0000000  3.3472000  1
     17     12     11     35     1  0.0000000  0.0000000  2
     17     12     11     35     1  180.0000771  0.3347200  3
     17     12     11     36     1  0.0000000  3.3472000  1
     17     12     11     36     1  0.0000000  0.0000000  2
     17     12     11     36     1  180.0000771  0.3347200  3
     17     12     78     93     1  0.0000000  8.3680000  1
     17     12     78     93     1  180.0000771  10.4600000  2
     18     10      9     33     1  0.0000000  3.3472000  1
     18     10      9     33     1  0.0000000  0.0000000  2
     18     10      9     33     1  180.0000771  0.3347200  3
     18     10      9     34     1  0.0000000  3.3472000  1
     18     10      9     34     1  0.0000000  0.0000000  2
     18     10      9     34     1  180.0000771  0.3347200  3
     18     10     52     67     1  0.0000000  8.3680000  1
     18     10     52     67     1  180.0000771  10.4600000  2
     19     16     15     39     1  0.0000000  3.3472000  1
     19     16     15     39     1  0.0000000  0.0000000  2
     19     16     15     39     1  180.0000771  0.3347200  3
     19     16     15     40     1  0.0000000  3.3472000  1
     19     16     15     40     1  0.0000000  0.0000000  2
     19     16     15     40     1  180.0000771  0.3347200  3
     19     16    130    145     1  0.0000000  8.3680000  1
     19     16    130    145     1  180.0000771  10.4600000  2
     20     14     13     37     1  0.0000000  3.3472000  1
     20     14     13     37     1  0.0000000  0.0000000  2
     20     14     13     37     1  180.0000771  0.3347200  3
     20     14     13     38     1  0.0000000  3.3472000  1
     20     14     13     38     1  0.0000000  0.0000000  2
     20     14     13     38     1  180.0000771  0.3347200  3
     20     14    104    119     1  0.0000000  8.3680000  1
     20     14    104    119     1  180.0000771  10.4600000  2
     41      1      2     21     1  0.0000000  0.6508444  3
     21      2      3     23     1  0.0000000  0.6508444  3
     21      2      3     24     1  0.0000000  0.6508444  3
     41      1      2     22     1  0.0000000  0.6508444  3
     22      2      3     23     1  0.0000000  0.6508444  3
     22      2      3     24     1  0.0000000  0.6508444  3
     23      3      4     42     1  0.0000000  0.6508444  3
     24      3      4     42     1  0.0000000  0.6508444  3
     25      5      4     42     1  0.0000000  0.6508444  3
     25      5     11     35     1  0.0000000  0.6508444  3
     25      5     11     36     1  0.0000000  0.6508444  3
     26      5      4     42     1  0.0000000  0.6508444  3
     26      5     11     35     1  0.0000000  0.6508444  3
     26      5     11     36     1  0.0000000  0.6508444  3
     27      6      4     42     1  0.0000000  0.6508444  3
     27      6      9     33     1  0.0000000  0.6508444  3
     27      6      9     34     1  0.0000000  0.6508444  3
     28      6      4     42     1  0.0000000  0.6508444  3
     28      6      9     33     1  0.0000000  0.6508444  3
     28      6      9     34     1  0.0000000  0.6508444  3
     41      1      7     29     1  0.0000000  0.6508444  3
     29      7     13     37     1  0.0000000  0.6508444  3
     29      7     13     38     1  0.0000000  0.6508444  3
     41      1      7     30     1  0.0000000  0.6508444  3
     30      7     13     37     1  0.0000000  0.6508444  3
     30      7     13     38     1  0.0000000  0.6508444  3
     41      1      8     31     1  0.0000000  0.6508444  3
     31      8     15     39     1  0.0000000  0.6508444  3
     31      8     15     40     1  0.0000000  0.6508444  3
     41      1      8     32     1  0.0000000  0.6508444  3
     32      8     15     39     1  0.0000000  0.6508444  3
     32      8     15     40     1  0.0000000  0.6508444  3
     33      9     10     52     1  180.0000771  0.0000000  2
     34      9     10     52     1  180.0000771  0.0000000  2
     35     11     12     78     1  180.0000771  0.0000000  2
     36     11     12     78     1  180.0000771  0.0000000  2
     37     13     14    104     1  180.0000771  0.0000000  2
     38     13     14    104     1  180.0000771  0.0000000  2
     39     15     16    130     1  180.0000771  0.0000000  2
     40     15     16    130     1  180.0000771  0.0000000  2
     43     44     46     59     1  0.0000000  0.6508444  3
     43     44     46     60     1  0.0000000  0.6508444  3
     43     45     48     61     1  0.0000000  0.6508444  3
     43     45     48     62     1  0.0000000  0.6508444  3
     43     50     51     65     1  0.0000000  0.6508444  3
     43     50     51     66     1  0.0000000  0.6508444  3
     44     43     45     57     1  0.0000000  0.6508444  3
     44     43     45     58     1  0.0000000  0.6508444  3
     44     43     50     63     1  0.0000000  0.6508444  3
     44     43     50     64     1  0.0000000  0.6508444  3
     45     43     44     55     1  0.0000000  0.6508444  3
     45     43     44     56     1  0.0000000  0.6508444  3
     45     43     50     63     1  0.0000000  0.6508444  3
     45     43     50     64     1  0.0000000  0.6508444  3
     46     44     43     68     1  0.0000000  0.6508444  3
     46     47    156    171     1  180.0000771  10.4600000  2
     47     46     44     55     1  0.0000000  0.6508444  3
     47     46     44     56     1  0.0000000  0.6508444  3
     47    156    155    169     1  0.0000000  0.0000000  2
     47    156    155    170     1  0.0000000  0.0000000  2
     48     45     43     68     1  0.0000000  0.6508444  3
     48     49    182    197     1  180.0000771  10.4600000  2
     49     48     45     57     1  0.0000000  0.6508444  3
     49     48     45     58     1  0.0000000  0.6508444  3
     49    182    181    195     1  0.0000000  0.0000000  2
     49    182    181    196     1  0.0000000  0.0000000  2
     50     43     44     55     1  0.0000000  0.6508444  3
     50     43     44     56     1  0.0000000  0.6508444  3
     50     43     45     57     1  0.0000000  0.6508444  3
     50     43     45     58     1  0.0000000  0.6508444  3
     50     51     52     67     1  0.0000000  0.0000000  2
     51     50     43     68     1  0.0000000  0.6508444  3
     52     51     50     63     1  0.0000000  0.6508444  3
     52     51     50     64     1  0.0000000  0.6508444  3
     53     47     46     59     1  0.0000000  3.3472000  1
     53     47     46     59     1  0.0000000  0.0000000  2
     53     47     46     59     1  180.0000771  0.3347200  3
     53     47     46     60     1  0.0000000  3.3472000  1
     53     47     46     60     1  0.0000000  0.0000000  2
     53     47     46     60     1  180.0000771  0.3347200  3
     53     47    156    171     1  0.0000000  8.3680000  1
     53     47    156    171     1  180.0000771  10.4600000  2
     54     49     48     61     1  0.0000000  3.3472000  1
     54     49     48     61     1  0.0000000  0.0000000  2
     54     49     48     61     1  180.0000771  0.3347200  3
     54     49     48     62     1  0.0000000  3.3472000  1
     54     49     48     62     1  0.0000000  0.0000000  2
     54     49     48     62     1  180.0000771  0.3347200  3
     54     49    182    197     1  0.0000000  8.3680000  1
     54     49    182    197     1  180.0000771  10.4600000  2
     55     44     43     68     1  0.0000000  0.6508444  3
     55     44     46     59     1  0.0000000  0.6508444  3
     55     44     46     60     1  0.0000000  0.6508444  3
     56     44     43     68     1  0.0000000  0.6508444  3
     56     44     46     59     1  0.0000000  0.6508444  3
     56     44     46     60     1  0.0000000  0.6508444  3
     57     45     43     68     1  0.0000000  0.6508444  3
     57     45     48     61     1  0.0000000  0.6508444  3
     57     45     48     62     1  0.0000000  0.6508444  3
     58     45     43     68     1  0.0000000  0.6508444  3
     58     45     48     61     1  0.0000000  0.6508444  3
     58     45     48     62     1  0.0000000  0.6508444  3
     59     46     47    156     1  180.0000771  0.0000000  2
     60     46     47    156     1  180.0000771  0.0000000  2
     61     48     49    182     1  180.0000771  0.0000000  2
     62     48     49    182     1  180.0000771  0.0000000  2
     63     50     43     68     1  0.0000000  0.6508444  3
     63     50     51     65     1  0.0000000  0.6508444  3
     63     50     51     66     1  0.0000000  0.6508444  3
     64     50     43     68     1  0.0000000  0.6508444  3
     64     50     51     65     1  0.0000000  0.6508444  3
     64     50     51     66     1  0.0000000  0.6508444  3
     65     51     52     67     1  0.0000000  0.0000000  2
     66     51     52     67     1  0.0000000  0.0000000  2
     69     70     72     85     1  0.0000000  0.6508444  3
     69     70     72     86     1  0.0000000  0.6508444  3
     69     71     74     87     1  0.0000000  0.6508444  3
     69     71     74     88     1  0.0000000  0.6508444  3
     69     76     77     91     1  0.0000000  0.6508444  3
     69     76     77     92     1  0.0000000  0.6508444  3
     70     69     71     83     1  0.0000000  0.6508444  3
     70     69     71     84     1  0.0000000  0.6508444  3
     70     69     76     89     1  0.0000000  0.6508444  3
     70     69     76     90     1  0.0000000  0.6508444  3
     71     69     70     81     1  0.0000000  0.6508444  3
     71     69     70     82     1  0.0000000  0.6508444  3
     71     69     76     89     1  0.0000000  0.6508444  3
     71     69     76     90     1  0.0000000  0.6508444  3
     72     70     69     94     1  0.0000000  0.6508444  3
     72     73    208    223     1  180.0000771  10.4600000  2
     73     72     70     81     1  0.0000000  0.6508444  3
     73     72     70     82     1  0.0000000  0.6508444  3
     73    208    207    221     1  0.0000000  0.0000000  2
     73    208    207    222     1  0.0000000  0.0000000  2
     74     71     69     94     1  0.0000000  0.6508444  3
     74     75    234    249     1  180.0000771  10.4600000  2
     75     74     71     83     1  0.0000000  0.6508444  3
     75     74     71     84     1  0.0000000  0.6508444  3
     75    234    233    247     1  0.0000000  0.0000000  2
     75    234    233    248     1  0.0000000  0.0000000  2
     76     69     70     81     1  0.0000000  0.6508444  3
     76     69     70     82     1  0.0000000  0.6508444  3
     76     69     71     83     1  0.0000000  0.6508444  3
     76     69     71     84     1  0.0000000  0.6508444  3
     76     77     78     93     1  0.0000000  0.0000000  2
     77     76     69     94     1  0.0000000  0.6508444  3
     78     77     76     89     1  0.0000000  0.6508444  3
     78     77     76     90     1  0.0000000  0.6508444  3
     79     73     72     85     1  0.0000000  3.3472000  1
     79     73     72     85     1  0.0000000  0.0000000  2
     79     73     72     85     1  180.0000771  0.3347200  3
     79     73     72     86     1  0.0000000  3.3472000  1
     79     73     72     86     1  0.0000000  0.0000000  2
     79     73     72     86     1  180.0000771  0.3347200  3
     79     73    208    223     1  0.0000000  8.3680000  1
     79     73    208    223     1  180.0000771  10.4600000  2
     80     75     74     87     1  0.0000000  3.3472000  1
     80     75     74     87     1  0.0000000  0.0000000  2
     80     75     74     87     1  180.0000771  0.3347200  3
     80     75     74     88     1  0.0000000  3.3472000  1
     80     75     74     88     1  0.0000000  0.0000000  2
     80     75     74     88     1  180.0000771  0.3347200  3
     80     75    234    249     1  0.0000000  8.3680000  1
     80     75    234    249     1  180.0000771  10.4600000  2
     81     70     69     94     1  0.0000000  0.6508444  3
     81     70     72     85     1  0.0000000  0.6508444  3
     81     70     72     86     1  0.0000000  0.6508444  3
     82     70     69     94     1  0.0000000  0.6508444  3
     82     70     72     85     1  0.0000000  0.6508444  3
     82     70     72     86     1  0.0000000  0.6508444  3
     83     71     69     94     1  0.0000000  0.6508444  3
     83     71     74     87     1  0.0000000  0.6508444  3
     83     71     74     88     1  0.0000000  0.6508444  3
     84     71     69     94     1  0.0000000  0.6508444  3
     84     71     74     87     1  0.0000000  0.6508444  3
     84     71     74     88     1  0.0000000  0.6508444  3
     85     72     73    208     1  180.0000771  0.0000000  2
     86     72     73    208     1  180.0000771  0.0000000  2
     87     74     75    234     1  180.0000771  0.0000000  2
     88     74     75    234     1  180.0000771  0.0000000  2
     89     76     69     94     1  0.0000000  0.6508444  3
     89     76     77     91     1  0.0000000  0.6508444  3
     89     76     77     92     1  0.0000000  0.6508444  3
     90     76     69     94     1  0.0000000  0.6508444  3
     90     76     77     91     1  0.0000000  0.6508444  3
     90     76     77     92     1  0.0000000  0.6508444  3
     91     77     78     93     1  0.0000000  0.0000000  2
     92     77     78     93     1  0.0000000  0.0000000  2
     95     96     98    111     1  0.0000000  0.6508444  3
     95     96     98    112     1  0.0000000  0.6508444  3
     95     97    100    113     1  0.0000000  0.6508444  3
     95     97    100    114     1  0.0000000  0.6508444  3
     95    102    103    117     1  0.0000000  0.6508444  3
     95    102    103    118     1  0.0000000  0.6508444  3
     96     95     97    109     1  0.0000000  0.6508444  3
     96     95     97    110     1  0.0000000  0.6508444  3
     96     95    102    115     1  0.0000000  0.6508444  3
     96     95    102    116     1  0.0000000  0.6508444  3
     97     95     96    107     1  0.0000000  0.6508444  3
     97     95     96    108     1  0.0000000  0.6508444  3
     97     95    102    115     1  0.0000000  0.6508444  3
     97     95    102    116     1  0.0000000  0.6508444  3
     98     96     95    120     1  0.0000000  0.6508444  3
     98     99    260    275     1  180.0000771  10.4600000  2
     99     98     96    107     1  0.0000000  0.6508444  3
     99     98     96    108     1  0.0000000  0.6508444  3
     99    260    259    273     1  0.0000000  0.0000000  2
     99    260    259    274     1  0.0000000  0.0000000  2
    100     97     95    120     1  0.0000000  0.6508444  3
    100    101    286    301     1  180.0000771  10.4600000  2
    101    100     97    109     1  0.0000000  0.6508444  3
    101    100     97    110     1  0.0000000  0.6508444  3
    101    286    285    299     1  0.0000000  0.0000000  2
    101    286    285    300     1  0.0000000  0.0000000  2
    102     95     96    107     1  0.0000000  0.6508444  3
    102     95     96    108     1  0.0000000  0.6508444  3
    102     95     97    109     1  0.0000000  0.6508444  3
    102     95     97    110     1  0.0000000  0.6508444  3
    102    103    104    119     1  0.0000000  0.0000000  2
    103    102     95    120     1  0.0000000  0.6508444  3
    104    103    102    115     1  0.0000000  0.6508444  3
    104    103    102    116     1  0.0000000  0.6508444  3
    105     99     98    111     1  0.0000000  3.3472000  1
    105     99     98    111     1  0.0000000  0.0000000  2
    105     99     98    111     1  180.0000771  0.3347200  3
    105     99     98    112     1  0.0000000  3.3472000  1
    105     99     98    112     1  0.0000000  0.0000000  2
    105     99     98    112     1  180.0000771  0.3347200  3
    105     99    260    275     1  0.0000000  8.3680000  1
    105     99    260    275     1  180.0000771  10.4600000  2
    106    101    100    113     1  0.0000000  3.3472000  1
    106    101    100    113     1  0.0000000  0.0000000  2
    106    101    100    113     1  180.0000771  0.3347200  3
    106    101    100    114     1  0.0000000  3.3472000  1
    106    101    100    114     1  0.0000000  0.0000000  2
    106    101    100    114     1  180.0000771  0.3347200  3
    106    101    286    301     1  0.0000000  8.3680000  1
    106    101    286    301     1  180.0000771  10.4600000  2
    107     96     95    120     1  0.0000000  0.6508444  3
    107     96     98    111     1  0.0000000  0.6508444  3
    107     96     98    112     1  0.0000000  0.6508444  3
    108     96     95    120     1  0.0000000  0.6508444  3
    108     96     98    111     1  0.0000000  0.6508444  3
    108     96     98    112     1  0.0000000  0.6508444  3
    109     97     95    120     1  0.0000000  0.6508444  3
    109     97    100    113     1  0.0000000  0.6508444  3
    109     97    100    114     1  0.0000000  0.6508444  3
    110     97     95    120     1  0.0000000  0.6508444  3
    110     97    100    113     1  0.0000000  0.6508444  3
    110     97    100    114     1  0.0000000  0.6508444  3
    111     98     99    260     1  180.0000771  0.0000000  2
    112     98     99    260     1  180.0000771  0.0000000  2
    113    100    101    286     1  180.0000771  0.0000000  2
    114    100    101    286     1  180.0000771  0.0000000  2
    115    102     95    120     1  0.0000000  0.6508444  3
    115    102    103    117     1  0.0000000  0.6508444  3
    115    102    103    118     1  0.0000000  0.6508444  3
    116    102     95    120     1  0.0000000  0.6508444  3
    116    102    103    117     1  0.0000000  0.6508444  3
    116    102    103    118     1  0.0000000  0.6508444  3
    117    103    104    119     1  0.0000000  0.0000000  2
    118    103    104    119     1  0.0000000  0.0000000  2
    121    122    124    137     1  0.0000000  0.6508444  3
    121    122    124    138     1  0.0000000  0.6508444  3
    121    123    126    139     1  0.0000000  0.6508444  3
    121    123    126    140     1  0.0000000  0.6508444  3
    121    128    129    143     1  0.0000000  0.6508444  3
    121    128    129    144     1  0.0000000  0.6508444  3
    122    121    123    135     1  0.0000000  0.6508444  3
    122    121    123    136     1  0.0000000  0.6508444  3
    122    121    128    141     1  0.0000000  0.6508444  3
    122    121    128    142     1  0.0000000  0.6508444  3
    123    121    122    133     1  0.0000000  0.6508444  3
    123    121    122    134     1  0.0000000  0.6508444  3
    123    121    128    141     1  0.0000000  0.6508444  3
    123    121    128    142     1  0.0000000  0.6508444  3
    124    122    121    146     1  0.0000000  0.6508444  3
    124    125    312    327     1  180.0000771  10.4600000  2
    125    124    122    133     1  0.0000000  0.6508444  3
    125    124    122    134     1  0.0000000  0.6508444  3
    125    312    311    325     1  0.0000000  0.0000000  2
    125    312    311    326     1  0.0000000  0.0000000  2
    126    123    121    146     1  0.0000000  0.6508444  3
    126    127    338    353     1  180.0000771  10.4600000  2
    127    126    123    135     1  0.0000000  0.6508444  3
    127    126    123    136     1  0.0000000  0.6508444  3
    127    338    337    351     1  0.0000000  0.0000000  2
    127    338    337    352     1  0.0000000  0.0000000  2
    128    121    122    133     1  0.0000000  0.6508444  3
    128    121    122    134     1  0.0000000  0.6508444  3
    128    121    123    135     1  0.0000000  0.6508444  3
    128    121    123    136     1  0.0000000  0.6508444  3
    128    129    130    145     1  0.0000000  0.0000000  2
    129    128    121    146     1  0.0000000  0.6508444  3
    130    129    128    141     1  0.0000000  0.6508444  3
    130    129    128    142     1  0.0000000  0.6508444  3
    131    125    124    137     1  0.0000000  3.3472000  1
    131    125    124    137     1  0.0000000  0.0000000  2
    131    125    124    137     1  180.0000771  0.3347200  3
    131    125    124    138     1  0.0000000  3.3472000  1
    131    125    124    138     1  0.0000000  0.0000000  2
    131    125    124    138     1  180.0000771  0.3347200  3
    131    125    312    327     1  0.0000000  8.3680000  1
    131    125    312    327     1  180.0000771  10.4600000  2
    132    127    126    139     1  0.0000000  3.3472000  1
    132    127    126    139     1  0.0000000  0.0000000  2
    132    127    126    139     1  180.0000771  0.3347200  3
    132    127    126    140     1  0.0000000  3.3472000  1
    132    127    126    140     1  0.0000000  0.0000000  2
    132    127    126    140     1  180.0000771  0.3347200  3
    132    127    338    353     1  0.0000000  8.3680000  1
    132    127    338    353     1  180.0000771  10.4600000  2
    133    122    121    146     1  0.0000000  0.6508444  3
    133    122    124    137     1  0.0000000  0.6508444  3
    133    122    124    138     1  0.0000000  0.6508444  3
    134    122    121    146     1  0.0000000  0.6508444  3
    134    122    124    137     1  0.0000000  0.6508444  3
    134    122    124    138     1  0.0000000  0.6508444  3
    135    123    121    146     1  0.0000000  0.6508444  3
    135    123    126    139     1  0.0000000  0.6508444  3
    135    123    126    140     1  0.0000000  0.6508444  3
    136    123    121    146     1  0.0000000  0.6508444  3
    136    123    126    139     1  0.0000000  0.6508444  3
    136    123    126    140     1  0.0000000  0.6508444  3
    137    124    125    312     1  180.0000771  0.0000000  2
    138    124    125    312     1  180.0000771  0.0000000  2
    139    126    127    338     1  180.0000771  0.0000000  2
    140    126    127    338     1  180.0000771  0.0000000  2
    141    128    121    146     1  0.0000000  0.6508444  3
    141    128    129    143     1  0.0000000  0.6508444  3
    141    128    129    144     1  0.0000000  0.6508444  3
    142    128    121    146     1  0.0000000  0.6508444  3
    142    128    129    143     1  0.0000000  0.6508444  3
    142    128    129    144     1  0.0000000  0.6508444  3
    143    129    130    145     1  0.0000000  0.0000000  2
    144    129    130    145     1  0.0000000  0.0000000  2
    147    148    150    163     1  0.0000000  0.6508444  3
    147    148    150    164     1  0.0000000  0.6508444  3
    147    149    152    165     1  0.0000000  0.6508444  3
    147    149    152    166     1  0.0000000  0.6508444  3
    147    154    155    169     1  0.0000000  0.6508444  3
    147    154    155    170     1  0.0000000  0.6508444  3
    148    147    149    161     1  0.0000000  0.6508444  3
    148    147    149    162     1  0.0000000  0.6508444  3
    148    147    154    167     1  0.0000000  0.6508444  3
    148    147    154    168     1  0.0000000  0.6508444  3
    149    147    148    159     1  0.0000000  0.6508444  3
    149    147    148    160     1  0.0000000  0.6508444  3
    149    147    154    167     1  0.0000000  0.6508444  3
    149    147    154    168     1  0.0000000  0.6508444  3
    150    148    147    172     1  0.0000000  0.6508444  3
    150    151    364    379     1  180.0000771  10.4600000  2
    151    150    148    159     1  0.0000000  0.6508444  3
    151    150    148    160     1  0.0000000  0.6508444  3
    151    364    363    377     1  0.0000000  0.0000000  2
    151    364    363    378     1  0.0000000  0.0000000  2
    152    149    147    172     1  0.0000000  0.6508444  3
    152    153    390    405     1  180.0000771  10.4600000  2
    153    152    149    161     1  0.0000000  0.6508444  3
    153    152    149    162     1  0.0000000  0.6508444  3
    153    390    389    403     1  0.0000000  0.0000000  2
    153    390    389    404     1  0.0000000  0.0000000  2
    154    147    148    159     1  0.0000000  0.6508444  3
    154    147    148    160     1  0.0000000  0.6508444  3
    154    147    149    161     1  0.0000000  0.6508444  3
    154    147    149    162     1  0.0000000  0.6508444  3
    154    155    156    171     1  0.0000000  0.0000000  2
    155    154    147    172     1  0.0000000  0.6508444  3
    156    155    154    167     1  0.0000000  0.6508444  3
    156    155    154    168     1  0.0000000  0.6508444  3
    157    151    150    163     1  0.0000000  3.3472000  1
    157    151    150    163     1  0.0000000  0.0000000  2
    157    151    150    163     1  180.0000771  0.3347200  3
    157    151    150    164     1  0.0000000  3.3472000  1
    157    151    150    164     1  0.0000000  0.0000000  2
    157    151    150    164     1  180.0000771  0.3347200  3
    157    151    364    379     1  0.0000000  8.3680000  1
    157    151    364    379     1  180.0000771  10.4600000  2
    158    153    152    165     1  0.0000000  3.3472000  1
    158    153    152    165     1  0.0000000  0.0000000  2
    158    153    152    165     1  180.0000771  0.3347200  3
    158    153    152    166     1  0.0000000  3.3472000  1
    158    153    152    166     1  0.0000000  0.0000000  2
    158    153    152    166     1  180.0000771  0.3347200  3
    158    153    390    405     1  0.0000000  8.3680000  1
    158    153    390    405     1  180.0000771  10.4600000  2
    159    148    147    172     1  0.0000000  0.6508444  3
    159    148    150    163     1  0.0000000  0.6508444  3
    159    148    150    164     1  0.0000000  0.6508444  3
    160    148    147    172     1  0.0000000  0.6508444  3
    160    148    150    163     1  0.0000000  0.6508444  3
    160    148    150    164     1  0.0000000  0.6508444  3
    161    149    147    172     1  0.0000000  0.6508444  3
    161    149    152    165     1  0.0000000  0.6508444  3
    161    149    152    166     1  0.0000000  0.6508444  3
    162    149    147    172     1  0.0000000  0.6508444  3
    162    149    152    165     1  0.0000000  0.6508444  3
    162    149    152    166     1  0.0000000  0.6508444  3
    163    150    151    364     1  180.0000771  0.0000000  2
    164    150    151    364     1  180.0000771  0.0000000  2
    165    152    153    390     1  180.0000771  0.0000000  2
    166    152    153    390     1  180.0000771  0.0000000  2
    167    154    147    172     1  0.0000000  0.6508444  3
    167    154    155    169     1  0.0000000  0.6508444  3
    167    154    155    170     1  0.0000000  0.6508444  3
    168    154    147    172     1  0.0000000  0.6508444  3
    168    154    155    169     1  0.0000000  0.6508444  3
    168    154    155    170     1  0.0000000  0.6508444  3
    169    155    156    171     1  0.0000000  0.0000000  2
    170    155    156    171     1  0.0000000  0.0000000  2
    173    174    176    189     1  0.0000000  0.6508444  3
    173    174    176    190     1  0.0000000  0.6508444  3
    173    175    178    191     1  0.0000000  0.6508444  3
    173    175    178    192     1  0.0000000  0.6508444  3
    173    180    181    195     1  0.0000000  0.6508444  3
    173    180    181    196     1  0.0000000  0.6508444  3
    174    173    175    187     1  0.0000000  0.6508444  3
    174    173    175    188     1  0.0000000  0.6508444  3
    174    173    180    193     1  0.0000000  0.6508444  3
    174    173    180    194     1  0.0000000  0.6508444  3
    175    173    174    185     1  0.0000000  0.6508444  3
    175    173    174    186     1  0.0000000  0.6508444  3
    175    173    180    193     1  0.0000000  0.6508444  3
    175    173    180    194     1  0.0000000  0.6508444  3
    176    174    173    198     1  0.0000000  0.6508444  3
    176    177    416    431     1  180.0000771  10.4600000  2
    177    176    174    185     1  0.0000000  0.6508444  3
    177    176    174    186     1  0.0000000  0.6508444  3
    177    416    415    429     1  0.0000000  0.0000000  2
    177    416    415    430     1  0.0000000  0.0000000  2
    178    175    173    198     1  0.0000000  0.6508444  3
    178    179    442    457     1  180.0000771  10.4600000  2
    179    178    175    187     1  0.0000000  0.6508444  3
    179    178    175    188     1  0.0000000  0.6508444  3
    179    442    441    455     1  0.0000000  0.0000000  2
    179    442    441    456     1  0.0000000  0.0000000  2
    180    173    174    185     1  0.0000000  0.6508444  3
    180    173    174    186     1  0.0000000  0.6508444  3
    180    173    175    187     1  0.0000000  0.6508444  3
    180    173    175    188     1  0.0000000  0.6508444  3
    180    181    182    197     1  0.0000000  0.0000000  2
    181    180    173    198     1  0.0000000  0.6508444  3
    182    181    180    193     1  0.0000000  0.6508444  3
    182    181    180    194     1  0.0000000  0.6508444  3
    183    177    176    189     1  0.0000000  3.3472000  1
    183    177    176    189     1  0.0000000  0.0000000  2
    183    177    176    189     1  180.0000771  0.3347200  3
    183    177    176    190     1  0.0000000  3.3472000  1
    183    177    176    190     1  0.0000000  0.0000000  2
    183    177    176    190     1  180.0000771  0.3347200  3
    183    177    416    431     1  0.0000000  8.3680000  1
    183    177    416    431     1  180.0000771  10.4600000  2
    184    179    178    191     1  0.0000000  3.3472000  1
    184    179    178    191     1  0.0000000  0.0000000  2
    184    179    178    191     1  180.0000771  0.3347200  3
    184    179    178    192     1  0.0000000  3.3472000  1
    184    179    178    192     1  0.0000000  0.0000000  2
    184    179    178    192     1  180.0000771  0.3347200  3
    184    179    442    457     1  0.0000000  8.3680000  1
    184    179    442    457     1  180.0000771  10.4600000  2
    185    174    173    198     1  0.0000000  0.6508444  3
    185    174    176    189     1  0.0000000  0.6508444  3
    185    174    176    190     1  0.0000000  0.6508444  3
    186    174    173    198     1  0.0000000  0.6508444  3
    186    174    176    189     1  0.0000000  0.6508444  3
    186    174    176    190     1  0.0000000  0.6508444  3
    187    175    173    198     1  0.0000000  0.6508444  3
    187    175    178    191     1  0.0000000  0.6508444  3
    187    175    178    192     1  0.0000000  0.6508444  3
    188    175    173    198     1  0.0000000  0.6508444  3
    188    175    178    191     1  0.0000000  0.6508444  3
    188    175    178    192     1  0.0000000  0.6508444  3
    189    176    177    416     1  180.0000771  0.0000000  2
    190    176    177    416     1  180.0000771  0.0000000  2
    191    178    179    442     1  180.0000771  0.0000000  2
    192    178    179    442     1  180.0000771  0.0000000  2
    193    180    173    198     1  0.0000000  0.6508444  3
    193    180    181    195     1  0.0000000  0.6508444  3
    193    180    181    196     1  0.0000000  0.6508444  3
    194    180    173    198     1  0.0000000  0.6508444  3
    194    180    181    195     1  0.0000000  0.6508444  3
    194    180    181    196     1  0.0000000  0.6508444  3
    195    181    182    197     1  0.0000000  0.0000000  2
    196    181    182    197     1  0.0000000  0.0000000  2
    199    200    202    215     1  0.0000000  0.6508444  3
    199    200    202    216     1  0.0000000  0.6508444  3
    199    201    204    217     1  0.0000000  0.6508444  3
    199    201    204    218     1  0.0000000  0.6508444  3
    199    206    207    221     1  0.0000000  0.6508444  3
    199    206    207    222     1  0.0000000  0.6508444  3
    200    199    201    213     1  0.0000000  0.6508444  3
    200    199    201    214     1  0.0000000  0.6508444  3
    200    199    206    219     1  0.0000000  0.6508444  3
    200    199    206    220     1  0.0000000  0.6508444  3
    201    199    200    211     1  0.0000000  0.6508444  3
    201    199    200    212     1  0.0000000  0.6508444  3
    201    199    206    219     1  0.0000000  0.6508444  3
    201    199    206    220     1  0.0000000  0.6508444  3
    202    200    199    224     1  0.0000000  0.6508444  3
    202    203    468    483     1  180.0000771  10.4600000  2
    203    202    200    211     1  0.0000000  0.6508444  3
    203    202    200    212     1  0.0000000  0.6508444  3
    203    468    467    481     1  0.0000000  0.0000000  2
    203    468    467    482     1  0.0000000  0.0000000  2
    204    201    199    224     1  0.0000000  0.6508444  3
    204    205    494    509     1  180.0000771  10.4600000  2
    205    204    201    213     1  0.0000000  0.6508444  3
    205    204    201    214     1  0.0000000  0.6508444  3
    205    494    493    507     1  0.0000000  0.0000000  2
    205    494    493    508     1  0.0000000  0.0000000  2
    206    199    200    211     1  0.0000000  0.6508444  3
    206    199    200    212     1  0.0000000  0.6508444  3
    206    199    201    213     1  0.0000000  0.6508444  3
    206    199    201    214     1  0.0000000  0.6508444  3
    206    207    208    223     1  0.0000000  0.0000000  2
    207    206    199    224     1  0.0000000  0.6508444  3
    208    207    206    219     1  0.0000000  0.6508444  3
    208    207    206    220     1  0.0000000  0.6508444  3
    209    203    202    215     1  0.0000000  3.3472000  1
    209    203    202    215     1  0.0000000  0.0000000  2
    209    203    202    215     1  180.0000771  0.3347200  3
    209    203    202    216     1  0.0000000  3.3472000  1
    209    203    202    216     1  0.0000000  0.0000000  2
    209    203    202    216     1  180.0000771  0.3347200  3
    209    203    468    483     1  0.0000000  8.3680000  1
    209    203    468    483     1  180.0000771  10.4600000  2
    210    205    204    217     1  0.0000000  3.3472000  1
    210    205    204    217     1  0.0000000  0.0000000  2
    210    205    204    217     1  180.0000771  0.3347200  3
    210    205    204    218     1  0.0000000  3.3472000  1
    210    205    204    218     1  0.0000000  0.0000000  2
    210    205    204    218     1  180.0000771  0.3347200  3
    210    205    494    509     1  0.0000000  8.3680000  1
    210    205    494    509     1  180.0000771  10.4600000  2
    211    200    199    224     1  0.0000000  0.6508444  3
    211    200    202    215     1  0.0000000  0.6508444  3
    211    200    202    216     1  0.0000000  0.6508444  3
    212    200    199    224     1  0.0000000  0.6508444  3
    212    200    202    215     1  0.0000000  0.6508444  3
    212    200    202    216     1  0.0000000  0.6508444  3
    213    201    199    224     1  0.0000000  0.6508444  3
    213    201    204    217     1  0.0000000  0.6508444  3
    213    201    204    218     1  0.0000000  0.6508444  3
    214    201    199    224     1  0.0000000  0.6508444  3
    214    201    204    217     1  0.0000000  0.6508444  3
    214    201    204    218     1  0.0000000  0.6508444  3
    215    202    203    468     1  180.0000771  0.0000000  2
    216    202    203    468     1  180.0000771  0.0000000  2
    217    204    205    494     1  180.0000771  0.0000000  2
    218    204    205    494     1  180.0000771  0.0000000  2
    219    206    199    224     1  0.0000000  0.6508444  3
    219    206    207    221     1  0.0000000  0.6508444  3
    219    206    207    222     1  0.0000000  0.6508444  3
    220    206    199    224     1  0.0000000  0.6508444  3
    220    206    207    221     1  0.0000000  0.6508444  3
    220    206    207    222     1  0.0000000  0.6508444  3
    221    207    208    223     1  0.0000000  0.0000000  2
    222    207    208    223     1  0.0000000  0.0000000  2
    225    226    228    241     1  0.0000000  0.6508444  3
    225    226    228    242     1  0.0000000  0.6508444  3
    225    227    230    243     1  0.0000000  0.6508444  3
    225    227    230    244     1  0.0000000  0.6508444  3
    225    232    233    247     1  0.0000000  0.6508444  3
    225    232    233    248     1  0.0000000  0.6508444  3
    226    225    227    239     1  0.0000000  0.6508444  3
    226    225    227    240     1  0.0000000  0.6508444  3
    226    225    232    245     1  0.0000000  0.6508444  3
    226    225    232    246     1  0.0000000  0.6508444  3
    227    225    226    237     1  0.0000000  0.6508444  3
    227    225    226    238     1  0.0000000  0.6508444  3
    227    225    232    245     1  0.0000000  0.6508444  3
    227    225    232    246     1  0.0000000  0.6508444  3
    228    226    225    250     1  0.0000000  0.6508444  3
    228    229    520    535     1  180.0000771  10.4600000  2
    229    228    226    237     1  0.0000000  0.6508444  3
    229    228    226    238     1  0.0000000  0.6508444  3
    229    520    519    533     1  0.0000000  0.0000000  2
    229    520    519    534     1  0.0000000  0.0000000  2
    230    227    225    250     1  0.0000000  0.6508444  3
    230    231    546    561     1  180.0000771  10.4600000  2
    231    230    227    239     1  0.0000000  0.6508444  3
    231    230    227    240     1  0.0000000  0.6508444  3
    231    546    545    559     1  0.0000000  0.0000000  2
    231    546    545    560     1  0.0000000  0.0000000  2
    232    225    226    237     1  0.0000000  0.6508444  3
    232    225    226    238     1  0.0000000  0.6508444  3
    232    225    227    239     1  0.0000000  0.6508444  3
    232    225    227    240     1  0.0000000  0.6508444  3
    232    233    234    249     1  0.0000000  0.0000000  2
    233    232    225    250     1  0.0000000  0.6508444  3
    234    233    232    245     1  0.0000000  0.6508444  3
    234    233    232    246     1  0.0000000  0.6508444  3
    235    229    228    241     1  0.0000000  3.3472000  1
    235    229    228    241     1  0.0000000  0.0000000  2
    235    229    228    241     1  180.0000771  0.3347200  3
    235    229    228    242     1  0.0000000  3.3472000  1
    235    229    228    242     1  0.0000000  0.0000000  2
    235    229    228    242     1  180.0000771  0.3347200  3
    235    229    520    535     1  0.0000000  8.3680000  1
    235    229    520    535     1  180.0000771  10.4600000  2
    236    231    230    243     1  0.0000000  3.3472000  1
    236    231    230    243     1  0.0000000  0.0000000  2
    236    231    230    243     1  180.0000771  0.3347200  3
    236    231    230    244     1  0.0000000  3.3472000  1
    236    231    230    244     1  0.0000000  0.0000000  2
    236    231    230    244     1  180.0000771  0.3347200  3
    236    231    546    561     1  0.0000000  8.3680000  1
    236    231    546    561     1  180.0000771  10.4600000  2
    237    226    225    250     1  0.0000000  0.6508444  3
    237    226    228    241     1  0.0000000  0.6508444  3
    237    226    228    242     1  0.0000000  0.6508444  3
    238    226    225    250     1  0.0000000  0.6508444  3
    238    226    228    241     1  0.0000000  0.6508444  3
    238    226    228    242     1  0.0000000  0.6508444  3
    239    227    225    250     1  0.0000000  0.6508444  3
    239    227    230    243     1  0.0000000  0.6508444  3
    239    227    230    244     1  0.0000000  0.6508444  3
    240    227    225    250     1  0.0000000  0.6508444  3
    240    227    230    243     1  0.0000000  0.6508444  3
    240    227    230    244     1  0.0000000  0.6508444  3
    241    228    229    520     1  180.0000771  0.0000000  2
    242    228    229    520     1  180.0000771  0.0000000  2
    243    230    231    546     1  180.0000771  0.0000000  2
    244    230    231    546     1  180.0000771  0.0000000  2
    245    232    225    250     1  0.0000000  0.6508444  3
    245    232    233    247     1  0.0000000  0.6508444  3
    245    232    233    248     1  0.0000000  0.6508444  3
    246    232    225    250     1  0.0000000  0.6508444  3
    246    232    233    247     1  0.0000000  0.6508444  3
    246    232    233    248     1  0.0000000  0.6508444  3
    247    233    234    249     1  0.0000000  0.0000000  2
    248    233    234    249     1  0.0000000  0.0000000  2
    251    252    254    267     1  0.0000000  0.6508444  3
    251    252    254    268     1  0.0000000  0.6508444  3
    251    253    256    269     1  0.0000000  0.6508444  3
    251    253    256    270     1  0.0000000  0.6508444  3
    251    258    259    273     1  0.0000000  0.6508444  3
    251    258    259    274     1  0.0000000  0.6508444  3
    252    251    253    265     1  0.0000000  0.6508444  3
    252    251    253    266     1  0.0000000  0.6508444  3
    252    251    258    271     1  0.0000000  0.6508444  3
    252    251    258    272     1  0.0000000  0.6508444  3
    253    251    252    263     1  0.0000000  0.6508444  3
    253    251    252    264     1  0.0000000  0.6508444  3
    253    251    258    271     1  0.0000000  0.6508444  3
    253    251    258    272     1  0.0000000  0.6508444  3
    254    252    251    276     1  0.0000000  0.6508444  3
    254    255    572    587     1  180.0000771  10.4600000  2
    255    254    252    263     1  0.0000000  0.6508444  3
    255    254    252    264     1  0.0000000  0.6508444  3
    255    572    571    585     1  0.0000000  0.0000000  2
    255    572    571    586     1  0.0000000  0.0000000  2
    256    253    251    276     1  0.0000000  0.6508444  3
    256    257    598    613     1  180.0000771  10.4600000  2
    257    256    253    265     1  0.0000000  0.6508444  3
    257    256    253    266     1  0.0000000  0.6508444  3
    257    598    597    611     1  0.0000000  0.0000000  2
    257    598    597    612     1  0.0000000  0.0000000  2
    258    251    252    263     1  0.0000000  0.6508444  3
    258    251    252    264     1  0.0000000  0.6508444  3
    258    251    253    265     1  0.0000000  0.6508444  3
    258    251    253    266     1  0.0000000  0.6508444  3
    258    259    260    275     1  0.0000000  0.0000000  2
    259    258    251    276     1  0.0000000  0.6508444  3
    260    259    258    271     1  0.0000000  0.6508444  3
    260    259    258    272     1  0.0000000  0.6508444  3
    261    255    254    267     1  0.0000000  3.3472000  1
    261    255    254    267     1  0.0000000  0.0000000  2
    261    255    254    267     1  180.0000771  0.3347200  3
    261    255    254    268     1  0.0000000  3.3472000  1
    261    255    254    268     1  0.0000000  0.0000000  2
    261    255    254    268     1  180.0000771  0.3347200  3
    261    255    572    587     1  0.0000000  8.3680000  1
    261    255    572    587     1  180.0000771  10.4600000  2
    262    257    256    269     1  0.0000000  3.3472000  1
    262    257    256    269     1  0.0000000  0.0000000  2
    262    257    256    269     1  180.0000771  0.3347200  3
    262    257    256    270     1  0.0000000  3.3472000  1
    262    257    256    270     1  0.0000000  0.0000000  2
    262    257    256    270     1  180.0000771  0.3347200  3
    262    257    598    613     1  0.0000000  8.3680000  1
    262    257    598    613     1  180.0000771  10.4600000  2
    263    252    251    276     1  0.0000000  0.6508444  3
    263    252    254    267     1  0.0000000  0.6508444  3
    263    252    254    268     1  0.0000000  0.6508444  3
    264    252    251    276     1  0.0000000  0.6508444  3
    264    252    254    267     1  0.0000000  0.6508444  3
    264    252    254    268     1  0.0000000  0.6508444  3
    265    253    251    276     1  0.0000000  0.6508444  3
    265    253    256    269     1  0.0000000  0.6508444  3
    265    253    256    270     1  0.0000000  0.6508444  3
    266    253    251    276     1  0.0000000  0.6508444  3
    266    253    256    269     1  0.0000000  0.6508444  3
    266    253    256    270     1  0.0000000  0.6508444  3
    267    254    255    572     1  180.0000771  0.0000000  2
    268    254    255    572     1  180.0000771  0.0000000  2
    269    256    257    598     1  180.0000771  0.0000000  2
    270    256    257    598     1  180.0000771  0.0000000  2
    271    258    251    276     1  0.0000000  0.6508444  3
    271    258    259    273     1  0.0000000  0.6508444  3
    271    258    259    274     1  0.0000000  0.6508444  3
    272    258    251    276     1  0.0000000  0.6508444  3
    272    258    259    273     1  0.0000000  0.6508444  3
    272    258    259    274     1  0.0000000  0.6508444  3
    273    259    260    275     1  0.0000000  0.0000000  2
    274    259    260    275     1  0.0000000  0.0000000  2
    277    278    280    293     1  0.0000000  0.6508444  3
    277    278    280    294     1  0.0000000  0.6508444  3
    277    279    282    295     1  0.0000000  0.6508444  3
    277    279    282    296     1  0.0000000  0.6508444  3
    277    284    285    299     1  0.0000000  0.6508444  3
    277    284    285    300     1  0.0000000  0.6508444  3
    278    277    279    291     1  0.0000000  0.6508444  3
    278    277    279    292     1  0.0000000  0.6508444  3
    278    277    284    297     1  0.0000000  0.6508444  3
    278    277    284    298     1  0.0000000  0.6508444  3
    279    277    278    289     1  0.0000000  0.6508444  3
    279    277    278    290     1  0.0000000  0.6508444  3
    279    277    284    297     1  0.0000000  0.6508444  3
    279    277    284    298     1  0.0000000  0.6508444  3
    280    278    277    302     1  0.0000000  0.6508444  3
    280    281    624    639     1  180.0000771  10.4600000  2
    281    280    278    289     1  0.0000000  0.6508444  3
    281    280    278    290     1  0.0000000  0.6508444  3
    281    624    623    637     1  0.0000000  0.0000000  2
    281    624    623    638     1  0.0000000  0.0000000  2
    282    279    277    302     1  0.0000000  0.6508444  3
    282    283    650    665     1  180.0000771  10.4600000  2
    283    282    279    291     1  0.0000000  0.6508444  3
    283    282    279    292     1  0.0000000  0.6508444  3
    283    650    649    663     1  0.0000000  0.0000000  2
    283    650    649    664     1  0.0000000  0.0000000  2
    284    277    278    289     1  0.0000000  0.6508444  3
    284    277    278    290     1  0.0000000  0.6508444  3
    284    277    279    291     1  0.0000000  0.6508444  3
    284    277    279    292     1  0.0000000  0.6508444  3
    284    285    286    301     1  0.0000000  0.0000000  2
    285    284    277    302     1  0.0000000  0.6508444  3
    286    285    284    297     1  0.0000000  0.6508444  3
    286    285    284    298     1  0.0000000  0.6508444  3
    287    281    280    293     1  0.0000000  3.3472000  1
    287    281    280    293     1  0.0000000  0.0000000  2
    287    281    280    293     1  180.0000771  0.3347200  3
    287    281    280    294     1  0.0000000  3.3472000  1
    287    281    280    294     1  0.0000000  0.0000000  2
    287    281    280    294     1  180.0000771  0.3347200  3
    287    281    624    639     1  0.0000000  8.3680000  1
    287    281    624    639     1  180.0000771  10.4600000  2
    288    283    282    295     1  0.0000000  3.3472000  1
    288    283    282    295     1  0.0000000  0.0000000  2
    288    283    282    295     1  180.0000771  0.3347200  3
    288    283    282    296     1  0.0000000  3.3472000  1
    288    283    282    296     1  0.0000000  0.0000000  2
    288    283    282    296     1  180.0000771  0.3347200  3
    288    283    650    665     1  0.0000000  8.3680000  1
    288    283    650    665     1  180.0000771  10.4600000  2
    289    278    277    302     1  0.0000000  0.6508444  3
    289    278    280    293     1  0.0000000  0.6508444  3
    289    278    280    294     1  0.0000000  0.6508444  3
    290    278    277    302     1  0.0000000  0.6508444  3
    290    278    280    293     1  0.0000000  0.6508444  3
    290    278    280    294     1  0.0000000  0.6508444  3
    291    279    277    302     1  0.0000000  0.6508444  3
    291    279    282    295     1  0.0000000  0.6508444  3
    291    279    282    296     1  0.0000000  0.6508444  3
    292    279    277    302     1  0.0000000  0.6508444  3
    292    279    282    295     1  0.0000000  0.6508444  3
    292    279    282    296     1  0.0000000  0.6508444  3
    293    280    281    624     1  180.0000771  0.0000000  2
    294    280    281    624     1  180.0000771  0.0000000  2
    295    282    283    650     1  180.0000771  0.0000000  2
    296    282    283    650     1  180.0000771  0.0000000  2
    297    284    277    302     1  0.0000000  0.6508444  3
    297    284    285    299     1  0.0000000  0.6508444  3
    297    284    285    300     1  0.0000000  0.6508444  3
    298    284    277    302     1  0.0000000  0.6508444  3
    298    284    285    299     1  0.0000000  0.6508444  3
    298    284    285    300     1  0.0000000  0.6508444  3
    299    285    286    301     1  0.0000000  0.0000000  2
    300    285    286    301     1  0.0000000  0.0000000  2
    303    304    306    319     1  0.0000000  0.6508444  3
    303    304    306    320     1  0.0000000  0.6508444  3
    303    305    308    321     1  0.0000000  0.6508444  3
    303    305    308    322     1  0.0000000  0.6508444  3
    303    310    311    325     1  0.0000000  0.6508444  3
    303    310    311    326     1  0.0000000  0.6508444  3
    304    303    305    317     1  0.0000000  0.6508444  3
    304    303    305    318     1  0.0000000  0.6508444  3
    304    303    310    323     1  0.0000000  0.6508444  3
    304    303    310    324     1  0.0000000  0.6508444  3
    305    303    304    315     1  0.0000000  0.6508444  3
    305    303    304    316     1  0.0000000  0.6508444  3
    305    303    310    323     1  0.0000000  0.6508444  3
    305    303    310    324     1  0.0000000  0.6508444  3
    306    304    303    328     1  0.0000000  0.6508444  3
    306    307    676    691     1  180.0000771  10.4600000  2
    307    306    304    315     1  0.0000000  0.6508444  3
    307    306    304    316     1  0.0000000  0.6508444  3
    307    676    675    689     1  0.0000000  0.0000000  2
    307    676    675    690     1  0.0000000  0.0000000  2
    308    305    303    328     1  0.0000000  0.6508444  3
    308    309    702    717     1  180.0000771  10.4600000  2
    309    308    305    317     1  0.0000000  0.6508444  3
    309    308    305    318     1  0.0000000  0.6508444  3
    309    702    701    715     1  0.0000000  0.0000000  2
    309    702    701    716     1  0.0000000  0.0000000  2
    310    303    304    315     1  0.0000000  0.6508444  3
    310    303    304    316     1  0.0000000  0.6508444  3
    310    303    305    317     1  0.0000000  0.6508444  3
    310    303    305    318     1  0.0000000  0.6508444  3
    310    311    312    327     1  0.0000000  0.0000000  2
    311    310    303    328     1  0.0000000  0.6508444  3
    312    311    310    323     1  0.0000000  0.6508444  3
    312    311    310    324     1  0.0000000  0.6508444  3
    313    307    306    319     1  0.0000000  3.3472000  1
    313    307    306    319     1  0.0000000  0.0000000  2
    313    307    306    319     1  180.0000771  0.3347200  3
    313    307    306    320     1  0.0000000  3.3472000  1
    313    307    306    320     1  0.0000000  0.0000000  2
    313    307    306    320     1  180.0000771  0.3347200  3
    313    307    676    691     1  0.0000000  8.3680000  1
    313    307    676    691     1  180.0000771  10.4600000  2
    314    309    308    321     1  0.0000000  3.3472000  1
    314    309    308    321     1  0.0000000  0.0000000  2
    314    309    308    321     1  180.0000771  0.3347200  3
    314    309    308    322     1  0.0000000  3.3472000  1
    314    309    308    322     1  0.0000000  0.0000000  2
    314    309    308    322     1  180.0000771  0.3347200  3
    314    309    702    717     1  0.0000000  8.3680000  1
    314    309    702    717     1  180.0000771  10.4600000  2
    315    304    303    328     1  0.0000000  0.6508444  3
    315    304    306    319     1  0.0000000  0.6508444  3
    315    304    306    320     1  0.0000000  0.6508444  3
    316    304    303    328     1  0.0000000  0.6508444  3
    316    304    306    319     1  0.0000000  0.6508444  3
    316    304    306    320     1  0.0000000  0.6508444  3
    317    305    303    328     1  0.0000000  0.6508444  3
    317    305    308    321     1  0.0000000  0.6508444  3
    317    305    308    322     1  0.0000000  0.6508444  3
    318    305    303    328     1  0.0000000  0.6508444  3
    318    305    308    321     1  0.0000000  0.6508444  3
    318    305    308    322     1  0.0000000  0.6508444  3
    319    306    307    676     1  180.0000771  0.0000000  2
    320    306    307    676     1  180.0000771  0.0000000  2
    321    308    309    702     1  180.0000771  0.0000000  2
    322    308    309    702     1  180.0000771  0.0000000  2
    323    310    303    328     1  0.0000000  0.6508444  3
    323    310    311    325     1  0.0000000  0.6508444  3
    323    310    311    326     1  0.0000000  0.6508444  3
    324    310    303    328     1  0.0000000  0.6508444  3
    324    310    311    325     1  0.0000000  0.6508444  3
    324    310    311    326     1  0.0000000  0.6508444  3
    325    311    312    327     1  0.0000000  0.0000000  2
    326    311    312    327     1  0.0000000  0.0000000  2
    329    330    332    345     1  0.0000000  0.6508444  3
    329    330    332    346     1  0.0000000  0.6508444  3
    329    331    334    347     1  0.0000000  0.6508444  3
    329    331    334    348     1  0.0000000  0.6508444  3
    329    336    337    351     1  0.0000000  0.6508444  3
    329    336    337    352     1  0.0000000  0.6508444  3
    330    329    331    343     1  0.0000000  0.6508444  3
    330    329    331    344     1  0.0000000  0.6508444  3
    330    329    336    349     1  0.0000000  0.6508444  3
    330    329    336    350     1  0.0000000  0.6508444  3
    331    329    330    341     1  0.0000000  0.6508444  3
    331    329    330    342     1  0.0000000  0.6508444  3
    331    329    336    349     1  0.0000000  0.6508444  3
    331    329    336    350     1  0.0000000  0.6508444  3
    332    330    329    354     1  0.0000000  0.6508444  3
    332    333    728    743     1  180.0000771  10.4600000  2
    333    332    330    341     1  0.0000000  0.6508444  3
    333    332    330    342     1  0.0000000  0.6508444  3
    333    728    727    741     1  0.0000000  0.0000000  2
    333    728    727    742     1  0.0000000  0.0000000  2
    334    331    329    354     1  0.0000000  0.6508444  3
    334    335    754    769     1  180.0000771  10.4600000  2
    335    334    331    343     1  0.0000000  0.6508444  3
    335    334    331    344     1  0.0000000  0.6508444  3
    335    754    753    767     1  0.0000000  0.0000000  2
    335    754    753    768     1  0.0000000  0.0000000  2
    336    329    330    341     1  0.0000000  0.6508444  3
    336    329    330    342     1  0.0000000  0.6508444  3
    336    329    331    343     1  0.0000000  0.6508444  3
    336    329    331    344     1  0.0000000  0.6508444  3
    336    337    338    353     1  0.0000000  0.0000000  2
    337    336    329    354     1  0.0000000  0.6508444  3
    338    337    336    349     1  0.0000000  0.6508444  3
    338    337    336    350     1  0.0000000  0.6508444  3
    339    333    332    345     1  0.0000000  3.3472000  1
    339    333    332    345     1  0.0000000  0.0000000  2
    339    333    332    345     1  180.0000771  0.3347200  3
    339    333    332    346     1  0.0000000  3.3472000  1
    339    333    332    346     1  0.0000000  0.0000000  2
    339    333    332    346     1  180.0000771  0.3347200  3
    339    333    728    743     1  0.0000000  8.3680000  1
    339    333    728    743     1  180.0000771  10.4600000  2
    340    335    334    347     1  0.0000000  3.3472000  1
    340    335    334    347     1  0.0000000  0.0000000  2
    340    335    334    347     1  180.0000771  0.3347200  3
    340    335    334    348     1  0.0000000  3.3472000  1
    340    335    334    348     1  0.0000000  0.0000000  2
    340    335    334    348     1  180.0000771  0.3347200  3
    340    335    754    769     1  0.0000000  8.3680000  1
    340    335    754    769     1  180.0000771  10.4600000  2
    341    330    329    354     1  0.0000000  0.6508444  3
    341    330    332    345     1  0.0000000  0.6508444  3
    341    330    332    346     1  0.0000000  0.6508444  3
    342    330    329    354     1  0.0000000  0.6508444  3
    342    330    332    345     1  0.0000000  0.6508444  3
    342    330    332    346     1  0.0000000  0.6508444  3
    343    331    329    354     1  0.0000000  0.6508444  3
    343    331    334    347     1  0.0000000  0.6508444  3
    343    331    334    348     1  0.0000000  0.6508444  3
    344    331    329    354     1  0.0000000  0.6508444  3
    344    331    334    347     1  0.0000000  0.6508444  3
    344    331    334    348     1  0.0000000  0.6508444  3
    345    332    333    728     1  180.0000771  0.0000000  2
    346    332    333    728     1  180.0000771  0.0000000  2
    347    334    335    754     1  180.0000771  0.0000000  2
    348    334    335    754     1  180.0000771  0.0000000  2
    349    336    329    354     1  0.0000000  0.6508444  3
    349    336    337    351     1  0.0000000  0.6508444  3
    349    336    337    352     1  0.0000000  0.6508444  3
    350    336    329    354     1  0.0000000  0.6508444  3
    350    336    337    351     1  0.0000000  0.6508444  3
    350    336    337    352     1  0.0000000  0.6508444  3
    351    337    338    353     1  0.0000000  0.0000000  2
    352    337    338    353     1  0.0000000  0.0000000  2
    355    356    358    371     1  0.0000000  0.6508444  3
    355    356    358    372     1  0.0000000  0.6508444  3
    355    357    360    373     1  0.0000000  0.6508444  3
    355    357    360    374     1  0.0000000  0.6508444  3
    355    362    363    377     1  0.0000000  0.6508444  3
    355    362    363    378     1  0.0000000  0.6508444  3
    356    355    357    369     1  0.0000000  0.6508444  3
    356    355    357    370     1  0.0000000  0.6508444  3
    356    355    362    375     1  0.0000000  0.6508444  3
    356    355    362    376     1  0.0000000  0.6508444  3
    357    355    356    367     1  0.0000000  0.6508444  3
    357    355    356    368     1  0.0000000  0.6508444  3
    357    355    362    375     1  0.0000000  0.6508444  3
    357    355    362    376     1  0.0000000  0.6508444  3
    358    356    355    380     1  0.0000000  0.6508444  3
    358    359    780    795     1  180.0000771  10.4600000  2
    359    358    356    367     1  0.0000000  0.6508444  3
    359    358    356    368     1  0.0000000  0.6508444  3
    359    780    779    793     1  0.0000000  0.0000000  2
    359    780    779    794     1  0.0000000  0.0000000  2
    360    357    355    380     1  0.0000000  0.6508444  3
    360    361    806    821     1  180.0000771  10.4600000  2
    361    360    357    369     1  0.0000000  0.6508444  3
    361    360    357    370     1  0.0000000  0.6508444  3
    361    806    805    819     1  0.0000000  0.0000000  2
    361    806    805    820     1  0.0000000  0.0000000  2
    362    355    356    367     1  0.0000000  0.6508444  3
    362    355    356    368     1  0.0000000  0.6508444  3
    362    355    357    369     1  0.0000000  0.6508444  3
    362    355    357    370     1  0.0000000  0.6508444  3
    362    363    364    379     1  0.0000000  0.0000000  2
    363    362    355    380     1  0.0000000  0.6508444  3
    364    363    362    375     1  0.0000000  0.6508444  3
    364    363    362    376     1  0.0000000  0.6508444  3
    365    359    358    371     1  0.0000000  3.3472000  1
    365    359    358    371     1  0.0000000  0.0000000  2
    365    359    358    371     1  180.0000771  0.3347200  3
    365    359    358    372     1  0.0000000  3.3472000  1
    365    359    358    372     1  0.0000000  0.0000000  2
    365    359    358    372     1  180.0000771  0.3347200  3
    365    359    780    795     1  0.0000000  8.3680000  1
    365    359    780    795     1  180.0000771  10.4600000  2
    366    361    360    373     1  0.0000000  3.3472000  1
    366    361    360    373     1  0.0000000  0.0000000  2
    366    361    360    373     1  180.0000771  0.3347200  3
    366    361    360    374     1  0.0000000  3.3472000  1
    366    361    360    374     1  0.0000000  0.0000000  2
    366    361    360    374     1  180.0000771  0.3347200  3
    366    361    806    821     1  0.0000000  8.3680000  1
    366    361    806    821     1  180.0000771  10.4600000  2
    367    356    355    380     1  0.0000000  0.6508444  3
    367    356    358    371     1  0.0000000  0.6508444  3
    367    356    358    372     1  0.0000000  0.6508444  3
    368    356    355    380     1  0.0000000  0.6508444  3
    368    356    358    371     1  0.0000000  0.6508444  3
    368    356    358    372     1  0.0000000  0.6508444  3
    369    357    355    380     1  0.0000000  0.6508444  3
    369    357    360    373     1  0.0000000  0.6508444  3
    369    357    360    374     1  0.0000000  0.6508444  3
    370    357    355    380     1  0.0000000  0.6508444  3
    370    357    360    373     1  0.0000000  0.6508444  3
    370    357    360    374     1  0.0000000  0.6508444  3
    371    358    359    780     1  180.0000771  0.0000000  2
    372    358    359    780     1  180.0000771  0.0000000  2
    373    360    361    806     1  180.0000771  0.0000000  2
    374    360    361    806     1  180.0000771  0.0000000  2
    375    362    355    380     1  0.0000000  0.6508444  3
    375    362    363    377     1  0.0000000  0.6508444  3
    375    362    363    378     1  0.0000000  0.6508444  3
    376    362    355    380     1  0.0000000  0.6508444  3
    376    362    363    377     1  0.0000000  0.6508444  3
    376    362    363    378     1  0.0000000  0.6508444  3
    377    363    364    379     1  0.0000000  0.0000000  2
    378    363    364    379     1  0.0000000  0.0000000  2
    381    382    384    397     1  0.0000000  0.6508444  3
    381    382    384    398     1  0.0000000  0.6508444  3
    381    383    386    399     1  0.0000000  0.6508444  3
    381    383    386    400     1  0.0000000  0.6508444  3
    381    388    389    403     1  0.0000000  0.6508444  3
    381    388    389    404     1  0.0000000  0.6508444  3
    382    381    383    395     1  0.0000000  0.6508444  3
    382    381    383    396     1  0.0000000  0.6508444  3
    382    381    388    401     1  0.0000000  0.6508444  3
    382    381    388    402     1  0.0000000  0.6508444  3
    383    381    382    393     1  0.0000000  0.6508444  3
    383    381    382    394     1  0.0000000  0.6508444  3
    383    381    388    401     1  0.0000000  0.6508444  3
    383    381    388    402     1  0.0000000  0.6508444  3
    384    382    381    406     1  0.0000000  0.6508444  3
    384    385    832    847     1  180.0000771  10.4600000  2
    385    384    382    393     1  0.0000000  0.6508444  3
    385    384    382    394     1  0.0000000  0.6508444  3
    385    832    831    845     1  0.0000000  0.0000000  2
    385    832    831    846     1  0.0000000  0.0000000  2
    386    383    381    406     1  0.0000000  0.6508444  3
    386    387    858    873     1  180.0000771  10.4600000  2
    387    386    383    395     1  0.0000000  0.6508444  3
    387    386    383    396     1  0.0000000  0.6508444  3
    387    858    857    871     1  0.0000000  0.0000000  2
    387    858    857    872     1  0.0000000  0.0000000  2
    388    381    382    393     1  0.0000000  0.6508444  3
    388    381    382    394     1  0.0000000  0.6508444  3
    388    381    383    395     1  0.0000000  0.6508444  3
    388    381    383    396     1  0.0000000  0.6508444  3
    388    389    390    405     1  0.0000000  0.0000000  2
    389    388    381    406     1  0.0000000  0.6508444  3
    390    389    388    401     1  0.0000000  0.6508444  3
    390    389    388    402     1  0.0000000  0.6508444  3
    391    385    384    397     1  0.0000000  3.3472000  1
    391    385    384    397     1  0.0000000  0.0000000  2
    391    385    384    397     1  180.0000771  0.3347200  3
    391    385    384    398     1  0.0000000  3.3472000  1
    391    385    384    398     1  0.0000000  0.0000000  2
    391    385    384    398     1  180.0000771  0.3347200  3
    391    385    832    847     1  0.0000000  8.3680000  1
    391    385    832    847     1  180.0000771  10.4600000  2
    392    387    386    399     1  0.0000000  3.3472000  1
    392    387    386    399     1  0.0000000  0.0000000  2
    392    387    386    399     1  180.0000771  0.3347200  3
    392    387    386    400     1  0.0000000  3.3472000  1
    392    387    386    400     1  0.0000000  0.0000000  2
    392    387    386    400     1  180.0000771  0.3347200  3
    392    387    858    873     1  0.0000000  8.3680000  1
    392    387    858    873     1  180.0000771  10.4600000  2
    393    382    381    406     1  0.0000000  0.6508444  3
    393    382    384    397     1  0.0000000  0.6508444  3
    393    382    384    398     1  0.0000000  0.6508444  3
    394    382    381    406     1  0.0000000  0.6508444  3
    394    382    384    397     1  0.0000000  0.6508444  3
    394    382    384    398     1  0.0000000  0.6508444  3
    395    383    381    406     1  0.0000000  0.6508444  3
    395    383    386    399     1  0.0000000  0.6508444  3
    395    383    386    400     1  0.0000000  0.6508444  3
    396    383    381    406     1  0.0000000  0.6508444  3
    396    383    386    399     1  0.0000000  0.6508444  3
    396    383    386    400     1  0.0000000  0.6508444  3
    397    384    385    832     1  180.0000771  0.0000000  2
    398    384    385    832     1  180.0000771  0.0000000  2
    399    386    387    858     1  180.0000771  0.0000000  2
    400    386    387    858     1  180.0000771  0.0000000  2
    401    388    381    406     1  0.0000000  0.6508444  3
    401    388    389    403     1  0.0000000  0.6508444  3
    401    388    389    404     1  0.0000000  0.6508444  3
    402    388    381    406     1  0.0000000  0.6508444  3
    402    388    389    403     1  0.0000000  0.6508444  3
    402    388    389    404     1  0.0000000  0.6508444  3
    403    389    390    405     1  0.0000000  0.0000000  2
    404    389    390    405     1  0.0000000  0.0000000  2
    407    408    410    423     1  0.0000000  0.6508444  3
    407    408    410    424     1  0.0000000  0.6508444  3
    407    409    412    425     1  0.0000000  0.6508444  3
    407    409    412    426     1  0.0000000  0.6508444  3
    407    414    415    429     1  0.0000000  0.6508444  3
    407    414    415    430     1  0.0000000  0.6508444  3
    408    407    409    421     1  0.0000000  0.6508444  3
    408    407    409    422     1  0.0000000  0.6508444  3
    408    407    414    427     1  0.0000000  0.6508444  3
    408    407    414    428     1  0.0000000  0.6508444  3
    409    407    408    419     1  0.0000000  0.6508444  3
    409    407    408    420     1  0.0000000  0.6508444  3
    409    407    414    427     1  0.0000000  0.6508444  3
    409    407    414    428     1  0.0000000  0.6508444  3
    410    408    407    432     1  0.0000000  0.6508444  3
    410    411    884    899     1  180.0000771  10.4600000  2
    411    410    408    419     1  0.0000000  0.6508444  3
    411    410    408    420     1  0.0000000  0.6508444  3
    411    884    883    897     1  0.0000000  0.0000000  2
    411    884    883    898     1  0.0000000  0.0000000  2
    412    409    407    432     1  0.0000000  0.6508444  3
    412    413    910    925     1  180.0000771  10.4600000  2
    413    412    409    421     1  0.0000000  0.6508444  3
    413    412    409    422     1  0.0000000  0.6508444  3
    413    910    909    923     1  0.0000000  0.0000000  2
    413    910    909    924     1  0.0000000  0.0000000  2
    414    407    408    419     1  0.0000000  0.6508444  3
    414    407    408    420     1  0.0000000  0.6508444  3
    414    407    409    421     1  0.0000000  0.6508444  3
    414    407    409    422     1  0.0000000  0.6508444  3
    414    415    416    431     1  0.0000000  0.0000000  2
    415    414    407    432     1  0.0000000  0.6508444  3
    416    415    414    427     1  0.0000000  0.6508444  3
    416    415    414    428     1  0.0000000  0.6508444  3
    417    411    410    423     1  0.0000000  3.3472000  1
    417    411    410    423     1  0.0000000  0.0000000  2
    417    411    410    423     1  180.0000771  0.3347200  3
    417    411    410    424     1  0.0000000  3.3472000  1
    417    411    410    424     1  0.0000000  0.0000000  2
    417    411    410    424     1  180.0000771  0.3347200  3
    417    411    884    899     1  0.0000000  8.3680000  1
    417    411    884    899     1  180.0000771  10.4600000  2
    418    413    412    425     1  0.0000000  3.3472000  1
    418    413    412    425     1  0.0000000  0.0000000  2
    418    413    412    425     1  180.0000771  0.3347200  3
    418    413    412    426     1  0.0000000  3.3472000  1
    418    413    412    426     1  0.0000000  0.0000000  2
    418    413    412    426     1  180.0000771  0.3347200  3
    418    413    910    925     1  0.0000000  8.3680000  1
    418    413    910    925     1  180.0000771  10.4600000  2
    419    408    407    432     1  0.0000000  0.6508444  3
    419    408    410    423     1  0.0000000  0.6508444  3
    419    408    410    424     1  0.0000000  0.6508444  3
    420    408    407    432     1  0.0000000  0.6508444  3
    420    408    410    423     1  0.0000000  0.6508444  3
    420    408    410    424     1  0.0000000  0.6508444  3
    421    409    407    432     1  0.0000000  0.6508444  3
    421    409    412    425     1  0.0000000  0.6508444  3
    421    409    412    426     1  0.0000000  0.6508444  3
    422    409    407    432     1  0.0000000  0.6508444  3
    422    409    412    425     1  0.0000000  0.6508444  3
    422    409    412    426     1  0.0000000  0.6508444  3
    423    410    411    884     1  180.0000771  0.0000000  2
    424    410    411    884     1  180.0000771  0.0000000  2
    425    412    413    910     1  180.0000771  0.0000000  2
    426    412    413    910     1  180.0000771  0.0000000  2
    427    414    407    432     1  0.0000000  0.6508444  3
    427    414    415    429     1  0.0000000  0.6508444  3
    427    414    415    430     1  0.0000000  0.6508444  3
    428    414    407    432     1  0.0000000  0.6508444  3
    428    414    415    429     1  0.0000000  0.6508444  3
    428    414    415    430     1  0.0000000  0.6508444  3
    429    415    416    431     1  0.0000000  0.0000000  2
    430    415    416    431     1  0.0000000  0.0000000  2
    433    434    436    449     1  0.0000000  0.6508444  3
    433    434    436    450     1  0.0000000  0.6508444  3
    433    435    438    451     1  0.0000000  0.6508444  3
    433    435    438    452     1  0.0000000  0.6508444  3
    433    440    441    455     1  0.0000000  0.6508444  3
    433    440    441    456     1  0.0000000  0.6508444  3
    434    433    435    447     1  0.0000000  0.6508444  3
    434    433    435    448     1  0.0000000  0.6508444  3
    434    433    440    453     1  0.0000000  0.6508444  3
    434    433    440    454     1  0.0000000  0.6508444  3
    435    433    434    445     1  0.0000000  0.6508444  3
    435    433    434    446     1  0.0000000  0.6508444  3
    435    433    440    453     1  0.0000000  0.6508444  3
    435    433    440    454     1  0.0000000  0.6508444  3
    436    434    433    458     1  0.0000000  0.6508444  3
    436    437    936    951     1  180.0000771  10.4600000  2
    437    436    434    445     1  0.0000000  0.6508444  3
    437    436    434    446     1  0.0000000  0.6508444  3
    437    936    935    949     1  0.0000000  0.0000000  2
    437    936    935    950     1  0.0000000  0.0000000  2
    438    435    433    458     1  0.0000000  0.6508444  3
    438    439    962    977     1  180.0000771  10.4600000  2
    439    438    435    447     1  0.0000000  0.6508444  3
    439    438    435    448     1  0.0000000  0.6508444  3
    439    962    961    975     1  0.0000000  0.0000000  2
    439    962    961    976     1  0.0000000  0.0000000  2
    440    433    434    445     1  0.0000000  0.6508444  3
    440    433    434    446     1  0.0000000  0.6508444  3
    440    433    435    447     1  0.0000000  0.6508444  3
    440    433    435    448     1  0.0000000  0.6508444  3
    440    441    442    457     1  0.0000000  0.0000000  2
    441    440    433    458     1  0.0000000  0.6508444  3
    442    441    440    453     1  0.0000000  0.6508444  3
    442    441    440    454     1  0.0000000  0.6508444  3
    443    437    436    449     1  0.0000000  3.3472000  1
    443    437    436    449     1  0.0000000  0.0000000  2
    443    437    436    449     1  180.0000771  0.3347200  3
    443    437    436    450     1  0.0000000  3.3472000  1
    443    437    436    450     1  0.0000000  0.0000000  2
    443    437    436    450     1  180.0000771  0.3347200  3
    443    437    936    951     1  0.0000000  8.3680000  1
    443    437    936    951     1  180.0000771  10.4600000  2
    444    439    438    451     1  0.0000000  3.3472000  1
    444    439    438    451     1  0.0000000  0.0000000  2
    444    439    438    451     1  180.0000771  0.3347200  3
    444    439    438    452     1  0.0000000  3.3472000  1
    444    439    438    452     1  0.0000000  0.0000000  2
    444    439    438    452     1  180.0000771  0.3347200  3
    444    439    962    977     1  0.0000000  8.3680000  1
    444    439    962    977     1  180.0000771  10.4600000  2
    445    434    433    458     1  0.0000000  0.6508444  3
    445    434    436    449     1  0.0000000  0.6508444  3
    445    434    436    450     1  0.0000000  0.6508444  3
    446    434    433    458     1  0.0000000  0.6508444  3
    446    434    436    449     1  0.0000000  0.6508444  3
    446    434    436    450     1  0.0000000  0.6508444  3
    447    435    433    458     1  0.0000000  0.6508444  3
    447    435    438    451     1  0.0000000  0.6508444  3
    447    435    438    452     1  0.0000000  0.6508444  3
    448    435    433    458     1  0.0000000  0.6508444  3
    448    435    438    451     1  0.0000000  0.6508444  3
    448    435    438    452     1  0.0000000  0.6508444  3
    449    436    437    936     1  180.0000771  0.0000000  2
    450    436    437    936     1  180.0000771  0.0000000  2
    451    438    439    962     1  180.0000771  0.0000000  2
    452    438    439    962     1  180.0000771  0.0000000  2
    453    440    433    458     1  0.0000000  0.6508444  3
    453    440    441    455     1  0.0000000  0.6508444  3
    453    440    441    456     1  0.0000000  0.6508444  3
    454    440    433    458     1  0.0000000  0.6508444  3
    454    440    441    455     1  0.0000000  0.6508444  3
    454    440    441    456     1  0.0000000  0.6508444  3
    455    441    442    457     1  0.0000000  0.0000000  2
    456    441    442    457     1  0.0000000  0.0000000  2
    459    460    462    475     1  0.0000000  0.6508444  3
    459    460    462    476     1  0.0000000  0.6508444  3
    459    461    464    477     1  0.0000000  0.6508444  3
    459    461    464    478     1  0.0000000  0.6508444  3
    459    466    467    481     1  0.0000000  0.6508444  3
    459    466    467    482     1  0.0000000  0.6508444  3
    460    459    461    473     1  0.0000000  0.6508444  3
    460    459    461    474     1  0.0000000  0.6508444  3
    460    459    466    479     1  0.0000000  0.6508444  3
    460    459    466    480     1  0.0000000  0.6508444  3
    461    459    460    471     1  0.0000000  0.6508444  3
    461    459    460    472     1  0.0000000  0.6508444  3
    461    459    466    479     1  0.0000000  0.6508444  3
    461    459    466    480     1  0.0000000  0.6508444  3
    462    460    459    484     1  0.0000000  0.6508444  3
    462    463    988   1003     1  180.0000771  10.4600000  2
    463    462    460    471     1  0.0000000  0.6508444  3
    463    462    460    472     1  0.0000000  0.6508444  3
    463    988    987   1001     1  0.0000000  0.0000000  2
    463    988    987   1002     1  0.0000000  0.0000000  2
    464    461    459    484     1  0.0000000  0.6508444  3
    464    465   1014   1029     1  180.0000771  10.4600000  2
    465    464    461    473     1  0.0000000  0.6508444  3
    465    464    461    474     1  0.0000000  0.6508444  3
    465   1014   1013   1027     1  0.0000000  0.0000000  2
    465   1014   1013   1028     1  0.0000000  0.0000000  2
    466    459    460    471     1  0.0000000  0.6508444  3
    466    459    460    472     1  0.0000000  0.6508444  3
    466    459    461    473     1  0.0000000  0.6508444  3
    466    459    461    474     1  0.0000000  0.6508444  3
    466    467    468    483     1  0.0000000  0.0000000  2
    467    466    459    484     1  0.0000000  0.6508444  3
    468    467    466    479     1  0.0000000  0.6508444  3
    468    467    466    480     1  0.0000000  0.6508444  3
    469    463    462    475     1  0.0000000  3.3472000  1
    469    463    462    475     1  0.0000000  0.0000000  2
    469    463    462    475     1  180.0000771  0.3347200  3
    469    463    462    476     1  0.0000000  3.3472000  1
    469    463    462    476     1  0.0000000  0.0000000  2
    469    463    462    476     1  180.0000771  0.3347200  3
    469    463    988   1003     1  0.0000000  8.3680000  1
    469    463    988   1003     1  180.0000771  10.4600000  2
    470    465    464    477     1  0.0000000  3.3472000  1
    470    465    464    477     1  0.0000000  0.0000000  2
    470    465    464    477     1  180.0000771  0.3347200  3
    470    465    464    478     1  0.0000000  3.3472000  1
    470    465    464    478     1  0.0000000  0.0000000  2
    470    465    464    478     1  180.0000771  0.3347200  3
    470    465   1014   1029     1  0.0000000  8.3680000  1
    470    465   1014   1029     1  180.0000771  10.4600000  2
    471    460    459    484     1  0.0000000  0.6508444  3
    471    460    462    475     1  0.0000000  0.6508444  3
    471    460    462    476     1  0.0000000  0.6508444  3
    472    460    459    484     1  0.0000000  0.6508444  3
    472    460    462    475     1  0.0000000  0.6508444  3
    472    460    462    476     1  0.0000000  0.6508444  3
    473    461    459    484     1  0.0000000  0.6508444  3
    473    461    464    477     1  0.0000000  0.6508444  3
    473    461    464    478     1  0.0000000  0.6508444  3
    474    461    459    484     1  0.0000000  0.6508444  3
    474    461    464    477     1  0.0000000  0.6508444  3
    474    461    464    478     1  0.0000000  0.6508444  3
    475    462    463    988     1  180.0000771  0.0000000  2
    476    462    463    988     1  180.0000771  0.0000000  2
    477    464    465   1014     1  180.0000771  0.0000000  2
    478    464    465   1014     1  180.0000771  0.0000000  2
    479    466    459    484     1  0.0000000  0.6508444  3
    479    466    467    481     1  0.0000000  0.6508444  3
    479    466    467    482     1  0.0000000  0.6508444  3
    480    466    459    484     1  0.0000000  0.6508444  3
    480    466    467    481     1  0.0000000  0.6508444  3
    480    466    467    482     1  0.0000000  0.6508444  3
    481    467    468    483     1  0.0000000  0.0000000  2
    482    467    468    483     1  0.0000000  0.0000000  2
    485    486    488    501     1  0.0000000  0.6508444  3
    485    486    488    502     1  0.0000000  0.6508444  3
    485    487    490    503     1  0.0000000  0.6508444  3
    485    487    490    504     1  0.0000000  0.6508444  3
    485    492    493    507     1  0.0000000  0.6508444  3
    485    492    493    508     1  0.0000000  0.6508444  3
    486    485    487    499     1  0.0000000  0.6508444  3
    486    485    487    500     1  0.0000000  0.6508444  3
    486    485    492    505     1  0.0000000  0.6508444  3
    486    485    492    506     1  0.0000000  0.6508444  3
    487    485    486    497     1  0.0000000  0.6508444  3
    487    485    486    498     1  0.0000000  0.6508444  3
    487    485    492    505     1  0.0000000  0.6508444  3
    487    485    492    506     1  0.0000000  0.6508444  3
    488    486    485    510     1  0.0000000  0.6508444  3
    488    489   1040   1055     1  180.0000771  10.4600000  2
    489    488    486    497     1  0.0000000  0.6508444  3
    489    488    486    498     1  0.0000000  0.6508444  3
    489   1040   1039   1053     1  0.0000000  0.0000000  2
    489   1040   1039   1054     1  0.0000000  0.0000000  2
    490    487    485    510     1  0.0000000  0.6508444  3
    490    491   1066   1081     1  180.0000771  10.4600000  2
    491    490    487    499     1  0.0000000  0.6508444  3
    491    490    487    500     1  0.0000000  0.6508444  3
    491   1066   1065   1079     1  0.0000000  0.0000000  2
    491   1066   1065   1080     1  0.0000000  0.0000000  2
    492    485    486    497     1  0.0000000  0.6508444  3
    492    485    486    498     1  0.0000000  0.6508444  3
    492    485    487    499     1  0.0000000  0.6508444  3
    492    485    487    500     1  0.0000000  0.6508444  3
    492    493    494    509     1  0.0000000  0.0000000  2
    493    492    485    510     1  0.0000000  0.6508444  3
    494    493    492    505     1  0.0000000  0.6508444  3
    494    493    492    506     1  0.0000000  0.6508444  3
    495    489    488    501     1  0.0000000  3.3472000  1
    495    489    488    501     1  0.0000000  0.0000000  2
    495    489    488    501     1  180.0000771  0.3347200  3
    495    489    488    502     1  0.0000000  3.3472000  1
    495    489    488    502     1  0.0000000  0.0000000  2
    495    489    488    502     1  180.0000771  0.3347200  3
    495    489   1040   1055     1  0.0000000  8.3680000  1
    495    489   1040   1055     1  180.0000771  10.4600000  2
    496    491    490    503     1  0.0000000  3.3472000  1
    496    491    490    503     1  0.0000000  0.0000000  2
    496    491    490    503     1  180.0000771  0.3347200  3
    496    491    490    504     1  0.0000000  3.3472000  1
    496    491    490    504     1  0.0000000  0.0000000  2
    496    491    490    504     1  180.0000771  0.3347200  3
    496    491   1066   1081     1  0.0000000  8.3680000  1
    496    491   1066   1081     1  180.0000771  10.4600000  2
    497    486    485    510     1  0.0000000  0.6508444  3
    497    486    488    501     1  0.0000000  0.6508444  3
    497    486    488    502     1  0.0000000  0.6508444  3
    498    486    485    510     1  0.0000000  0.6508444  3
    498    486    488    501     1  0.0000000  0.6508444  3
    498    486    488    502     1  0.0000000  0.6508444  3
    499    487    485    510     1  0.0000000  0.6508444  3
    499    487    490    503     1  0.0000000  0.6508444  3
    499    487    490    504     1  0.0000000  0.6508444  3
    500    487    485    510     1  0.0000000  0.6508444  3
    500    487    490    503     1  0.0000000  0.6508444  3
    500    487    490    504     1  0.0000000  0.6508444  3
    501    488    489   1040     1  180.0000771  0.0000000  2
    502    488    489   1040     1  180.0000771  0.0000000  2
    503    490    491   1066     1  180.0000771  0.0000000  2
    504    490    491   1066     1  180.0000771  0.0000000  2
    505    492    485    510     1  0.0000000  0.6508444  3
    505    492    493    507     1  0.0000000  0.6508444  3
    505    492    493    508     1  0.0000000  0.6508444  3
    506    492    485    510     1  0.0000000  0.6508444  3
    506    492    493    507     1  0.0000000  0.6508444  3
    506    492    493    508     1  0.0000000  0.6508444  3
    507    493    494    509     1  0.0000000  0.0000000  2
    508    493    494    509     1  0.0000000  0.0000000  2
    511    512    514    527     1  0.0000000  0.6508444  3
    511    512    514    528     1  0.0000000  0.6508444  3
    511    513    516    529     1  0.0000000  0.6508444  3
    511    513    516    530     1  0.0000000  0.6508444  3
    511    518    519    533     1  0.0000000  0.6508444  3
    511    518    519    534     1  0.0000000  0.6508444  3
    512    511    513    525     1  0.0000000  0.6508444  3
    512    511    513    526     1  0.0000000  0.6508444  3
    512    511    518    531     1  0.0000000  0.6508444  3
    512    511    518    532     1  0.0000000  0.6508444  3
    513    511    512    523     1  0.0000000  0.6508444  3
    513    511    512    524     1  0.0000000  0.6508444  3
    513    511    518    531     1  0.0000000  0.6508444  3
    513    511    518    532     1  0.0000000  0.6508444  3
    514    512    511    536     1  0.0000000  0.6508444  3
    514    515   1092   1107     1  180.0000771  10.4600000  2
    515    514    512    523     1  0.0000000  0.6508444  3
    515    514    512    524     1  0.0000000  0.6508444  3
    515   1092   1091   1105     1  0.0000000  0.0000000  2
    515   1092   1091   1106     1  0.0000000  0.0000000  2
    516    513    511    536     1  0.0000000  0.6508444  3
    516    517   1118   1133     1  180.0000771  10.4600000  2
    517    516    513    525     1  0.0000000  0.6508444  3
    517    516    513    526     1  0.0000000  0.6508444  3
    517   1118   1117   1131     1  0.0000000  0.0000000  2
    517   1118   1117   1132     1  0.0000000  0.0000000  2
    518    511    512    523     1  0.0000000  0.6508444  3
    518    511    512    524     1  0.0000000  0.6508444  3
    518    511    513    525     1  0.0000000  0.6508444  3
    518    511    513    526     1  0.0000000  0.6508444  3
    518    519    520    535     1  0.0000000  0.0000000  2
    519    518    511    536     1  0.0000000  0.6508444  3
    520    519    518    531     1  0.0000000  0.6508444  3
    520    519    518    532     1  0.0000000  0.6508444  3
    521    515    514    527     1  0.0000000  3.3472000  1
    521    515    514    527     1  0.0000000  0.0000000  2
    521    515    514    527     1  180.0000771  0.3347200  3
    521    515    514    528     1  0.0000000  3.3472000  1
    521    515    514    528     1  0.0000000  0.0000000  2
    521    515    514    528     1  180.0000771  0.3347200  3
    521    515   1092   1107     1  0.0000000  8.3680000  1
    521    515   1092   1107     1  180.0000771  10.4600000  2
    522    517    516    529     1  0.0000000  3.3472000  1
    522    517    516    529     1  0.0000000  0.0000000  2
    522    517    516    529     1  180.0000771  0.3347200  3
    522    517    516    530     1  0.0000000  3.3472000  1
    522    517    516    530     1  0.0000000  0.0000000  2
    522    517    516    530     1  180.0000771  0.3347200  3
    522    517   1118   1133     1  0.0000000  8.3680000  1
    522    517   1118   1133     1  180.0000771  10.4600000  2
    523    512    511    536     1  0.0000000  0.6508444  3
    523    512    514    527     1  0.0000000  0.6508444  3
    523    512    514    528     1  0.0000000  0.6508444  3
    524    512    511    536     1  0.0000000  0.6508444  3
    524    512    514    527     1  0.0000000  0.6508444  3
    524    512    514    528     1  0.0000000  0.6508444  3
    525    513    511    536     1  0.0000000  0.6508444  3
    525    513    516    529     1  0.0000000  0.6508444  3
    525    513    516    530     1  0.0000000  0.6508444  3
    526    513    511    536     1  0.0000000  0.6508444  3
    526    513    516    529     1  0.0000000  0.6508444  3
    526    513    516    530     1  0.0000000  0.6508444  3
    527    514    515   1092     1  180.0000771  0.0000000  2
    528    514    515   1092     1  180.0000771  0.0000000  2
    529    516    517   1118     1  180.0000771  0.0000000  2
    530    516    517   1118     1  180.0000771  0.0000000  2
    531    518    511    536     1  0.0000000  0.6508444  3
    531    518    519    533     1  0.0000000  0.6508444  3
    531    518    519    534     1  0.0000000  0.6508444  3
    532    518    511    536     1  0.0000000  0.6508444  3
    532    518    519    533     1  0.0000000  0.6508444  3
    532    518    519    534     1  0.0000000  0.6508444  3
    533    519    520    535     1  0.0000000  0.0000000  2
    534    519    520    535     1  0.0000000  0.0000000  2
    537    538    540    553     1  0.0000000  0.6508444  3
    537    538    540    554     1  0.0000000  0.6508444  3
    537    539    542    555     1  0.0000000  0.6508444  3
    537    539    542    556     1  0.0000000  0.6508444  3
    537    544    545    559     1  0.0000000  0.6508444  3
    537    544    545    560     1  0.0000000  0.6508444  3
    538    537    539    551     1  0.0000000  0.6508444  3
    538    537    539    552     1  0.0000000  0.6508444  3
    538    537    544    557     1  0.0000000  0.6508444  3
    538    537    544    558     1  0.0000000  0.6508444  3
    539    537    538    549     1  0.0000000  0.6508444  3
    539    537    538    550     1  0.0000000  0.6508444  3
    539    537    544    557     1  0.0000000  0.6508444  3
    539    537    544    558     1  0.0000000  0.6508444  3
    540    538    537    562     1  0.0000000  0.6508444  3
    540    541   1144   1159     1  180.0000771  10.4600000  2
    541    540    538    549     1  0.0000000  0.6508444  3
    541    540    538    550     1  0.0000000  0.6508444  3
    541   1144   1143   1157     1  0.0000000  0.0000000  2
    541   1144   1143   1158     1  0.0000000  0.0000000  2
    542    539    537    562     1  0.0000000  0.6508444  3
    542    543   1170   1185     1  180.0000771  10.4600000  2
    543    542    539    551     1  0.0000000  0.6508444  3
    543    542    539    552     1  0.0000000  0.6508444  3
    543   1170   1169   1183     1  0.0000000  0.0000000  2
    543   1170   1169   1184     1  0.0000000  0.0000000  2
    544    537    538    549     1  0.0000000  0.6508444  3
    544    537    538    550     1  0.0000000  0.6508444  3
    544    537    539    551     1  0.0000000  0.6508444  3
    544    537    539    552     1  0.0000000  0.6508444  3
    544    545    546    561     1  0.0000000  0.0000000  2
    545    544    537    562     1  0.0000000  0.6508444  3
    546    545    544    557     1  0.0000000  0.6508444  3
    546    545    544    558     1  0.0000000  0.6508444  3
    547    541    540    553     1  0.0000000  3.3472000  1
    547    541    540    553     1  0.0000000  0.0000000  2
    547    541    540    553     1  180.0000771  0.3347200  3
    547    541    540    554     1  0.0000000  3.3472000  1
    547    541    540    554     1  0.0000000  0.0000000  2
    547    541    540    554     1  180.0000771  0.3347200  3
    547    541   1144   1159     1  0.0000000  8.3680000  1
    547    541   1144   1159     1  180.0000771  10.4600000  2
    548    543    542    555     1  0.0000000  3.3472000  1
    548    543    542    555     1  0.0000000  0.0000000  2
    548    543    542    555     1  180.0000771  0.3347200  3
    548    543    542    556     1  0.0000000  3.3472000  1
    548    543    542    556     1  0.0000000  0.0000000  2
    548    543    542    556     1  180.0000771  0.3347200  3
    548    543   1170   1185     1  0.0000000  8.3680000  1
    548    543   1170   1185     1  180.0000771  10.4600000  2
    549    538    537    562     1  0.0000000  0.6508444  3
    549    538    540    553     1  0.0000000  0.6508444  3
    549    538    540    554     1  0.0000000  0.6508444  3
    550    538    537    562     1  0.0000000  0.6508444  3
    550    538    540    553     1  0.0000000  0.6508444  3
    550    538    540    554     1  0.0000000  0.6508444  3
    551    539    537    562     1  0.0000000  0.6508444  3
    551    539    542    555     1  0.0000000  0.6508444  3
    551    539    542    556     1  0.0000000  0.6508444  3
    552    539    537    562     1  0.0000000  0.6508444  3
    552    539    542    555     1  0.0000000  0.6508444  3
    552    539    542    556     1  0.0000000  0.6508444  3
    553    540    541   1144     1  180.0000771  0.0000000  2
    554    540    541   1144     1  180.0000771  0.0000000  2
    555    542    543   1170     1  180.0000771  0.0000000  2
    556    542    543   1170     1  180.0000771  0.0000000  2
    557    544    537    562     1  0.0000000  0.6508444  3
    557    544    545    559     1  0.0000000  0.6508444  3
    557    544    545    560     1  0.0000000  0.6508444  3
    558    544    537    562     1  0.0000000  0.6508444  3
    558    544    545    559     1  0.0000000  0.6508444  3
    558    544    545    560     1  0.0000000  0.6508444  3
    559    545    546    561     1  0.0000000  0.0000000  2
    560    545    546    561     1  0.0000000  0.0000000  2
    563    564    566    579     1  0.0000000  0.6508444  3
    563    564    566    580     1  0.0000000  0.6508444  3
    563    565    568    581     1  0.0000000  0.6508444  3
    563    565    568    582     1  0.0000000  0.6508444  3
    563    570    571    585     1  0.0000000  0.6508444  3
    563    570    571    586     1  0.0000000  0.6508444  3
    564    563    565    577     1  0.0000000  0.6508444  3
    564    563    565    578     1  0.0000000  0.6508444  3
    564    563    570    583     1  0.0000000  0.6508444  3
    564    563    570    584     1  0.0000000  0.6508444  3
    565    563    564    575     1  0.0000000  0.6508444  3
    565    563    564    576     1  0.0000000  0.6508444  3
    565    563    570    583     1  0.0000000  0.6508444  3
    565    563    570    584     1  0.0000000  0.6508444  3
    566    564    563    588     1  0.0000000  0.6508444  3
    566    567   1196   1211     1  180.0000771  10.4600000  2
    567    566    564    575     1  0.0000000  0.6508444  3
    567    566    564    576     1  0.0000000  0.6508444  3
    567   1196   1195   1209     1  0.0000000  0.0000000  2
    567   1196   1195   1210     1  0.0000000  0.0000000  2
    568    565    563    588     1  0.0000000  0.6508444  3
    568    569   1222   1237     1  180.0000771  10.4600000  2
    569    568    565    577     1  0.0000000  0.6508444  3
    569    568    565    578     1  0.0000000  0.6508444  3
    569   1222   1221   1235     1  0.0000000  0.0000000  2
    569   1222   1221   1236     1  0.0000000  0.0000000  2
    570    563    564    575     1  0.0000000  0.6508444  3
    570    563    564    576     1  0.0000000  0.6508444  3
    570    563    565    577     1  0.0000000  0.6508444  3
    570    563    565    578     1  0.0000000  0.6508444  3
    570    571    572    587     1  0.0000000  0.0000000  2
    571    570    563    588     1  0.0000000  0.6508444  3
    572    571    570    583     1  0.0000000  0.6508444  3
    572    571    570    584     1  0.0000000  0.6508444  3
    573    567    566    579     1  0.0000000  3.3472000  1
    573    567    566    579     1  0.0000000  0.0000000  2
    573    567    566    579     1  180.0000771  0.3347200  3
    573    567    566    580     1  0.0000000  3.3472000  1
    573    567    566    580     1  0.0000000  0.0000000  2
    573    567    566    580     1  180.0000771  0.3347200  3
    573    567   1196   1211     1  0.0000000  8.3680000  1
    573    567   1196   1211     1  180.0000771  10.4600000  2
    574    569    568    581     1  0.0000000  3.3472000  1
    574    569    568    581     1  0.0000000  0.0000000  2
    574    569    568    581     1  180.0000771  0.3347200  3
    574    569    568    582     1  0.0000000  3.3472000  1
    574    569    568    582     1  0.0000000  0.0000000  2
    574    569    568    582     1  180.0000771  0.3347200  3
    574    569   1222   1237     1  0.0000000  8.3680000  1
    574    569   1222   1237     1  180.0000771  10.4600000  2
    575    564    563    588     1  0.0000000  0.6508444  3
    575    564    566    579     1  0.0000000  0.6508444  3
    575    564    566    580     1  0.0000000  0.6508444  3
    576    564    563    588     1  0.0000000  0.6508444  3
    576    564    566    579     1  0.0000000  0.6508444  3
    576    564    566    580     1  0.0000000  0.6508444  3
    577    565    563    588     1  0.0000000  0.6508444  3
    577    565    568    581     1  0.0000000  0.6508444  3
    577    565    568    582     1  0.0000000  0.6508444  3
    578    565    563    588     1  0.0000000  0.6508444  3
    578    565    568    581     1  0.0000000  0.6508444  3
    578    565    568    582     1  0.0000000  0.6508444  3
    579    566    567   1196     1  180.0000771  0.0000000  2
    580    566    567   1196     1  180.0000771  0.0000000  2
    581    568    569   1222     1  180.0000771  0.0000000  2
    582    568    569   1222     1  180.0000771  0.0000000  2
    583    570    563    588     1  0.0000000  0.6508444  3
    583    570    571    585     1  0.0000000  0.6508444  3
    583    570    571    586     1  0.0000000  0.6508444  3
    584    570    563    588     1  0.0000000  0.6508444  3
    584    570    571    585     1  0.0000000  0.6508444  3
    584    570    571    586     1  0.0000000  0.6508444  3
    585    571    572    587     1  0.0000000  0.0000000  2
    586    571    572    587     1  0.0000000  0.0000000  2
    589    590    592    605     1  0.0000000  0.6508444  3
    589    590    592    606     1  0.0000000  0.6508444  3
    589    591    594    607     1  0.0000000  0.6508444  3
    589    591    594    608     1  0.0000000  0.6508444  3
    589    596    597    611     1  0.0000000  0.6508444  3
    589    596    597    612     1  0.0000000  0.6508444  3
    590    589    591    603     1  0.0000000  0.6508444  3
    590    589    591    604     1  0.0000000  0.6508444  3
    590    589    596    609     1  0.0000000  0.6508444  3
    590    589    596    610     1  0.0000000  0.6508444  3
    591    589    590    601     1  0.0000000  0.6508444  3
    591    589    590    602     1  0.0000000  0.6508444  3
    591    589    596    609     1  0.0000000  0.6508444  3
    591    589    596    610     1  0.0000000  0.6508444  3
    592    590    589    614     1  0.0000000  0.6508444  3
    592    593   1248   1263     1  180.0000771  10.4600000  2
    593    592    590    601     1  0.0000000  0.6508444  3
    593    592    590    602     1  0.0000000  0.6508444  3
    593   1248   1247   1261     1  0.0000000  0.0000000  2
    593   1248   1247   1262     1  0.0000000  0.0000000  2
    594    591    589    614     1  0.0000000  0.6508444  3
    594    595   1274   1289     1  180.0000771  10.4600000  2
    595    594    591    603     1  0.0000000  0.6508444  3
    595    594    591    604     1  0.0000000  0.6508444  3
    595   1274   1273   1287     1  0.0000000  0.0000000  2
    595   1274   1273   1288     1  0.0000000  0.0000000  2
    596    589    590    601     1  0.0000000  0.6508444  3
    596    589    590    602     1  0.0000000  0.6508444  3
    596    589    591    603     1  0.0000000  0.6508444  3
    596    589    591    604     1  0.0000000  0.6508444  3
    596    597    598    613     1  0.0000000  0.0000000  2
    597    596    589    614     1  0.0000000  0.6508444  3
    598    597    596    609     1  0.0000000  0.6508444  3
    598    597    596    610     1  0.0000000  0.6508444  3
    599    593    592    605     1  0.0000000  3.3472000  1
    599    593    592    605     1  0.0000000  0.0000000  2
    599    593    592    605     1  180.0000771  0.3347200  3
    599    593    592    606     1  0.0000000  3.3472000  1
    599    593    592    606     1  0.0000000  0.0000000  2
    599    593    592    606     1  180.0000771  0.3347200  3
    599    593   1248   1263     1  0.0000000  8.3680000  1
    599    593   1248   1263     1  180.0000771  10.4600000  2
    600    595    594    607     1  0.0000000  3.3472000  1
    600    595    594    607     1  0.0000000  0.0000000  2
    600    595    594    607     1  180.0000771  0.3347200  3
    600    595    594    608     1  0.0000000  3.3472000  1
    600    595    594    608     1  0.0000000  0.0000000  2
    600    595    594    608     1  180.0000771  0.3347200  3
    600    595   1274   1289     1  0.0000000  8.3680000  1
    600    595   1274   1289     1  180.0000771  10.4600000  2
    601    590    589    614     1  0.0000000  0.6508444  3
    601    590    592    605     1  0.0000000  0.6508444  3
    601    590    592    606     1  0.0000000  0.6508444  3
    602    590    589    614     1  0.0000000  0.6508444  3
    602    590    592    605     1  0.0000000  0.6508444  3
    602    590    592    606     1  0.0000000  0.6508444  3
    603    591    589    614     1  0.0000000  0.6508444  3
    603    591    594    607     1  0.0000000  0.6508444  3
    603    591    594    608     1  0.0000000  0.6508444  3
    604    591    589    614     1  0.0000000  0.6508444  3
    604    591    594    607     1  0.0000000  0.6508444  3
    604    591    594    608     1  0.0000000  0.6508444  3
    605    592    593   1248     1  180.0000771  0.0000000  2
    606    592    593   1248     1  180.0000771  0.0000000  2
    607    594    595   1274     1  180.0000771  0.0000000  2
    608    594    595   1274     1  180.0000771  0.0000000  2
    609    596    589    614     1  0.0000000  0.6508444  3
    609    596    597    611     1  0.0000000  0.6508444  3
    609    596    597    612     1  0.0000000  0.6508444  3
    610    596    589    614     1  0.0000000  0.6508444  3
    610    596    597    611     1  0.0000000  0.6508444  3
    610    596    597    612     1  0.0000000  0.6508444  3
    611    597    598    613     1  0.0000000  0.0000000  2
    612    597    598    613     1  0.0000000  0.0000000  2
    615    616    618    631     1  0.0000000  0.6508444  3
    615    616    618    632     1  0.0000000  0.6508444  3
    615    617    620    633     1  0.0000000  0.6508444  3
    615    617    620    634     1  0.0000000  0.6508444  3
    615    622    623    637     1  0.0000000  0.6508444  3
    615    622    623    638     1  0.0000000  0.6508444  3
    616    615    617    629     1  0.0000000  0.6508444  3
    616    615    617    630     1  0.0000000  0.6508444  3
    616    615    622    635     1  0.0000000  0.6508444  3
    616    615    622    636     1  0.0000000  0.6508444  3
    617    615    616    627     1  0.0000000  0.6508444  3
    617    615    616    628     1  0.0000000  0.6508444  3
    617    615    622    635     1  0.0000000  0.6508444  3
    617    615    622    636     1  0.0000000  0.6508444  3
    618    616    615    640     1  0.0000000  0.6508444  3
    618    619   1300   1315     1  180.0000771  10.4600000  2
    619    618    616    627     1  0.0000000  0.6508444  3
    619    618    616    628     1  0.0000000  0.6508444  3
    619   1300   1299   1313     1  0.0000000  0.0000000  2
    619   1300   1299   1314     1  0.0000000  0.0000000  2
    620    617    615    640     1  0.0000000  0.6508444  3
    620    621   1326   1341     1  180.0000771  10.4600000  2
    621    620    617    629     1  0.0000000  0.6508444  3
    621    620    617    630     1  0.0000000  0.6508444  3
    621   1326   1325   1339     1  0.0000000  0.0000000  2
    621   1326   1325   1340     1  0.0000000  0.0000000  2
    622    615    616    627     1  0.0000000  0.6508444  3
    622    615    616    628     1  0.0000000  0.6508444  3
    622    615    617    629     1  0.0000000  0.6508444  3
    622    615    617    630     1  0.0000000  0.6508444  3
    622    623    624    639     1  0.0000000  0.0000000  2
    623    622    615    640     1  0.0000000  0.6508444  3
    624    623    622    635     1  0.0000000  0.6508444  3
    624    623    622    636     1  0.0000000  0.6508444  3
    625    619    618    631     1  0.0000000  3.3472000  1
    625    619    618    631     1  0.0000000  0.0000000  2
    625    619    618    631     1  180.0000771  0.3347200  3
    625    619    618    632     1  0.0000000  3.3472000  1
    625    619    618    632     1  0.0000000  0.0000000  2
    625    619    618    632     1  180.0000771  0.3347200  3
    625    619   1300   1315     1  0.0000000  8.3680000  1
    625    619   1300   1315     1  180.0000771  10.4600000  2
    626    621    620    633     1  0.0000000  3.3472000  1
    626    621    620    633     1  0.0000000  0.0000000  2
    626    621    620    633     1  180.0000771  0.3347200  3
    626    621    620    634     1  0.0000000  3.3472000  1
    626    621    620    634     1  0.0000000  0.0000000  2
    626    621    620    634     1  180.0000771  0.3347200  3
    626    621   1326   1341     1  0.0000000  8.3680000  1
    626    621   1326   1341     1  180.0000771  10.4600000  2
    627    616    615    640     1  0.0000000  0.6508444  3
    627    616    618    631     1  0.0000000  0.6508444  3
    627    616    618    632     1  0.0000000  0.6508444  3
    628    616    615    640     1  0.0000000  0.6508444  3
    628    616    618    631     1  0.0000000  0.6508444  3
    628    616    618    632     1  0.0000000  0.6508444  3
    629    617    615    640     1  0.0000000  0.6508444  3
    629    617    620    633     1  0.0000000  0.6508444  3
    629    617    620    634     1  0.0000000  0.6508444  3
    630    617    615    640     1  0.0000000  0.6508444  3
    630    617    620    633     1  0.0000000  0.6508444  3
    630    617    620    634     1  0.0000000  0.6508444  3
    631    618    619   1300     1  180.0000771  0.0000000  2
    632    618    619   1300     1  180.0000771  0.0000000  2
    633    620    621   1326     1  180.0000771  0.0000000  2
    634    620    621   1326     1  180.0000771  0.0000000  2
    635    622    615    640     1  0.0000000  0.6508444  3
    635    622    623    637     1  0.0000000  0.6508444  3
    635    622    623    638     1  0.0000000  0.6508444  3
    636    622    615    640     1  0.0000000  0.6508444  3
    636    622    623    637     1  0.0000000  0.6508444  3
    636    622    623    638     1  0.0000000  0.6508444  3
    637    623    624    639     1  0.0000000  0.0000000  2
    638    623    624    639     1  0.0000000  0.0000000  2
    641    642    644    657     1  0.0000000  0.6508444  3
    641    642    644    658     1  0.0000000  0.6508444  3
    641    643    646    659     1  0.0000000  0.6508444  3
    641    643    646    660     1  0.0000000  0.6508444  3
    641    648    649    663     1  0.0000000  0.6508444  3
    641    648    649    664     1  0.0000000  0.6508444  3
    642    641    643    655     1  0.0000000  0.6508444  3
    642    641    643    656     1  0.0000000  0.6508444  3
    642    641    648    661     1  0.0000000  0.6508444  3
    642    641    648    662     1  0.0000000  0.6508444  3
    643    641    642    653     1  0.0000000  0.6508444  3
    643    641    642    654     1  0.0000000  0.6508444  3
    643    641    648    661     1  0.0000000  0.6508444  3
    643    641    648    662     1  0.0000000  0.6508444  3
    644    642    641    666     1  0.0000000  0.6508444  3
    644    645   1352   1367     1  180.0000771  10.4600000  2
    645    644    642    653     1  0.0000000  0.6508444  3
    645    644    642    654     1  0.0000000  0.6508444  3
    645   1352   1351   1365     1  0.0000000  0.0000000  2
    645   1352   1351   1366     1  0.0000000  0.0000000  2
    646    643    641    666     1  0.0000000  0.6508444  3
    646    647   1378   1393     1  180.0000771  10.4600000  2
    647    646    643    655     1  0.0000000  0.6508444  3
    647    646    643    656     1  0.0000000  0.6508444  3
    647   1378   1377   1391     1  0.0000000  0.0000000  2
    647   1378   1377   1392     1  0.0000000  0.0000000  2
    648    641    642    653     1  0.0000000  0.6508444  3
    648    641    642    654     1  0.0000000  0.6508444  3
    648    641    643    655     1  0.0000000  0.6508444  3
    648    641    643    656     1  0.0000000  0.6508444  3
    648    649    650    665     1  0.0000000  0.0000000  2
    649    648    641    666     1  0.0000000  0.6508444  3
    650    649    648    661     1  0.0000000  0.6508444  3
    650    649    648    662     1  0.0000000  0.6508444  3
    651    645    644    657     1  0.0000000  3.3472000  1
    651    645    644    657     1  0.0000000  0.0000000  2
    651    645    644    657     1  180.0000771  0.3347200  3
    651    645    644    658     1  0.0000000  3.3472000  1
    651    645    644    658     1  0.0000000  0.0000000  2
    651    645    644    658     1  180.0000771  0.3347200  3
    651    645   1352   1367     1  0.0000000  8.3680000  1
    651    645   1352   1367     1  180.0000771  10.4600000  2
    652    647    646    659     1  0.0000000  3.3472000  1
    652    647    646    659     1  0.0000000  0.0000000  2
    652    647    646    659     1  180.0000771  0.3347200  3
    652    647    646    660     1  0.0000000  3.3472000  1
    652    647    646    660     1  0.0000000  0.0000000  2
    652    647    646    660     1  180.0000771  0.3347200  3
    652    647   1378   1393     1  0.0000000  8.3680000  1
    652    647   1378   1393     1  180.0000771  10.4600000  2
    653    642    641    666     1  0.0000000  0.6508444  3
    653    642    644    657     1  0.0000000  0.6508444  3
    653    642    644    658     1  0.0000000  0.6508444  3
    654    642    641    666     1  0.0000000  0.6508444  3
    654    642    644    657     1  0.0000000  0.6508444  3
    654    642    644    658     1  0.0000000  0.6508444  3
    655    643    641    666     1  0.0000000  0.6508444  3
    655    643    646    659     1  0.0000000  0.6508444  3
    655    643    646    660     1  0.0000000  0.6508444  3
    656    643    641    666     1  0.0000000  0.6508444  3
    656    643    646    659     1  0.0000000  0.6508444  3
    656    643    646    660     1  0.0000000  0.6508444  3
    657    644    645   1352     1  180.0000771  0.0000000  2
    658    644    645   1352     1  180.0000771  0.0000000  2
    659    646    647   1378     1  180.0000771  0.0000000  2
    660    646    647   1378     1  180.0000771  0.0000000  2
    661    648    641    666     1  0.0000000  0.6508444  3
    661    648    649    663     1  0.0000000  0.6508444  3
    661    648    649    664     1  0.0000000  0.6508444  3
    662    648    641    666     1  0.0000000  0.6508444  3
    662    648    649    663     1  0.0000000  0.6508444  3
    662    648    649    664     1  0.0000000  0.6508444  3
    663    649    650    665     1  0.0000000  0.0000000  2
    664    649    650    665     1  0.0000000  0.0000000  2
    667    668    670    683     1  0.0000000  0.6508444  3
    667    668    670    684     1  0.0000000  0.6508444  3
    667    669    672    685     1  0.0000000  0.6508444  3
    667    669    672    686     1  0.0000000  0.6508444  3
    667    674    675    689     1  0.0000000  0.6508444  3
    667    674    675    690     1  0.0000000  0.6508444  3
    668    667    669    681     1  0.0000000  0.6508444  3
    668    667    669    682     1  0.0000000  0.6508444  3
    668    667    674    687     1  0.0000000  0.6508444  3
    668    667    674    688     1  0.0000000  0.6508444  3
    669    667    668    679     1  0.0000000  0.6508444  3
    669    667    668    680     1  0.0000000  0.6508444  3
    669    667    674    687     1  0.0000000  0.6508444  3
    669    667    674    688     1  0.0000000  0.6508444  3
    670    668    667    692     1  0.0000000  0.6508444  3
    670    671   1404   1419     1  180.0000771  10.4600000  2
    671    670    668    679     1  0.0000000  0.6508444  3
    671    670    668    680     1  0.0000000  0.6508444  3
    671   1404   1403   1417     1  0.0000000  0.0000000  2
    671   1404   1403   1418     1  0.0000000  0.0000000  2
    672    669    667    692     1  0.0000000  0.6508444  3
    672    673   1430   1445     1  180.0000771  10.4600000  2
    673    672    669    681     1  0.0000000  0.6508444  3
    673    672    669    682     1  0.0000000  0.6508444  3
    673   1430   1429   1443     1  0.0000000  0.0000000  2
    673   1430   1429   1444     1  0.0000000  0.0000000  2
    674    667    668    679     1  0.0000000  0.6508444  3
    674    667    668    680     1  0.0000000  0.6508444  3
    674    667    669    681     1  0.0000000  0.6508444  3
    674    667    669    682     1  0.0000000  0.6508444  3
    674    675    676    691     1  0.0000000  0.0000000  2
    675    674    667    692     1  0.0000000  0.6508444  3
    676    675    674    687     1  0.0000000  0.6508444  3
    676    675    674    688     1  0.0000000  0.6508444  3
    677    671    670    683     1  0.0000000  3.3472000  1
    677    671    670    683     1  0.0000000  0.0000000  2
    677    671    670    683     1  180.0000771  0.3347200  3
    677    671    670    684     1  0.0000000  3.3472000  1
    677    671    670    684     1  0.0000000  0.0000000  2
    677    671    670    684     1  180.0000771  0.3347200  3
    677    671   1404   1419     1  0.0000000  8.3680000  1
    677    671   1404   1419     1  180.0000771  10.4600000  2
    678    673    672    685     1  0.0000000  3.3472000  1
    678    673    672    685     1  0.0000000  0.0000000  2
    678    673    672    685     1  180.0000771  0.3347200  3
    678    673    672    686     1  0.0000000  3.3472000  1
    678    673    672    686     1  0.0000000  0.0000000  2
    678    673    672    686     1  180.0000771  0.3347200  3
    678    673   1430   1445     1  0.0000000  8.3680000  1
    678    673   1430   1445     1  180.0000771  10.4600000  2
    679    668    667    692     1  0.0000000  0.6508444  3
    679    668    670    683     1  0.0000000  0.6508444  3
    679    668    670    684     1  0.0000000  0.6508444  3
    680    668    667    692     1  0.0000000  0.6508444  3
    680    668    670    683     1  0.0000000  0.6508444  3
    680    668    670    684     1  0.0000000  0.6508444  3
    681    669    667    692     1  0.0000000  0.6508444  3
    681    669    672    685     1  0.0000000  0.6508444  3
    681    669    672    686     1  0.0000000  0.6508444  3
    682    669    667    692     1  0.0000000  0.6508444  3
    682    669    672    685     1  0.0000000  0.6508444  3
    682    669    672    686     1  0.0000000  0.6508444  3
    683    670    671   1404     1  180.0000771  0.0000000  2
    684    670    671   1404     1  180.0000771  0.0000000  2
    685    672    673   1430     1  180.0000771  0.0000000  2
    686    672    673   1430     1  180.0000771  0.0000000  2
    687    674    667    692     1  0.0000000  0.6508444  3
    687    674    675    689     1  0.0000000  0.6508444  3
    687    674    675    690     1  0.0000000  0.6508444  3
    688    674    667    692     1  0.0000000  0.6508444  3
    688    674    675    689     1  0.0000000  0.6508444  3
    688    674    675    690     1  0.0000000  0.6508444  3
    689    675    676    691     1  0.0000000  0.0000000  2
    690    675    676    691     1  0.0000000  0.0000000  2
    693    694    696    709     1  0.0000000  0.6508444  3
    693    694    696    710     1  0.0000000  0.6508444  3
    693    695    698    711     1  0.0000000  0.6508444  3
    693    695    698    712     1  0.0000000  0.6508444  3
    693    700    701    715     1  0.0000000  0.6508444  3
    693    700    701    716     1  0.0000000  0.6508444  3
    694    693    695    707     1  0.0000000  0.6508444  3
    694    693    695    708     1  0.0000000  0.6508444  3
    694    693    700    713     1  0.0000000  0.6508444  3
    694    693    700    714     1  0.0000000  0.6508444  3
    695    693    694    705     1  0.0000000  0.6508444  3
    695    693    694    706     1  0.0000000  0.6508444  3
    695    693    700    713     1  0.0000000  0.6508444  3
    695    693    700    714     1  0.0000000  0.6508444  3
    696    694    693    718     1  0.0000000  0.6508444  3
    696    697   1456   1471     1  180.0000771  10.4600000  2
    697    696    694    705     1  0.0000000  0.6508444  3
    697    696    694    706     1  0.0000000  0.6508444  3
    697   1456   1455   1469     1  0.0000000  0.0000000  2
    697   1456   1455   1470     1  0.0000000  0.0000000  2
    698    695    693    718     1  0.0000000  0.6508444  3
    698    699   1482   1497     1  180.0000771  10.4600000  2
    699    698    695    707     1  0.0000000  0.6508444  3
    699    698    695    708     1  0.0000000  0.6508444  3
    699   1482   1481   1495     1  0.0000000  0.0000000  2
    699   1482   1481   1496     1  0.0000000  0.0000000  2
    700    693    694    705     1  0.0000000  0.6508444  3
    700    693    694    706     1  0.0000000  0.6508444  3
    700    693    695    707     1  0.0000000  0.6508444  3
    700    693    695    708     1  0.0000000  0.6508444  3
    700    701    702    717     1  0.0000000  0.0000000  2
    701    700    693    718     1  0.0000000  0.6508444  3
    702    701    700    713     1  0.0000000  0.6508444  3
    702    701    700    714     1  0.0000000  0.6508444  3
    703    697    696    709     1  0.0000000  3.3472000  1
    703    697    696    709     1  0.0000000  0.0000000  2
    703    697    696    709     1  180.0000771  0.3347200  3
    703    697    696    710     1  0.0000000  3.3472000  1
    703    697    696    710     1  0.0000000  0.0000000  2
    703    697    696    710     1  180.0000771  0.3347200  3
    703    697   1456   1471     1  0.0000000  8.3680000  1
    703    697   1456   1471     1  180.0000771  10.4600000  2
    704    699    698    711     1  0.0000000  3.3472000  1
    704    699    698    711     1  0.0000000  0.0000000  2
    704    699    698    711     1  180.0000771  0.3347200  3
    704    699    698    712     1  0.0000000  3.3472000  1
    704    699    698    712     1  0.0000000  0.0000000  2
    704    699    698    712     1  180.0000771  0.3347200  3
    704    699   1482   1497     1  0.0000000  8.3680000  1
    704    699   1482   1497     1  180.0000771  10.4600000  2
    705    694    693    718     1  0.0000000  0.6508444  3
    705    694    696    709     1  0.0000000  0.6508444  3
    705    694    696    710     1  0.0000000  0.6508444  3
    706    694    693    718     1  0.0000000  0.6508444  3
    706    694    696    709     1  0.0000000  0.6508444  3
    706    694    696    710     1  0.0000000  0.6508444  3
    707    695    693    718     1  0.0000000  0.6508444  3
    707    695    698    711     1  0.0000000  0.6508444  3
    707    695    698    712     1  0.0000000  0.6508444  3
    708    695    693    718     1  0.0000000  0.6508444  3
    708    695    698    711     1  0.0000000  0.6508444  3
    708    695    698    712     1  0.0000000  0.6508444  3
    709    696    697   1456     1  180.0000771  0.0000000  2
    710    696    697   1456     1  180.0000771  0.0000000  2
    711    698    699   1482     1  180.0000771  0.0000000  2
    712    698    699   1482     1  180.0000771  0.0000000  2
    713    700    693    718     1  0.0000000  0.6508444  3
    713    700    701    715     1  0.0000000  0.6508444  3
    713    700    701    716     1  0.0000000  0.6508444  3
    714    700    693    718     1  0.0000000  0.6508444  3
    714    700    701    715     1  0.0000000  0.6508444  3
    714    700    701    716     1  0.0000000  0.6508444  3
    715    701    702    717     1  0.0000000  0.0000000  2
    716    701    702    717     1  0.0000000  0.0000000  2
    719    720    722    735     1  0.0000000  0.6508444  3
    719    720    722    736     1  0.0000000  0.6508444  3
    719    721    724    737     1  0.0000000  0.6508444  3
    719    721    724    738     1  0.0000000  0.6508444  3
    719    726    727    741     1  0.0000000  0.6508444  3
    719    726    727    742     1  0.0000000  0.6508444  3
    720    719    721    733     1  0.0000000  0.6508444  3
    720    719    721    734     1  0.0000000  0.6508444  3
    720    719    726    739     1  0.0000000  0.6508444  3
    720    719    726    740     1  0.0000000  0.6508444  3
    721    719    720    731     1  0.0000000  0.6508444  3
    721    719    720    732     1  0.0000000  0.6508444  3
    721    719    726    739     1  0.0000000  0.6508444  3
    721    719    726    740     1  0.0000000  0.6508444  3
    722    720    719    744     1  0.0000000  0.6508444  3
    722    723   1508   1523     1  180.0000771  10.4600000  2
    723    722    720    731     1  0.0000000  0.6508444  3
    723    722    720    732     1  0.0000000  0.6508444  3
    723   1508   1507   1521     1  0.0000000  0.0000000  2
    723   1508   1507   1522     1  0.0000000  0.0000000  2
    724    721    719    744     1  0.0000000  0.6508444  3
    724    725   1534   1549     1  180.0000771  10.4600000  2
    725    724    721    733     1  0.0000000  0.6508444  3
    725    724    721    734     1  0.0000000  0.6508444  3
    725   1534   1533   1547     1  0.0000000  0.0000000  2
    725   1534   1533   1548     1  0.0000000  0.0000000  2
    726    719    720    731     1  0.0000000  0.6508444  3
    726    719    720    732     1  0.0000000  0.6508444  3
    726    719    721    733     1  0.0000000  0.6508444  3
    726    719    721    734     1  0.0000000  0.6508444  3
    726    727    728    743     1  0.0000000  0.0000000  2
    727    726    719    744     1  0.0000000  0.6508444  3
    728    727    726    739     1  0.0000000  0.6508444  3
    728    727    726    740     1  0.0000000  0.6508444  3
    729    723    722    735     1  0.0000000  3.3472000  1
    729    723    722    735     1  0.0000000  0.0000000  2
    729    723    722    735     1  180.0000771  0.3347200  3
    729    723    722    736     1  0.0000000  3.3472000  1
    729    723    722    736     1  0.0000000  0.0000000  2
    729    723    722    736     1  180.0000771  0.3347200  3
    729    723   1508   1523     1  0.0000000  8.3680000  1
    729    723   1508   1523     1  180.0000771  10.4600000  2
    730    725    724    737     1  0.0000000  3.3472000  1
    730    725    724    737     1  0.0000000  0.0000000  2
    730    725    724    737     1  180.0000771  0.3347200  3
    730    725    724    738     1  0.0000000  3.3472000  1
    730    725    724    738     1  0.0000000  0.0000000  2
    730    725    724    738     1  180.0000771  0.3347200  3
    730    725   1534   1549     1  0.0000000  8.3680000  1
    730    725   1534   1549     1  180.0000771  10.4600000  2
    731    720    719    744     1  0.0000000  0.6508444  3
    731    720    722    735     1  0.0000000  0.6508444  3
    731    720    722    736     1  0.0000000  0.6508444  3
    732    720    719    744     1  0.0000000  0.6508444  3
    732    720    722    735     1  0.0000000  0.6508444  3
    732    720    722    736     1  0.0000000  0.6508444  3
    733    721    719    744     1  0.0000000  0.6508444  3
    733    721    724    737     1  0.0000000  0.6508444  3
    733    721    724    738     1  0.0000000  0.6508444  3
    734    721    719    744     1  0.0000000  0.6508444  3
    734    721    724    737     1  0.0000000  0.6508444  3
    734    721    724    738     1  0.0000000  0.6508444  3
    735    722    723   1508     1  180.0000771  0.0000000  2
    736    722    723   1508     1  180.0000771  0.0000000  2
    737    724    725   1534     1  180.0000771  0.0000000  2
    738    724    725   1534     1  180.0000771  0.0000000  2
    739    726    719    744     1  0.0000000  0.6508444  3
    739    726    727    741     1  0.0000000  0.6508444  3
    739    726    727    742     1  0.0000000  0.6508444  3
    740    726    719    744     1  0.0000000  0.6508444  3
    740    726    727    741     1  0.0000000  0.6508444  3
    740    726    727    742     1  0.0000000  0.6508444  3
    741    727    728    743     1  0.0000000  0.0000000  2
    742    727    728    743     1  0.0000000  0.0000000  2
    745    746    748    761     1  0.0000000  0.6508444  3
    745    746    748    762     1  0.0000000  0.6508444  3
    745    747    750    763     1  0.0000000  0.6508444  3
    745    747    750    764     1  0.0000000  0.6508444  3
    745    752    753    767     1  0.0000000  0.6508444  3
    745    752    753    768     1  0.0000000  0.6508444  3
    746    745    747    759     1  0.0000000  0.6508444  3
    746    745    747    760     1  0.0000000  0.6508444  3
    746    745    752    765     1  0.0000000  0.6508444  3
    746    745    752    766     1  0.0000000  0.6508444  3
    747    745    746    757     1  0.0000000  0.6508444  3
    747    745    746    758     1  0.0000000  0.6508444  3
    747    745    752    765     1  0.0000000  0.6508444  3
    747    745    752    766     1  0.0000000  0.6508444  3
    748    746    745    770     1  0.0000000  0.6508444  3
    748    749   1560   1575     1  180.0000771  10.4600000  2
    749    748    746    757     1  0.0000000  0.6508444  3
    749    748    746    758     1  0.0000000  0.6508444  3
    749   1560   1559   1573     1  0.0000000  0.0000000  2
    749   1560   1559   1574     1  0.0000000  0.0000000  2
    750    747    745    770     1  0.0000000  0.6508444  3
    750    751   1586   1601     1  180.0000771  10.4600000  2
    751    750    747    759     1  0.0000000  0.6508444  3
    751    750    747    760     1  0.0000000  0.6508444  3
    751   1586   1585   1599     1  0.0000000  0.0000000  2
    751   1586   1585   1600     1  0.0000000  0.0000000  2
    752    745    746    757     1  0.0000000  0.6508444  3
    752    745    746    758     1  0.0000000  0.6508444  3
    752    745    747    759     1  0.0000000  0.6508444  3
    752    745    747    760     1  0.0000000  0.6508444  3
    752    753    754    769     1  0.0000000  0.0000000  2
    753    752    745    770     1  0.0000000  0.6508444  3
    754    753    752    765     1  0.0000000  0.6508444  3
    754    753    752    766     1  0.0000000  0.6508444  3
    755    749    748    761     1  0.0000000  3.3472000  1
    755    749    748    761     1  0.0000000  0.0000000  2
    755    749    748    761     1  180.0000771  0.3347200  3
    755    749    748    762     1  0.0000000  3.3472000  1
    755    749    748    762     1  0.0000000  0.0000000  2
    755    749    748    762     1  180.0000771  0.3347200  3
    755    749   1560   1575     1  0.0000000  8.3680000  1
    755    749   1560   1575     1  180.0000771  10.4600000  2
    756    751    750    763     1  0.0000000  3.3472000  1
    756    751    750    763     1  0.0000000  0.0000000  2
    756    751    750    763     1  180.0000771  0.3347200  3
    756    751    750    764     1  0.0000000  3.3472000  1
    756    751    750    764     1  0.0000000  0.0000000  2
    756    751    750    764     1  180.0000771  0.3347200  3
    756    751   1586   1601     1  0.0000000  8.3680000  1
    756    751   1586   1601     1  180.0000771  10.4600000  2
    757    746    745    770     1  0.0000000  0.6508444  3
    757    746    748    761     1  0.0000000  0.6508444  3
    757    746    748    762     1  0.0000000  0.6508444  3
    758    746    745    770     1  0.0000000  0.6508444  3
    758    746    748    761     1  0.0000000  0.6508444  3
    758    746    748    762     1  0.0000000  0.6508444  3
    759    747    745    770     1  0.0000000  0.6508444  3
    759    747    750    763     1  0.0000000  0.6508444  3
    759    747    750    764     1  0.0000000  0.6508444  3
    760    747    745    770     1  0.0000000  0.6508444  3
    760    747    750    763     1  0.0000000  0.6508444  3
    760    747    750    764     1  0.0000000  0.6508444  3
    761    748    749   1560     1  180.0000771  0.0000000  2
    762    748    749   1560     1  180.0000771  0.0000000  2
    763    750    751   1586     1  180.0000771  0.0000000  2
    764    750    751   1586     1  180.0000771  0.0000000  2
    765    752    745    770     1  0.0000000  0.6508444  3
    765    752    753    767     1  0.0000000  0.6508444  3
    765    752    753    768     1  0.0000000  0.6508444  3
    766    752    745    770     1  0.0000000  0.6508444  3
    766    752    753    767     1  0.0000000  0.6508444  3
    766    752    753    768     1  0.0000000  0.6508444  3
    767    753    754    769     1  0.0000000  0.0000000  2
    768    753    754    769     1  0.0000000  0.0000000  2
    771    772    774    787     1  0.0000000  0.6508444  3
    771    772    774    788     1  0.0000000  0.6508444  3
    771    773    776    789     1  0.0000000  0.6508444  3
    771    773    776    790     1  0.0000000  0.6508444  3
    771    778    779    793     1  0.0000000  0.6508444  3
    771    778    779    794     1  0.0000000  0.6508444  3
    772    771    773    785     1  0.0000000  0.6508444  3
    772    771    773    786     1  0.0000000  0.6508444  3
    772    771    778    791     1  0.0000000  0.6508444  3
    772    771    778    792     1  0.0000000  0.6508444  3
    773    771    772    783     1  0.0000000  0.6508444  3
    773    771    772    784     1  0.0000000  0.6508444  3
    773    771    778    791     1  0.0000000  0.6508444  3
    773    771    778    792     1  0.0000000  0.6508444  3
    774    772    771    796     1  0.0000000  0.6508444  3
    774    775   1603   1604     1  180.0000771  10.4600000  2
    775    774    772    783     1  0.0000000  0.6508444  3
    775    774    772    784     1  0.0000000  0.6508444  3
    775   1603   1605   1607     1  0.0000000  0.0000000  2
    775   1603   1605   1608     1  0.0000000  0.0000000  2
    776    773    771    796     1  0.0000000  0.6508444  3
    776    777   1615   1616     1  180.0000771  10.4600000  2
    777    776    773    785     1  0.0000000  0.6508444  3
    777    776    773    786     1  0.0000000  0.6508444  3
    777   1615   1617   1619     1  0.0000000  0.0000000  2
    777   1615   1617   1620     1  0.0000000  0.0000000  2
    778    771    772    783     1  0.0000000  0.6508444  3
    778    771    772    784     1  0.0000000  0.6508444  3
    778    771    773    785     1  0.0000000  0.6508444  3
    778    771    773    786     1  0.0000000  0.6508444  3
    778    779    780    795     1  0.0000000  0.0000000  2
    779    778    771    796     1  0.0000000  0.6508444  3
    780    779    778    791     1  0.0000000  0.6508444  3
    780    779    778    792     1  0.0000000  0.6508444  3
    781    775    774    787     1  0.0000000  3.3472000  1
    781    775    774    787     1  0.0000000  0.0000000  2
    781    775    774    787     1  180.0000771  0.3347200  3
    781    775    774    788     1  0.0000000  3.3472000  1
    781    775    774    788     1  0.0000000  0.0000000  2
    781    775    774    788     1  180.0000771  0.3347200  3
    781    775   1603   1604     1  0.0000000  8.3680000  1
    781    775   1603   1604     1  180.0000771  10.4600000  2
    782    777    776    789     1  0.0000000  3.3472000  1
    782    777    776    789     1  0.0000000  0.0000000  2
    782    777    776    789     1  180.0000771  0.3347200  3
    782    777    776    790     1  0.0000000  3.3472000  1
    782    777    776    790     1  0.0000000  0.0000000  2
    782    777    776    790     1  180.0000771  0.3347200  3
    782    777   1615   1616     1  0.0000000  8.3680000  1
    782    777   1615   1616     1  180.0000771  10.4600000  2
    783    772    771    796     1  0.0000000  0.6508444  3
    783    772    774    787     1  0.0000000  0.6508444  3
    783    772    774    788     1  0.0000000  0.6508444  3
    784    772    771    796     1  0.0000000  0.6508444  3
    784    772    774    787     1  0.0000000  0.6508444  3
    784    772    774    788     1  0.0000000  0.6508444  3
    785    773    771    796     1  0.0000000  0.6508444  3
    785    773    776    789     1  0.0000000  0.6508444  3
    785    773    776    790     1  0.0000000  0.6508444  3
    786    773    771    796     1  0.0000000  0.6508444  3
    786    773    776    789     1  0.0000000  0.6508444  3
    786    773    776    790     1  0.0000000  0.6508444  3
    787    774    775   1603     1  180.0000771  0.0000000  2
    788    774    775   1603     1  180.0000771  0.0000000  2
    789    776    777   1615     1  180.0000771  0.0000000  2
    790    776    777   1615     1  180.0000771  0.0000000  2
    791    778    771    796     1  0.0000000  0.6508444  3
    791    778    779    793     1  0.0000000  0.6508444  3
    791    778    779    794     1  0.0000000  0.6508444  3
    792    778    771    796     1  0.0000000  0.6508444  3
    792    778    779    793     1  0.0000000  0.6508444  3
    792    778    779    794     1  0.0000000  0.6508444  3
    793    779    780    795     1  0.0000000  0.0000000  2
    794    779    780    795     1  0.0000000  0.0000000  2
    797    798    800    813     1  0.0000000  0.6508444  3
    797    798    800    814     1  0.0000000  0.6508444  3
    797    799    802    815     1  0.0000000  0.6508444  3
    797    799    802    816     1  0.0000000  0.6508444  3
    797    804    805    819     1  0.0000000  0.6508444  3
    797    804    805    820     1  0.0000000  0.6508444  3
    798    797    799    811     1  0.0000000  0.6508444  3
    798    797    799    812     1  0.0000000  0.6508444  3
    798    797    804    817     1  0.0000000  0.6508444  3
    798    797    804    818     1  0.0000000  0.6508444  3
    799    797    798    809     1  0.0000000  0.6508444  3
    799    797    798    810     1  0.0000000  0.6508444  3
    799    797    804    817     1  0.0000000  0.6508444  3
    799    797    804    818     1  0.0000000  0.6508444  3
    800    798    797    822     1  0.0000000  0.6508444  3
    800    801   1627   1628     1  180.0000771  10.4600000  2
    801    800    798    809     1  0.0000000  0.6508444  3
    801    800    798    810     1  0.0000000  0.6508444  3
    801   1627   1629   1631     1  0.0000000  0.0000000  2
    801   1627   1629   1632     1  0.0000000  0.0000000  2
    802    799    797    822     1  0.0000000  0.6508444  3
    802    803   1639   1640     1  180.0000771  10.4600000  2
    803    802    799    811     1  0.0000000  0.6508444  3
    803    802    799    812     1  0.0000000  0.6508444  3
    803   1639   1641   1643     1  0.0000000  0.0000000  2
    803   1639   1641   1644     1  0.0000000  0.0000000  2
    804    797    798    809     1  0.0000000  0.6508444  3
    804    797    798    810     1  0.0000000  0.6508444  3
    804    797    799    811     1  0.0000000  0.6508444  3
    804    797    799    812     1  0.0000000  0.6508444  3
    804    805    806    821     1  0.0000000  0.0000000  2
    805    804    797    822     1  0.0000000  0.6508444  3
    806    805    804    817     1  0.0000000  0.6508444  3
    806    805    804    818     1  0.0000000  0.6508444  3
    807    801    800    813     1  0.0000000  3.3472000  1
    807    801    800    813     1  0.0000000  0.0000000  2
    807    801    800    813     1  180.0000771  0.3347200  3
    807    801    800    814     1  0.0000000  3.3472000  1
    807    801    800    814     1  0.0000000  0.0000000  2
    807    801    800    814     1  180.0000771  0.3347200  3
    807    801   1627   1628     1  0.0000000  8.3680000  1
    807    801   1627   1628     1  180.0000771  10.4600000  2
    808    803    802    815     1  0.0000000  3.3472000  1
    808    803    802    815     1  0.0000000  0.0000000  2
    808    803    802    815     1  180.0000771  0.3347200  3
    808    803    802    816     1  0.0000000  3.3472000  1
    808    803    802    816     1  0.0000000  0.0000000  2
    808    803    802    816     1  180.0000771  0.3347200  3
    808    803   1639   1640     1  0.0000000  8.3680000  1
    808    803   1639   1640     1  180.0000771  10.4600000  2
    809    798    797    822     1  0.0000000  0.6508444  3
    809    798    800    813     1  0.0000000  0.6508444  3
    809    798    800    814     1  0.0000000  0.6508444  3
    810    798    797    822     1  0.0000000  0.6508444  3
    810    798    800    813     1  0.0000000  0.6508444  3
    810    798    800    814     1  0.0000000  0.6508444  3
    811    799    797    822     1  0.0000000  0.6508444  3
    811    799    802    815     1  0.0000000  0.6508444  3
    811    799    802    816     1  0.0000000  0.6508444  3
    812    799    797    822     1  0.0000000  0.6508444  3
    812    799    802    815     1  0.0000000  0.6508444  3
    812    799    802    816     1  0.0000000  0.6508444  3
    813    800    801   1627     1  180.0000771  0.0000000  2
    814    800    801   1627     1  180.0000771  0.0000000  2
    815    802    803   1639     1  180.0000771  0.0000000  2
    816    802    803   1639     1  180.0000771  0.0000000  2
    817    804    797    822     1  0.0000000  0.6508444  3
    817    804    805    819     1  0.0000000  0.6508444  3
    817    804    805    820     1  0.0000000  0.6508444  3
    818    804    797    822     1  0.0000000  0.6508444  3
    818    804    805    819     1  0.0000000  0.6508444  3
    818    804    805    820     1  0.0000000  0.6508444  3
    819    805    806    821     1  0.0000000  0.0000000  2
    820    805    806    821     1  0.0000000  0.0000000  2
    823    824    826    839     1  0.0000000  0.6508444  3
    823    824    826    840     1  0.0000000  0.6508444  3
    823    825    828    841     1  0.0000000  0.6508444  3
    823    825    828    842     1  0.0000000  0.6508444  3
    823    830    831    845     1  0.0000000  0.6508444  3
    823    830    831    846     1  0.0000000  0.6508444  3
    824    823    825    837     1  0.0000000  0.6508444  3
    824    823    825    838     1  0.0000000  0.6508444  3
    824    823    830    843     1  0.0000000  0.6508444  3
    824    823    830    844     1  0.0000000  0.6508444  3
    825    823    824    835     1  0.0000000  0.6508444  3
    825    823    824    836     1  0.0000000  0.6508444  3
    825    823    830    843     1  0.0000000  0.6508444  3
    825    823    830    844     1  0.0000000  0.6508444  3
    826    824    823    848     1  0.0000000  0.6508444  3
    826    827   1651   1652     1  180.0000771  10.4600000  2
    827    826    824    835     1  0.0000000  0.6508444  3
    827    826    824    836     1  0.0000000  0.6508444  3
    827   1651   1653   1655     1  0.0000000  0.0000000  2
    827   1651   1653   1656     1  0.0000000  0.0000000  2
    828    825    823    848     1  0.0000000  0.6508444  3
    828    829   1663   1664     1  180.0000771  10.4600000  2
    829    828    825    837     1  0.0000000  0.6508444  3
    829    828    825    838     1  0.0000000  0.6508444  3
    829   1663   1665   1667     1  0.0000000  0.0000000  2
    829   1663   1665   1668     1  0.0000000  0.0000000  2
    830    823    824    835     1  0.0000000  0.6508444  3
    830    823    824    836     1  0.0000000  0.6508444  3
    830    823    825    837     1  0.0000000  0.6508444  3
    830    823    825    838     1  0.0000000  0.6508444  3
    830    831    832    847     1  0.0000000  0.0000000  2
    831    830    823    848     1  0.0000000  0.6508444  3
    832    831    830    843     1  0.0000000  0.6508444  3
    832    831    830    844     1  0.0000000  0.6508444  3
    833    827    826    839     1  0.0000000  3.3472000  1
    833    827    826    839     1  0.0000000  0.0000000  2
    833    827    826    839     1  180.0000771  0.3347200  3
    833    827    826    840     1  0.0000000  3.3472000  1
    833    827    826    840     1  0.0000000  0.0000000  2
    833    827    826    840     1  180.0000771  0.3347200  3
    833    827   1651   1652     1  0.0000000  8.3680000  1
    833    827   1651   1652     1  180.0000771  10.4600000  2
    834    829    828    841     1  0.0000000  3.3472000  1
    834    829    828    841     1  0.0000000  0.0000000  2
    834    829    828    841     1  180.0000771  0.3347200  3
    834    829    828    842     1  0.0000000  3.3472000  1
    834    829    828    842     1  0.0000000  0.0000000  2
    834    829    828    842     1  180.0000771  0.3347200  3
    834    829   1663   1664     1  0.0000000  8.3680000  1
    834    829   1663   1664     1  180.0000771  10.4600000  2
    835    824    823    848     1  0.0000000  0.6508444  3
    835    824    826    839     1  0.0000000  0.6508444  3
    835    824    826    840     1  0.0000000  0.6508444  3
    836    824    823    848     1  0.0000000  0.6508444  3
    836    824    826    839     1  0.0000000  0.6508444  3
    836    824    826    840     1  0.0000000  0.6508444  3
    837    825    823    848     1  0.0000000  0.6508444  3
    837    825    828    841     1  0.0000000  0.6508444  3
    837    825    828    842     1  0.0000000  0.6508444  3
    838    825    823    848     1  0.0000000  0.6508444  3
    838    825    828    841     1  0.0000000  0.6508444  3
    838    825    828    842     1  0.0000000  0.6508444  3
    839    826    827   1651     1  180.0000771  0.0000000  2
    840    826    827   1651     1  180.0000771  0.0000000  2
    841    828    829   1663     1  180.0000771  0.0000000  2
    842    828    829   1663     1  180.0000771  0.0000000  2
    843    830    823    848     1  0.0000000  0.6508444  3
    843    830    831    845     1  0.0000000  0.6508444  3
    843    830    831    846     1  0.0000000  0.6508444  3
    844    830    823    848     1  0.0000000  0.6508444  3
    844    830    831    845     1  0.0000000  0.6508444  3
    844    830    831    846     1  0.0000000  0.6508444  3
    845    831    832    847     1  0.0000000  0.0000000  2
    846    831    832    847     1  0.0000000  0.0000000  2
    849    850    852    865     1  0.0000000  0.6508444  3
    849    850    852    866     1  0.0000000  0.6508444  3
    849    851    854    867     1  0.0000000  0.6508444  3
    849    851    854    868     1  0.0000000  0.6508444  3
    849    856    857    871     1  0.0000000  0.6508444  3
    849    856    857    872     1  0.0000000  0.6508444  3
    850    849    851    863     1  0.0000000  0.6508444  3
    850    849    851    864     1  0.0000000  0.6508444  3
    850    849    856    869     1  0.0000000  0.6508444  3
    850    849    856    870     1  0.0000000  0.6508444  3
    851    849    850    861     1  0.0000000  0.6508444  3
    851    849    850    862     1  0.0000000  0.6508444  3
    851    849    856    869     1  0.0000000  0.6508444  3
    851    849    856    870     1  0.0000000  0.6508444  3
    852    850    849    874     1  0.0000000  0.6508444  3
    852    853   1675   1676     1  180.0000771  10.4600000  2
    853    852    850    861     1  0.0000000  0.6508444  3
    853    852    850    862     1  0.0000000  0.6508444  3
    853   1675   1677   1679     1  0.0000000  0.0000000  2
    853   1675   1677   1680     1  0.0000000  0.0000000  2
    854    851    849    874     1  0.0000000  0.6508444  3
    854    855   1687   1688     1  180.0000771  10.4600000  2
    855    854    851    863     1  0.0000000  0.6508444  3
    855    854    851    864     1  0.0000000  0.6508444  3
    855   1687   1689   1691     1  0.0000000  0.0000000  2
    855   1687   1689   1692     1  0.0000000  0.0000000  2
    856    849    850    861     1  0.0000000  0.6508444  3
    856    849    850    862     1  0.0000000  0.6508444  3
    856    849    851    863     1  0.0000000  0.6508444  3
    856    849    851    864     1  0.0000000  0.6508444  3
    856    857    858    873     1  0.0000000  0.0000000  2
    857    856    849    874     1  0.0000000  0.6508444  3
    858    857    856    869     1  0.0000000  0.6508444  3
    858    857    856    870     1  0.0000000  0.6508444  3
    859    853    852    865     1  0.0000000  3.3472000  1
    859    853    852    865     1  0.0000000  0.0000000  2
    859    853    852    865     1  180.0000771  0.3347200  3
    859    853    852    866     1  0.0000000  3.3472000  1
    859    853    852    866     1  0.0000000  0.0000000  2
    859    853    852    866     1  180.0000771  0.3347200  3
    859    853   1675   1676     1  0.0000000  8.3680000  1
    859    853   1675   1676     1  180.0000771  10.4600000  2
    860    855    854    867     1  0.0000000  3.3472000  1
    860    855    854    867     1  0.0000000  0.0000000  2
    860    855    854    867     1  180.0000771  0.3347200  3
    860    855    854    868     1  0.0000000  3.3472000  1
    860    855    854    868     1  0.0000000  0.0000000  2
    860    855    854    868     1  180.0000771  0.3347200  3
    860    855   1687   1688     1  0.0000000  8.3680000  1
    860    855   1687   1688     1  180.0000771  10.4600000  2
    861    850    849    874     1  0.0000000  0.6508444  3
    861    850    852    865     1  0.0000000  0.6508444  3
    861    850    852    866     1  0.0000000  0.6508444  3
    862    850    849    874     1  0.0000000  0.6508444  3
    862    850    852    865     1  0.0000000  0.6508444  3
    862    850    852    866     1  0.0000000  0.6508444  3
    863    851    849    874     1  0.0000000  0.6508444  3
    863    851    854    867     1  0.0000000  0.6508444  3
    863    851    854    868     1  0.0000000  0.6508444  3
    864    851    849    874     1  0.0000000  0.6508444  3
    864    851    854    867     1  0.0000000  0.6508444  3
    864    851    854    868     1  0.0000000  0.6508444  3
    865    852    853   1675     1  180.0000771  0.0000000  2
    866    852    853   1675     1  180.0000771  0.0000000  2
    867    854    855   1687     1  180.0000771  0.0000000  2
    868    854    855   1687     1  180.0000771  0.0000000  2
    869    856    849    874     1  0.0000000  0.6508444  3
    869    856    857    871     1  0.0000000  0.6508444  3
    869    856    857    872     1  0.0000000  0.6508444  3
    870    856    849    874     1  0.0000000  0.6508444  3
    870    856    857    871     1  0.0000000  0.6508444  3
    870    856    857    872     1  0.0000000  0.6508444  3
    871    857    858    873     1  0.0000000  0.0000000  2
    872    857    858    873     1  0.0000000  0.0000000  2
    875    876    878    891     1  0.0000000  0.6508444  3
    875    876    878    892     1  0.0000000  0.6508444  3
    875    877    880    893     1  0.0000000  0.6508444  3
    875    877    880    894     1  0.0000000  0.6508444  3
    875    882    883    897     1  0.0000000  0.6508444  3
    875    882    883    898     1  0.0000000  0.6508444  3
    876    875    877    889     1  0.0000000  0.6508444  3
    876    875    877    890     1  0.0000000  0.6508444  3
    876    875    882    895     1  0.0000000  0.6508444  3
    876    875    882    896     1  0.0000000  0.6508444  3
    877    875    876    887     1  0.0000000  0.6508444  3
    877    875    876    888     1  0.0000000  0.6508444  3
    877    875    882    895     1  0.0000000  0.6508444  3
    877    875    882    896     1  0.0000000  0.6508444  3
    878    876    875    900     1  0.0000000  0.6508444  3
    878    879   1699   1700     1  180.0000771  10.4600000  2
    879    878    876    887     1  0.0000000  0.6508444  3
    879    878    876    888     1  0.0000000  0.6508444  3
    879   1699   1701   1703     1  0.0000000  0.0000000  2
    879   1699   1701   1704     1  0.0000000  0.0000000  2
    880    877    875    900     1  0.0000000  0.6508444  3
    880    881   1711   1712     1  180.0000771  10.4600000  2
    881    880    877    889     1  0.0000000  0.6508444  3
    881    880    877    890     1  0.0000000  0.6508444  3
    881   1711   1713   1715     1  0.0000000  0.0000000  2
    881   1711   1713   1716     1  0.0000000  0.0000000  2
    882    875    876    887     1  0.0000000  0.6508444  3
    882    875    876    888     1  0.0000000  0.6508444  3
    882    875    877    889     1  0.0000000  0.6508444  3
    882    875    877    890     1  0.0000000  0.6508444  3
    882    883    884    899     1  0.0000000  0.0000000  2
    883    882    875    900     1  0.0000000  0.6508444  3
    884    883    882    895     1  0.0000000  0.6508444  3
    884    883    882    896     1  0.0000000  0.6508444  3
    885    879    878    891     1  0.0000000  3.3472000  1
    885    879    878    891     1  0.0000000  0.0000000  2
    885    879    878    891     1  180.0000771  0.3347200  3
    885    879    878    892     1  0.0000000  3.3472000  1
    885    879    878    892     1  0.0000000  0.0000000  2
    885    879    878    892     1  180.0000771  0.3347200  3
    885    879   1699   1700     1  0.0000000  8.3680000  1
    885    879   1699   1700     1  180.0000771  10.4600000  2
    886    881    880    893     1  0.0000000  3.3472000  1
    886    881    880    893     1  0.0000000  0.0000000  2
    886    881    880    893     1  180.0000771  0.3347200  3
    886    881    880    894     1  0.0000000  3.3472000  1
    886    881    880    894     1  0.0000000  0.0000000  2
    886    881    880    894     1  180.0000771  0.3347200  3
    886    881   1711   1712     1  0.0000000  8.3680000  1
    886    881   1711   1712     1  180.0000771  10.4600000  2
    887    876    875    900     1  0.0000000  0.6508444  3
    887    876    878    891     1  0.0000000  0.6508444  3
    887    876    878    892     1  0.0000000  0.6508444  3
    888    876    875    900     1  0.0000000  0.6508444  3
    888    876    878    891     1  0.0000000  0.6508444  3
    888    876    878    892     1  0.0000000  0.6508444  3
    889    877    875    900     1  0.0000000  0.6508444  3
    889    877    880    893     1  0.0000000  0.6508444  3
    889    877    880    894     1  0.0000000  0.6508444  3
    890    877    875    900     1  0.0000000  0.6508444  3
    890    877    880    893     1  0.0000000  0.6508444  3
    890    877    880    894     1  0.0000000  0.6508444  3
    891    878    879   1699     1  180.0000771  0.0000000  2
    892    878    879   1699     1  180.0000771  0.0000000  2
    893    880    881   1711     1  180.0000771  0.0000000  2
    894    880    881   1711     1  180.0000771  0.0000000  2
    895    882    875    900     1  0.0000000  0.6508444  3
    895    882    883    897     1  0.0000000  0.6508444  3
    895    882    883    898     1  0.0000000  0.6508444  3
    896    882    875    900     1  0.0000000  0.6508444  3
    896    882    883    897     1  0.0000000  0.6508444  3
    896    882    883    898     1  0.0000000  0.6508444  3
    897    883    884    899     1  0.0000000  0.0000000  2
    898    883    884    899     1  0.0000000  0.0000000  2
    901    902    904    917     1  0.0000000  0.6508444  3
    901    902    904    918     1  0.0000000  0.6508444  3
    901    903    906    919     1  0.0000000  0.6508444  3
    901    903    906    920     1  0.0000000  0.6508444  3
    901    908    909    923     1  0.0000000  0.6508444  3
    901    908    909    924     1  0.0000000  0.6508444  3
    902    901    903    915     1  0.0000000  0.6508444  3
    902    901    903    916     1  0.0000000  0.6508444  3
    902    901    908    921     1  0.0000000  0.6508444  3
    902    901    908    922     1  0.0000000  0.6508444  3
    903    901    902    913     1  0.0000000  0.6508444  3
    903    901    902    914     1  0.0000000  0.6508444  3
    903    901    908    921     1  0.0000000  0.6508444  3
    903    901    908    922     1  0.0000000  0.6508444  3
    904    902    901    926     1  0.0000000  0.6508444  3
    904    905   1723   1724     1  180.0000771  10.4600000  2
    905    904    902    913     1  0.0000000  0.6508444  3
    905    904    902    914     1  0.0000000  0.6508444  3
    905   1723   1725   1727     1  0.0000000  0.0000000  2
    905   1723   1725   1728     1  0.0000000  0.0000000  2
    906    903    901    926     1  0.0000000  0.6508444  3
    906    907   1735   1736     1  180.0000771  10.4600000  2
    907    906    903    915     1  0.0000000  0.6508444  3
    907    906    903    916     1  0.0000000  0.6508444  3
    907   1735   1737   1739     1  0.0000000  0.0000000  2
    907   1735   1737   1740     1  0.0000000  0.0000000  2
    908    901    902    913     1  0.0000000  0.6508444  3
    908    901    902    914     1  0.0000000  0.6508444  3
    908    901    903    915     1  0.0000000  0.6508444  3
    908    901    903    916     1  0.0000000  0.6508444  3
    908    909    910    925     1  0.0000000  0.0000000  2
    909    908    901    926     1  0.0000000  0.6508444  3
    910    909    908    921     1  0.0000000  0.6508444  3
    910    909    908    922     1  0.0000000  0.6508444  3
    911    905    904    917     1  0.0000000  3.3472000  1
    911    905    904    917     1  0.0000000  0.0000000  2
    911    905    904    917     1  180.0000771  0.3347200  3
    911    905    904    918     1  0.0000000  3.3472000  1
    911    905    904    918     1  0.0000000  0.0000000  2
    911    905    904    918     1  180.0000771  0.3347200  3
    911    905   1723   1724     1  0.0000000  8.3680000  1
    911    905   1723   1724     1  180.0000771  10.4600000  2
    912    907    906    919     1  0.0000000  3.3472000  1
    912    907    906    919     1  0.0000000  0.0000000  2
    912    907    906    919     1  180.0000771  0.3347200  3
    912    907    906    920     1  0.0000000  3.3472000  1
    912    907    906    920     1  0.0000000  0.0000000  2
    912    907    906    920     1  180.0000771  0.3347200  3
    912    907   1735   1736     1  0.0000000  8.3680000  1
    912    907   1735   1736     1  180.0000771  10.4600000  2
    913    902    901    926     1  0.0000000  0.6508444  3
    913    902    904    917     1  0.0000000  0.6508444  3
    913    902    904    918     1  0.0000000  0.6508444  3
    914    902    901    926     1  0.0000000  0.6508444  3
    914    902    904    917     1  0.0000000  0.6508444  3
    914    902    904    918     1  0.0000000  0.6508444  3
    915    903    901    926     1  0.0000000  0.6508444  3
    915    903    906    919     1  0.0000000  0.6508444  3
    915    903    906    920     1  0.0000000  0.6508444  3
    916    903    901    926     1  0.0000000  0.6508444  3
    916    903    906    919     1  0.0000000  0.6508444  3
    916    903    906    920     1  0.0000000  0.6508444  3
    917    904    905   1723     1  180.0000771  0.0000000  2
    918    904    905   1723     1  180.0000771  0.0000000  2
    919    906    907   1735     1  180.0000771  0.0000000  2
    920    906    907   1735     1  180.0000771  0.0000000  2
    921    908    901    926     1  0.0000000  0.6508444  3
    921    908    909    923     1  0.0000000  0.6508444  3
    921    908    909    924     1  0.0000000  0.6508444  3
    922    908    901    926     1  0.0000000  0.6508444  3
    922    908    909    923     1  0.0000000  0.6508444  3
    922    908    909    924     1  0.0000000  0.6508444  3
    923    909    910    925     1  0.0000000  0.0000000  2
    924    909    910    925     1  0.0000000  0.0000000  2
    927    928    930    943     1  0.0000000  0.6508444  3
    927    928    930    944     1  0.0000000  0.6508444  3
    927    929    932    945     1  0.0000000  0.6508444  3
    927    929    932    946     1  0.0000000  0.6508444  3
    927    934    935    949     1  0.0000000  0.6508444  3
    927    934    935    950     1  0.0000000  0.6508444  3
    928    927    929    941     1  0.0000000  0.6508444  3
    928    927    929    942     1  0.0000000  0.6508444  3
    928    927    934    947     1  0.0000000  0.6508444  3
    928    927    934    948     1  0.0000000  0.6508444  3
    929    927    928    939     1  0.0000000  0.6508444  3
    929    927    928    940     1  0.0000000  0.6508444  3
    929    927    934    947     1  0.0000000  0.6508444  3
    929    927    934    948     1  0.0000000  0.6508444  3
    930    928    927    952     1  0.0000000  0.6508444  3
    930    931   1747   1748     1  180.0000771  10.4600000  2
    931    930    928    939     1  0.0000000  0.6508444  3
    931    930    928    940     1  0.0000000  0.6508444  3
    931   1747   1749   1751     1  0.0000000  0.0000000  2
    931   1747   1749   1752     1  0.0000000  0.0000000  2
    932    929    927    952     1  0.0000000  0.6508444  3
    932    933   1759   1760     1  180.0000771  10.4600000  2
    933    932    929    941     1  0.0000000  0.6508444  3
    933    932    929    942     1  0.0000000  0.6508444  3
    933   1759   1761   1763     1  0.0000000  0.0000000  2
    933   1759   1761   1764     1  0.0000000  0.0000000  2
    934    927    928    939     1  0.0000000  0.6508444  3
    934    927    928    940     1  0.0000000  0.6508444  3
    934    927    929    941     1  0.0000000  0.6508444  3
    934    927    929    942     1  0.0000000  0.6508444  3
    934    935    936    951     1  0.0000000  0.0000000  2
    935    934    927    952     1  0.0000000  0.6508444  3
    936    935    934    947     1  0.0000000  0.6508444  3
    936    935    934    948     1  0.0000000  0.6508444  3
    937    931    930    943     1  0.0000000  3.3472000  1
    937    931    930    943     1  0.0000000  0.0000000  2
    937    931    930    943     1  180.0000771  0.3347200  3
    937    931    930    944     1  0.0000000  3.3472000  1
    937    931    930    944     1  0.0000000  0.0000000  2
    937    931    930    944     1  180.0000771  0.3347200  3
    937    931   1747   1748     1  0.0000000  8.3680000  1
    937    931   1747   1748     1  180.0000771  10.4600000  2
    938    933    932    945     1  0.0000000  3.3472000  1
    938    933    932    945     1  0.0000000  0.0000000  2
    938    933    932    945     1  180.0000771  0.3347200  3
    938    933    932    946     1  0.0000000  3.3472000  1
    938    933    932    946     1  0.0000000  0.0000000  2
    938    933    932    946     1  180.0000771  0.3347200  3
    938    933   1759   1760     1  0.0000000  8.3680000  1
    938    933   1759   1760     1  180.0000771  10.4600000  2
    939    928    927    952     1  0.0000000  0.6508444  3
    939    928    930    943     1  0.0000000  0.6508444  3
    939    928    930    944     1  0.0000000  0.6508444  3
    940    928    927    952     1  0.0000000  0.6508444  3
    940    928    930    943     1  0.0000000  0.6508444  3
    940    928    930    944     1  0.0000000  0.6508444  3
    941    929    927    952     1  0.0000000  0.6508444  3
    941    929    932    945     1  0.0000000  0.6508444  3
    941    929    932    946     1  0.0000000  0.6508444  3
    942    929    927    952     1  0.0000000  0.6508444  3
    942    929    932    945     1  0.0000000  0.6508444  3
    942    929    932    946     1  0.0000000  0.6508444  3
    943    930    931   1747     1  180.0000771  0.0000000  2
    944    930    931   1747     1  180.0000771  0.0000000  2
    945    932    933   1759     1  180.0000771  0.0000000  2
    946    932    933   1759     1  180.0000771  0.0000000  2
    947    934    927    952     1  0.0000000  0.6508444  3
    947    934    935    949     1  0.0000000  0.6508444  3
    947    934    935    950     1  0.0000000  0.6508444  3
    948    934    927    952     1  0.0000000  0.6508444  3
    948    934    935    949     1  0.0000000  0.6508444  3
    948    934    935    950     1  0.0000000  0.6508444  3
    949    935    936    951     1  0.0000000  0.0000000  2
    950    935    936    951     1  0.0000000  0.0000000  2
    953    954    956    969     1  0.0000000  0.6508444  3
    953    954    956    970     1  0.0000000  0.6508444  3
    953    955    958    971     1  0.0000000  0.6508444  3
    953    955    958    972     1  0.0000000  0.6508444  3
    953    960    961    975     1  0.0000000  0.6508444  3
    953    960    961    976     1  0.0000000  0.6508444  3
    954    953    955    967     1  0.0000000  0.6508444  3
    954    953    955    968     1  0.0000000  0.6508444  3
    954    953    960    973     1  0.0000000  0.6508444  3
    954    953    960    974     1  0.0000000  0.6508444  3
    955    953    954    965     1  0.0000000  0.6508444  3
    955    953    954    966     1  0.0000000  0.6508444  3
    955    953    960    973     1  0.0000000  0.6508444  3
    955    953    960    974     1  0.0000000  0.6508444  3
    956    954    953    978     1  0.0000000  0.6508444  3
    956    957   1771   1772     1  180.0000771  10.4600000  2
    957    956    954    965     1  0.0000000  0.6508444  3
    957    956    954    966     1  0.0000000  0.6508444  3
    957   1771   1773   1775     1  0.0000000  0.0000000  2
    957   1771   1773   1776     1  0.0000000  0.0000000  2
    958    955    953    978     1  0.0000000  0.6508444  3
    958    959   1783   1784     1  180.0000771  10.4600000  2
    959    958    955    967     1  0.0000000  0.6508444  3
    959    958    955    968     1  0.0000000  0.6508444  3
    959   1783   1785   1787     1  0.0000000  0.0000000  2
    959   1783   1785   1788     1  0.0000000  0.0000000  2
    960    953    954    965     1  0.0000000  0.6508444  3
    960    953    954    966     1  0.0000000  0.6508444  3
    960    953    955    967     1  0.0000000  0.6508444  3
    960    953    955    968     1  0.0000000  0.6508444  3
    960    961    962    977     1  0.0000000  0.0000000  2
    961    960    953    978     1  0.0000000  0.6508444  3
    962    961    960    973     1  0.0000000  0.6508444  3
    962    961    960    974     1  0.0000000  0.6508444  3
    963    957    956    969     1  0.0000000  3.3472000  1
    963    957    956    969     1  0.0000000  0.0000000  2
    963    957    956    969     1  180.0000771  0.3347200  3
    963    957    956    970     1  0.0000000  3.3472000  1
    963    957    956    970     1  0.0000000  0.0000000  2
    963    957    956    970     1  180.0000771  0.3347200  3
    963    957   1771   1772     1  0.0000000  8.3680000  1
    963    957   1771   1772     1  180.0000771  10.4600000  2
    964    959    958    971     1  0.0000000  3.3472000  1
    964    959    958    971     1  0.0000000  0.0000000  2
    964    959    958    971     1  180.0000771  0.3347200  3
    964    959    958    972     1  0.0000000  3.3472000  1
    964    959    958    972     1  0.0000000  0.0000000  2
    964    959    958    972     1  180.0000771  0.3347200  3
    964    959   1783   1784     1  0.0000000  8.3680000  1
    964    959   1783   1784     1  180.0000771  10.4600000  2
    965    954    953    978     1  0.0000000  0.6508444  3
    965    954    956    969     1  0.0000000  0.6508444  3
    965    954    956    970     1  0.0000000  0.6508444  3
    966    954    953    978     1  0.0000000  0.6508444  3
    966    954    956    969     1  0.0000000  0.6508444  3
    966    954    956    970     1  0.0000000  0.6508444  3
    967    955    953    978     1  0.0000000  0.6508444  3
    967    955    958    971     1  0.0000000  0.6508444  3
    967    955    958    972     1  0.0000000  0.6508444  3
    968    955    953    978     1  0.0000000  0.6508444  3
    968    955    958    971     1  0.0000000  0.6508444  3
    968    955    958    972     1  0.0000000  0.6508444  3
    969    956    957   1771     1  180.0000771  0.0000000  2
    970    956    957   1771     1  180.0000771  0.0000000  2
    971    958    959   1783     1  180.0000771  0.0000000  2
    972    958    959   1783     1  180.0000771  0.0000000  2
    973    960    953    978     1  0.0000000  0.6508444  3
    973    960    961    975     1  0.0000000  0.6508444  3
    973    960    961    976     1  0.0000000  0.6508444  3
    974    960    953    978     1  0.0000000  0.6508444  3
    974    960    961    975     1  0.0000000  0.6508444  3
    974    960    961    976     1  0.0000000  0.6508444  3
    975    961    962    977     1  0.0000000  0.0000000  2
    976    961    962    977     1  0.0000000  0.0000000  2
    979    980    982    995     1  0.0000000  0.6508444  3
    979    980    982    996     1  0.0000000  0.6508444  3
    979    981    984    997     1  0.0000000  0.6508444  3
    979    981    984    998     1  0.0000000  0.6508444  3
    979    986    987   1001     1  0.0000000  0.6508444  3
    979    986    987   1002     1  0.0000000  0.6508444  3
    980    979    981    993     1  0.0000000  0.6508444  3
    980    979    981    994     1  0.0000000  0.6508444  3
    980    979    986    999     1  0.0000000  0.6508444  3
    980    979    986   1000     1  0.0000000  0.6508444  3
    981    979    980    991     1  0.0000000  0.6508444  3
    981    979    980    992     1  0.0000000  0.6508444  3
    981    979    986    999     1  0.0000000  0.6508444  3
    981    979    986   1000     1  0.0000000  0.6508444  3
    982    980    979   1004     1  0.0000000  0.6508444  3
    982    983   1795   1796     1  180.0000771  10.4600000  2
    983    982    980    991     1  0.0000000  0.6508444  3
    983    982    980    992     1  0.0000000  0.6508444  3
    983   1795   1797   1799     1  0.0000000  0.0000000  2
    983   1795   1797   1800     1  0.0000000  0.0000000  2
    984    981    979   1004     1  0.0000000  0.6508444  3
    984    985   1807   1808     1  180.0000771  10.4600000  2
    985    984    981    993     1  0.0000000  0.6508444  3
    985    984    981    994     1  0.0000000  0.6508444  3
    985   1807   1809   1811     1  0.0000000  0.0000000  2
    985   1807   1809   1812     1  0.0000000  0.0000000  2
    986    979    980    991     1  0.0000000  0.6508444  3
    986    979    980    992     1  0.0000000  0.6508444  3
    986    979    981    993     1  0.0000000  0.6508444  3
    986    979    981    994     1  0.0000000  0.6508444  3
    986    987    988   1003     1  0.0000000  0.0000000  2
    987    986    979   1004     1  0.0000000  0.6508444  3
    988    987    986    999     1  0.0000000  0.6508444  3
    988    987    986   1000     1  0.0000000  0.6508444  3
    989    983    982    995     1  0.0000000  3.3472000  1
    989    983    982    995     1  0.0000000  0.0000000  2
    989    983    982    995     1  180.0000771  0.3347200  3
    989    983    982    996     1  0.0000000  3.3472000  1
    989    983    982    996     1  0.0000000  0.0000000  2
    989    983    982    996     1  180.0000771  0.3347200  3
    989    983   1795   1796     1  0.0000000  8.3680000  1
    989    983   1795   1796     1  180.0000771  10.4600000  2
    990    985    984    997     1  0.0000000  3.3472000  1
    990    985    984    997     1  0.0000000  0.0000000  2
    990    985    984    997     1  180.0000771  0.3347200  3
    990    985    984    998     1  0.0000000  3.3472000  1
    990    985    984    998     1  0.0000000  0.0000000  2
    990    985    984    998     1  180.0000771  0.3347200  3
    990    985   1807   1808     1  0.0000000  8.3680000  1
    990    985   1807   1808     1  180.0000771  10.4600000  2
    991    980    979   1004     1  0.0000000  0.6508444  3
    991    980    982    995     1  0.0000000  0.6508444  3
    991    980    982    996     1  0.0000000  0.6508444  3
    992    980    979   1004     1  0.0000000  0.6508444  3
    992    980    982    995     1  0.0000000  0.6508444  3
    992    980    982    996     1  0.0000000  0.6508444  3
    993    981    979   1004     1  0.0000000  0.6508444  3
    993    981    984    997     1  0.0000000  0.6508444  3
    993    981    984    998     1  0.0000000  0.6508444  3
    994    981    979   1004     1  0.0000000  0.6508444  3
    994    981    984    997     1  0.0000000  0.6508444  3
    994    981    984    998     1  0.0000000  0.6508444  3
    995    982    983   1795     1  180.0000771  0.0000000  2
    996    982    983   1795     1  180.0000771  0.0000000  2
    997    984    985   1807     1  180.0000771  0.0000000  2
    998    984    985   1807     1  180.0000771  0.0000000  2
    999    986    979   1004     1  0.0000000  0.6508444  3
    999    986    987   1001     1  0.0000000  0.6508444  3
    999    986    987   1002     1  0.0000000  0.6508444  3
   1000    986    979   1004     1  0.0000000  0.6508444  3
   1000    986    987   1001     1  0.0000000  0.6508444  3
   1000    986    987   1002     1  0.0000000  0.6508444  3
   1001    987    988   1003     1  0.0000000  0.0000000  2
   1002    987    988   1003     1  0.0000000  0.0000000  2
   1005   1006   1008   1021     1  0.0000000  0.6508444  3
   1005   1006   1008   1022     1  0.0000000  0.6508444  3
   1005   1007   1010   1023     1  0.0000000  0.6508444  3
   1005   1007   1010   1024     1  0.0000000  0.6508444  3
   1005   1012   1013   1027     1  0.0000000  0.6508444  3
   1005   1012   1013   1028     1  0.0000000  0.6508444  3
   1006   1005   1007   1019     1  0.0000000  0.6508444  3
   1006   1005   1007   1020     1  0.0000000  0.6508444  3
   1006   1005   1012   1025     1  0.0000000  0.6508444  3
   1006   1005   1012   1026     1  0.0000000  0.6508444  3
   1007   1005   1006   1017     1  0.0000000  0.6508444  3
   1007   1005   1006   1018     1  0.0000000  0.6508444  3
   1007   1005   1012   1025     1  0.0000000  0.6508444  3
   1007   1005   1012   1026     1  0.0000000  0.6508444  3
   1008   1006   1005   1030     1  0.0000000  0.6508444  3
   1008   1009   1819   1820     1  180.0000771  10.4600000  2
   1009   1008   1006   1017     1  0.0000000  0.6508444  3
   1009   1008   1006   1018     1  0.0000000  0.6508444  3
   1009   1819   1821   1823     1  0.0000000  0.0000000  2
   1009   1819   1821   1824     1  0.0000000  0.0000000  2
   1010   1007   1005   1030     1  0.0000000  0.6508444  3
   1010   1011   1831   1832     1  180.0000771  10.4600000  2
   1011   1010   1007   1019     1  0.0000000  0.6508444  3
   1011   1010   1007   1020     1  0.0000000  0.6508444  3
   1011   1831   1833   1835     1  0.0000000  0.0000000  2
   1011   1831   1833   1836     1  0.0000000  0.0000000  2
   1012   1005   1006   1017     1  0.0000000  0.6508444  3
   1012   1005   1006   1018     1  0.0000000  0.6508444  3
   1012   1005   1007   1019     1  0.0000000  0.6508444  3
   1012   1005   1007   1020     1  0.0000000  0.6508444  3
   1012   1013   1014   1029     1  0.0000000  0.0000000  2
   1013   1012   1005   1030     1  0.0000000  0.6508444  3
   1014   1013   1012   1025     1  0.0000000  0.6508444  3
   1014   1013   1012   1026     1  0.0000000  0.6508444  3
   1015   1009   1008   1021     1  0.0000000  3.3472000  1
   1015   1009   1008   1021     1  0.0000000  0.0000000  2
   1015   1009   1008   1021     1  180.0000771  0.3347200  3
   1015   1009   1008   1022     1  0.0000000  3.3472000  1
   1015   1009   1008   1022     1  0.0000000  0.0000000  2
   1015   1009   1008   1022     1  180.0000771  0.3347200  3
   1015   1009   1819   1820     1  0.0000000  8.3680000  1
   1015   1009   1819   1820     1  180.0000771  10.4600000  2
   1016   1011   1010   1023     1  0.0000000  3.3472000  1
   1016   1011   1010   1023     1  0.0000000  0.0000000  2
   1016   1011   1010   1023     1  180.0000771  0.3347200  3
   1016   1011   1010   1024     1  0.0000000  3.3472000  1
   1016   1011   1010   1024     1  0.0000000  0.0000000  2
   1016   1011   1010   1024     1  180.0000771  0.3347200  3
   1016   1011   1831   1832     1  0.0000000  8.3680000  1
   1016   1011   1831   1832     1  180.0000771  10.4600000  2
   1017   1006   1005   1030     1  0.0000000  0.6508444  3
   1017   1006   1008   1021     1  0.0000000  0.6508444  3
   1017   1006   1008   1022     1  0.0000000  0.6508444  3
   1018   1006   1005   1030     1  0.0000000  0.6508444  3
   1018   1006   1008   1021     1  0.0000000  0.6508444  3
   1018   1006   1008   1022     1  0.0000000  0.6508444  3
   1019   1007   1005   1030     1  0.0000000  0.6508444  3
   1019   1007   1010   1023     1  0.0000000  0.6508444  3
   1019   1007   1010   1024     1  0.0000000  0.6508444  3
   1020   1007   1005   1030     1  0.0000000  0.6508444  3
   1020   1007   1010   1023     1  0.0000000  0.6508444  3
   1020   1007   1010   1024     1  0.0000000  0.6508444  3
   1021   1008   1009   1819     1  180.0000771  0.0000000  2
   1022   1008   1009   1819     1  180.0000771  0.0000000  2
   1023   1010   1011   1831     1  180.0000771  0.0000000  2
   1024   1010   1011   1831     1  180.0000771  0.0000000  2
   1025   1012   1005   1030     1  0.0000000  0.6508444  3
   1025   1012   1013   1027     1  0.0000000  0.6508444  3
   1025   1012   1013   1028     1  0.0000000  0.6508444  3
   1026   1012   1005   1030     1  0.0000000  0.6508444  3
   1026   1012   1013   1027     1  0.0000000  0.6508444  3
   1026   1012   1013   1028     1  0.0000000  0.6508444  3
   1027   1013   1014   1029     1  0.0000000  0.0000000  2
   1028   1013   1014   1029     1  0.0000000  0.0000000  2
   1031   1032   1034   1047     1  0.0000000  0.6508444  3
   1031   1032   1034   1048     1  0.0000000  0.6508444  3
   1031   1033   1036   1049     1  0.0000000  0.6508444  3
   1031   1033   1036   1050     1  0.0000000  0.6508444  3
   1031   1038   1039   1053     1  0.0000000  0.6508444  3
   1031   1038   1039   1054     1  0.0000000  0.6508444  3
   1032   1031   1033   1045     1  0.0000000  0.6508444  3
   1032   1031   1033   1046     1  0.0000000  0.6508444  3
   1032   1031   1038   1051     1  0.0000000  0.6508444  3
   1032   1031   1038   1052     1  0.0000000  0.6508444  3
   1033   1031   1032   1043     1  0.0000000  0.6508444  3
   1033   1031   1032   1044     1  0.0000000  0.6508444  3
   1033   1031   1038   1051     1  0.0000000  0.6508444  3
   1033   1031   1038   1052     1  0.0000000  0.6508444  3
   1034   1032   1031   1056     1  0.0000000  0.6508444  3
   1034   1035   1843   1844     1  180.0000771  10.4600000  2
   1035   1034   1032   1043     1  0.0000000  0.6508444  3
   1035   1034   1032   1044     1  0.0000000  0.6508444  3
   1035   1843   1845   1847     1  0.0000000  0.0000000  2
   1035   1843   1845   1848     1  0.0000000  0.0000000  2
   1036   1033   1031   1056     1  0.0000000  0.6508444  3
   1036   1037   1855   1856     1  180.0000771  10.4600000  2
   1037   1036   1033   1045     1  0.0000000  0.6508444  3
   1037   1036   1033   1046     1  0.0000000  0.6508444  3
   1037   1855   1857   1859     1  0.0000000  0.0000000  2
   1037   1855   1857   1860     1  0.0000000  0.0000000  2
   1038   1031   1032   1043     1  0.0000000  0.6508444  3
   1038   1031   1032   1044     1  0.0000000  0.6508444  3
   1038   1031   1033   1045     1  0.0000000  0.6508444  3
   1038   1031   1033   1046     1  0.0000000  0.6508444  3
   1038   1039   1040   1055     1  0.0000000  0.0000000  2
   1039   1038   1031   1056     1  0.0000000  0.6508444  3
   1040   1039   1038   1051     1  0.0000000  0.6508444  3
   1040   1039   1038   1052     1  0.0000000  0.6508444  3
   1041   1035   1034   1047     1  0.0000000  3.3472000  1
   1041   1035   1034   1047     1  0.0000000  0.0000000  2
   1041   1035   1034   1047     1  180.0000771  0.3347200  3
   1041   1035   1034   1048     1  0.0000000  3.3472000  1
   1041   1035   1034   1048     1  0.0000000  0.0000000  2
   1041   1035   1034   1048     1  180.0000771  0.3347200  3
   1041   1035   1843   1844     1  0.0000000  8.3680000  1
   1041   1035   1843   1844     1  180.0000771  10.4600000  2
   1042   1037   1036   1049     1  0.0000000  3.3472000  1
   1042   1037   1036   1049     1  0.0000000  0.0000000  2
   1042   1037   1036   1049     1  180.0000771  0.3347200  3
   1042   1037   1036   1050     1  0.0000000  3.3472000  1
   1042   1037   1036   1050     1  0.0000000  0.0000000  2
   1042   1037   1036   1050     1  180.0000771  0.3347200  3
   1042   1037   1855   1856     1  0.0000000  8.3680000  1
   1042   1037   1855   1856     1  180.0000771  10.4600000  2
   1043   1032   1031   1056     1  0.0000000  0.6508444  3
   1043   1032   1034   1047     1  0.0000000  0.6508444  3
   1043   1032   1034   1048     1  0.0000000  0.6508444  3
   1044   1032   1031   1056     1  0.0000000  0.6508444  3
   1044   1032   1034   1047     1  0.0000000  0.6508444  3
   1044   1032   1034   1048     1  0.0000000  0.6508444  3
   1045   1033   1031   1056     1  0.0000000  0.6508444  3
   1045   1033   1036   1049     1  0.0000000  0.6508444  3
   1045   1033   1036   1050     1  0.0000000  0.6508444  3
   1046   1033   1031   1056     1  0.0000000  0.6508444  3
   1046   1033   1036   1049     1  0.0000000  0.6508444  3
   1046   1033   1036   1050     1  0.0000000  0.6508444  3
   1047   1034   1035   1843     1  180.0000771  0.0000000  2
   1048   1034   1035   1843     1  180.0000771  0.0000000  2
   1049   1036   1037   1855     1  180.0000771  0.0000000  2
   1050   1036   1037   1855     1  180.0000771  0.0000000  2
   1051   1038   1031   1056     1  0.0000000  0.6508444  3
   1051   1038   1039   1053     1  0.0000000  0.6508444  3
   1051   1038   1039   1054     1  0.0000000  0.6508444  3
   1052   1038   1031   1056     1  0.0000000  0.6508444  3
   1052   1038   1039   1053     1  0.0000000  0.6508444  3
   1052   1038   1039   1054     1  0.0000000  0.6508444  3
   1053   1039   1040   1055     1  0.0000000  0.0000000  2
   1054   1039   1040   1055     1  0.0000000  0.0000000  2
   1057   1058   1060   1073     1  0.0000000  0.6508444  3
   1057   1058   1060   1074     1  0.0000000  0.6508444  3
   1057   1059   1062   1075     1  0.0000000  0.6508444  3
   1057   1059   1062   1076     1  0.0000000  0.6508444  3
   1057   1064   1065   1079     1  0.0000000  0.6508444  3
   1057   1064   1065   1080     1  0.0000000  0.6508444  3
   1058   1057   1059   1071     1  0.0000000  0.6508444  3
   1058   1057   1059   1072     1  0.0000000  0.6508444  3
   1058   1057   1064   1077     1  0.0000000  0.6508444  3
   1058   1057   1064   1078     1  0.0000000  0.6508444  3
   1059   1057   1058   1069     1  0.0000000  0.6508444  3
   1059   1057   1058   1070     1  0.0000000  0.6508444  3
   1059   1057   1064   1077     1  0.0000000  0.6508444  3
   1059   1057   1064   1078     1  0.0000000  0.6508444  3
   1060   1058   1057   1082     1  0.0000000  0.6508444  3
   1060   1061   1867   1868     1  180.0000771  10.4600000  2
   1061   1060   1058   1069     1  0.0000000  0.6508444  3
   1061   1060   1058   1070     1  0.0000000  0.6508444  3
   1061   1867   1869   1871     1  0.0000000  0.0000000  2
   1061   1867   1869   1872     1  0.0000000  0.0000000  2
   1062   1059   1057   1082     1  0.0000000  0.6508444  3
   1062   1063   1879   1880     1  180.0000771  10.4600000  2
   1063   1062   1059   1071     1  0.0000000  0.6508444  3
   1063   1062   1059   1072     1  0.0000000  0.6508444  3
   1063   1879   1881   1883     1  0.0000000  0.0000000  2
   1063   1879   1881   1884     1  0.0000000  0.0000000  2
   1064   1057   1058   1069     1  0.0000000  0.6508444  3
   1064   1057   1058   1070     1  0.0000000  0.6508444  3
   1064   1057   1059   1071     1  0.0000000  0.6508444  3
   1064   1057   1059   1072     1  0.0000000  0.6508444  3
   1064   1065   1066   1081     1  0.0000000  0.0000000  2
   1065   1064   1057   1082     1  0.0000000  0.6508444  3
   1066   1065   1064   1077     1  0.0000000  0.6508444  3
   1066   1065   1064   1078     1  0.0000000  0.6508444  3
   1067   1061   1060   1073     1  0.0000000  3.3472000  1
   1067   1061   1060   1073     1  0.0000000  0.0000000  2
   1067   1061   1060   1073     1  180.0000771  0.3347200  3
   1067   1061   1060   1074     1  0.0000000  3.3472000  1
   1067   1061   1060   1074     1  0.0000000  0.0000000  2
   1067   1061   1060   1074     1  180.0000771  0.3347200  3
   1067   1061   1867   1868     1  0.0000000  8.3680000  1
   1067   1061   1867   1868     1  180.0000771  10.4600000  2
   1068   1063   1062   1075     1  0.0000000  3.3472000  1
   1068   1063   1062   1075     1  0.0000000  0.0000000  2
   1068   1063   1062   1075     1  180.0000771  0.3347200  3
   1068   1063   1062   1076     1  0.0000000  3.3472000  1
   1068   1063   1062   1076     1  0.0000000  0.0000000  2
   1068   1063   1062   1076     1  180.0000771  0.3347200  3
   1068   1063   1879   1880     1  0.0000000  8.3680000  1
   1068   1063   1879   1880     1  180.0000771  10.4600000  2
   1069   1058   1057   1082     1  0.0000000  0.6508444  3
   1069   1058   1060   1073     1  0.0000000  0.6508444  3
   1069   1058   1060   1074     1  0.0000000  0.6508444  3
   1070   1058   1057   1082     1  0.0000000  0.6508444  3
   1070   1058   1060   1073     1  0.0000000  0.6508444  3
   1070   1058   1060   1074     1  0.0000000  0.6508444  3
   1071   1059   1057   1082     1  0.0000000  0.6508444  3
   1071   1059   1062   1075     1  0.0000000  0.6508444  3
   1071   1059   1062   1076     1  0.0000000  0.6508444  3
   1072   1059   1057   1082     1  0.0000000  0.6508444  3
   1072   1059   1062   1075     1  0.0000000  0.6508444  3
   1072   1059   1062   1076     1  0.0000000  0.6508444  3
   1073   1060   1061   1867     1  180.0000771  0.0000000  2
   1074   1060   1061   1867     1  180.0000771  0.0000000  2
   1075   1062   1063   1879     1  180.0000771  0.0000000  2
   1076   1062   1063   1879     1  180.0000771  0.0000000  2
   1077   1064   1057   1082     1  0.0000000  0.6508444  3
   1077   1064   1065   1079     1  0.0000000  0.6508444  3
   1077   1064   1065   1080     1  0.0000000  0.6508444  3
   1078   1064   1057   1082     1  0.0000000  0.6508444  3
   1078   1064   1065   1079     1  0.0000000  0.6508444  3
   1078   1064   1065   1080     1  0.0000000  0.6508444  3
   1079   1065   1066   1081     1  0.0000000  0.0000000  2
   1080   1065   1066   1081     1  0.0000000  0.0000000  2
   1083   1084   1086   1099     1  0.0000000  0.6508444  3
   1083   1084   1086   1100     1  0.0000000  0.6508444  3
   1083   1085   1088   1101     1  0.0000000  0.6508444  3
   1083   1085   1088   1102     1  0.0000000  0.6508444  3
   1083   1090   1091   1105     1  0.0000000  0.6508444  3
   1083   1090   1091   1106     1  0.0000000  0.6508444  3
   1084   1083   1085   1097     1  0.0000000  0.6508444  3
   1084   1083   1085   1098     1  0.0000000  0.6508444  3
   1084   1083   1090   1103     1  0.0000000  0.6508444  3
   1084   1083   1090   1104     1  0.0000000  0.6508444  3
   1085   1083   1084   1095     1  0.0000000  0.6508444  3
   1085   1083   1084   1096     1  0.0000000  0.6508444  3
   1085   1083   1090   1103     1  0.0000000  0.6508444  3
   1085   1083   1090   1104     1  0.0000000  0.6508444  3
   1086   1084   1083   1108     1  0.0000000  0.6508444  3
   1086   1087   1891   1892     1  180.0000771  10.4600000  2
   1087   1086   1084   1095     1  0.0000000  0.6508444  3
   1087   1086   1084   1096     1  0.0000000  0.6508444  3
   1087   1891   1893   1895     1  0.0000000  0.0000000  2
   1087   1891   1893   1896     1  0.0000000  0.0000000  2
   1088   1085   1083   1108     1  0.0000000  0.6508444  3
   1088   1089   1903   1904     1  180.0000771  10.4600000  2
   1089   1088   1085   1097     1  0.0000000  0.6508444  3
   1089   1088   1085   1098     1  0.0000000  0.6508444  3
   1089   1903   1905   1907     1  0.0000000  0.0000000  2
   1089   1903   1905   1908     1  0.0000000  0.0000000  2
   1090   1083   1084   1095     1  0.0000000  0.6508444  3
   1090   1083   1084   1096     1  0.0000000  0.6508444  3
   1090   1083   1085   1097     1  0.0000000  0.6508444  3
   1090   1083   1085   1098     1  0.0000000  0.6508444  3
   1090   1091   1092   1107     1  0.0000000  0.0000000  2
   1091   1090   1083   1108     1  0.0000000  0.6508444  3
   1092   1091   1090   1103     1  0.0000000  0.6508444  3
   1092   1091   1090   1104     1  0.0000000  0.6508444  3
   1093   1087   1086   1099     1  0.0000000  3.3472000  1
   1093   1087   1086   1099     1  0.0000000  0.0000000  2
   1093   1087   1086   1099     1  180.0000771  0.3347200  3
   1093   1087   1086   1100     1  0.0000000  3.3472000  1
   1093   1087   1086   1100     1  0.0000000  0.0000000  2
   1093   1087   1086   1100     1  180.0000771  0.3347200  3
   1093   1087   1891   1892     1  0.0000000  8.3680000  1
   1093   1087   1891   1892     1  180.0000771  10.4600000  2
   1094   1089   1088   1101     1  0.0000000  3.3472000  1
   1094   1089   1088   1101     1  0.0000000  0.0000000  2
   1094   1089   1088   1101     1  180.0000771  0.3347200  3
   1094   1089   1088   1102     1  0.0000000  3.3472000  1
   1094   1089   1088   1102     1  0.0000000  0.0000000  2
   1094   1089   1088   1102     1  180.0000771  0.3347200  3
   1094   1089   1903   1904     1  0.0000000  8.3680000  1
   1094   1089   1903   1904     1  180.0000771  10.4600000  2
   1095   1084   1083   1108     1  0.0000000  0.6508444  3
   1095   1084   1086   1099     1  0.0000000  0.6508444  3
   1095   1084   1086   1100     1  0.0000000  0.6508444  3
   1096   1084   1083   1108     1  0.0000000  0.6508444  3
   1096   1084   1086   1099     1  0.0000000  0.6508444  3
   1096   1084   1086   1100     1  0.0000000  0.6508444  3
   1097   1085   1083   1108     1  0.0000000  0.6508444  3
   1097   1085   1088   1101     1  0.0000000  0.6508444  3
   1097   1085   1088   1102     1  0.0000000  0.6508444  3
   1098   1085   1083   1108     1  0.0000000  0.6508444  3
   1098   1085   1088   1101     1  0.0000000  0.6508444  3
   1098   1085   1088   1102     1  0.0000000  0.6508444  3
   1099   1086   1087   1891     1  180.0000771  0.0000000  2
   1100   1086   1087   1891     1  180.0000771  0.0000000  2
   1101   1088   1089   1903     1  180.0000771  0.0000000  2
   1102   1088   1089   1903     1  180.0000771  0.0000000  2
   1103   1090   1083   1108     1  0.0000000  0.6508444  3
   1103   1090   1091   1105     1  0.0000000  0.6508444  3
   1103   1090   1091   1106     1  0.0000000  0.6508444  3
   1104   1090   1083   1108     1  0.0000000  0.6508444  3
   1104   1090   1091   1105     1  0.0000000  0.6508444  3
   1104   1090   1091   1106     1  0.0000000  0.6508444  3
   1105   1091   1092   1107     1  0.0000000  0.0000000  2
   1106   1091   1092   1107     1  0.0000000  0.0000000  2
   1109   1110   1112   1125     1  0.0000000  0.6508444  3
   1109   1110   1112   1126     1  0.0000000  0.6508444  3
   1109   1111   1114   1127     1  0.0000000  0.6508444  3
   1109   1111   1114   1128     1  0.0000000  0.6508444  3
   1109   1116   1117   1131     1  0.0000000  0.6508444  3
   1109   1116   1117   1132     1  0.0000000  0.6508444  3
   1110   1109   1111   1123     1  0.0000000  0.6508444  3
   1110   1109   1111   1124     1  0.0000000  0.6508444  3
   1110   1109   1116   1129     1  0.0000000  0.6508444  3
   1110   1109   1116   1130     1  0.0000000  0.6508444  3
   1111   1109   1110   1121     1  0.0000000  0.6508444  3
   1111   1109   1110   1122     1  0.0000000  0.6508444  3
   1111   1109   1116   1129     1  0.0000000  0.6508444  3
   1111   1109   1116   1130     1  0.0000000  0.6508444  3
   1112   1110   1109   1134     1  0.0000000  0.6508444  3
   1112   1113   1915   1916     1  180.0000771  10.4600000  2
   1113   1112   1110   1121     1  0.0000000  0.6508444  3
   1113   1112   1110   1122     1  0.0000000  0.6508444  3
   1113   1915   1917   1919     1  0.0000000  0.0000000  2
   1113   1915   1917   1920     1  0.0000000  0.0000000  2
   1114   1111   1109   1134     1  0.0000000  0.6508444  3
   1114   1115   1927   1928     1  180.0000771  10.4600000  2
   1115   1114   1111   1123     1  0.0000000  0.6508444  3
   1115   1114   1111   1124     1  0.0000000  0.6508444  3
   1115   1927   1929   1931     1  0.0000000  0.0000000  2
   1115   1927   1929   1932     1  0.0000000  0.0000000  2
   1116   1109   1110   1121     1  0.0000000  0.6508444  3
   1116   1109   1110   1122     1  0.0000000  0.6508444  3
   1116   1109   1111   1123     1  0.0000000  0.6508444  3
   1116   1109   1111   1124     1  0.0000000  0.6508444  3
   1116   1117   1118   1133     1  0.0000000  0.0000000  2
   1117   1116   1109   1134     1  0.0000000  0.6508444  3
   1118   1117   1116   1129     1  0.0000000  0.6508444  3
   1118   1117   1116   1130     1  0.0000000  0.6508444  3
   1119   1113   1112   1125     1  0.0000000  3.3472000  1
   1119   1113   1112   1125     1  0.0000000  0.0000000  2
   1119   1113   1112   1125     1  180.0000771  0.3347200  3
   1119   1113   1112   1126     1  0.0000000  3.3472000  1
   1119   1113   1112   1126     1  0.0000000  0.0000000  2
   1119   1113   1112   1126     1  180.0000771  0.3347200  3
   1119   1113   1915   1916     1  0.0000000  8.3680000  1
   1119   1113   1915   1916     1  180.0000771  10.4600000  2
   1120   1115   1114   1127     1  0.0000000  3.3472000  1
   1120   1115   1114   1127     1  0.0000000  0.0000000  2
   1120   1115   1114   1127     1  180.0000771  0.3347200  3
   1120   1115   1114   1128     1  0.0000000  3.3472000  1
   1120   1115   1114   1128     1  0.0000000  0.0000000  2
   1120   1115   1114   1128     1  180.0000771  0.3347200  3
   1120   1115   1927   1928     1  0.0000000  8.3680000  1
   1120   1115   1927   1928     1  180.0000771  10.4600000  2
   1121   1110   1109   1134     1  0.0000000  0.6508444  3
   1121   1110   1112   1125     1  0.0000000  0.6508444  3
   1121   1110   1112   1126     1  0.0000000  0.6508444  3
   1122   1110   1109   1134     1  0.0000000  0.6508444  3
   1122   1110   1112   1125     1  0.0000000  0.6508444  3
   1122   1110   1112   1126     1  0.0000000  0.6508444  3
   1123   1111   1109   1134     1  0.0000000  0.6508444  3
   1123   1111   1114   1127     1  0.0000000  0.6508444  3
   1123   1111   1114   1128     1  0.0000000  0.6508444  3
   1124   1111   1109   1134     1  0.0000000  0.6508444  3
   1124   1111   1114   1127     1  0.0000000  0.6508444  3
   1124   1111   1114   1128     1  0.0000000  0.6508444  3
   1125   1112   1113   1915     1  180.0000771  0.0000000  2
   1126   1112   1113   1915     1  180.0000771  0.0000000  2
   1127   1114   1115   1927     1  180.0000771  0.0000000  2
   1128   1114   1115   1927     1  180.0000771  0.0000000  2
   1129   1116   1109   1134     1  0.0000000  0.6508444  3
   1129   1116   1117   1131     1  0.0000000  0.6508444  3
   1129   1116   1117   1132     1  0.0000000  0.6508444  3
   1130   1116   1109   1134     1  0.0000000  0.6508444  3
   1130   1116   1117   1131     1  0.0000000  0.6508444  3
   1130   1116   1117   1132     1  0.0000000  0.6508444  3
   1131   1117   1118   1133     1  0.0000000  0.0000000  2
   1132   1117   1118   1133     1  0.0000000  0.0000000  2
   1135   1136   1138   1151     1  0.0000000  0.6508444  3
   1135   1136   1138   1152     1  0.0000000  0.6508444  3
   1135   1137   1140   1153     1  0.0000000  0.6508444  3
   1135   1137   1140   1154     1  0.0000000  0.6508444  3
   1135   1142   1143   1157     1  0.0000000  0.6508444  3
   1135   1142   1143   1158     1  0.0000000  0.6508444  3
   1136   1135   1137   1149     1  0.0000000  0.6508444  3
   1136   1135   1137   1150     1  0.0000000  0.6508444  3
   1136   1135   1142   1155     1  0.0000000  0.6508444  3
   1136   1135   1142   1156     1  0.0000000  0.6508444  3
   1137   1135   1136   1147     1  0.0000000  0.6508444  3
   1137   1135   1136   1148     1  0.0000000  0.6508444  3
   1137   1135   1142   1155     1  0.0000000  0.6508444  3
   1137   1135   1142   1156     1  0.0000000  0.6508444  3
   1138   1136   1135   1160     1  0.0000000  0.6508444  3
   1138   1139   1939   1940     1  180.0000771  10.4600000  2
   1139   1138   1136   1147     1  0.0000000  0.6508444  3
   1139   1138   1136   1148     1  0.0000000  0.6508444  3
   1139   1939   1941   1943     1  0.0000000  0.0000000  2
   1139   1939   1941   1944     1  0.0000000  0.0000000  2
   1140   1137   1135   1160     1  0.0000000  0.6508444  3
   1140   1141   1951   1952     1  180.0000771  10.4600000  2
   1141   1140   1137   1149     1  0.0000000  0.6508444  3
   1141   1140   1137   1150     1  0.0000000  0.6508444  3
   1141   1951   1953   1955     1  0.0000000  0.0000000  2
   1141   1951   1953   1956     1  0.0000000  0.0000000  2
   1142   1135   1136   1147     1  0.0000000  0.6508444  3
   1142   1135   1136   1148     1  0.0000000  0.6508444  3
   1142   1135   1137   1149     1  0.0000000  0.6508444  3
   1142   1135   1137   1150     1  0.0000000  0.6508444  3
   1142   1143   1144   1159     1  0.0000000  0.0000000  2
   1143   1142   1135   1160     1  0.0000000  0.6508444  3
   1144   1143   1142   1155     1  0.0000000  0.6508444  3
   1144   1143   1142   1156     1  0.0000000  0.6508444  3
   1145   1139   1138   1151     1  0.0000000  3.3472000  1
   1145   1139   1138   1151     1  0.0000000  0.0000000  2
   1145   1139   1138   1151     1  180.0000771  0.3347200  3
   1145   1139   1138   1152     1  0.0000000  3.3472000  1
   1145   1139   1138   1152     1  0.0000000  0.0000000  2
   1145   1139   1138   1152     1  180.0000771  0.3347200  3
   1145   1139   1939   1940     1  0.0000000  8.3680000  1
   1145   1139   1939   1940     1  180.0000771  10.4600000  2
   1146   1141   1140   1153     1  0.0000000  3.3472000  1
   1146   1141   1140   1153     1  0.0000000  0.0000000  2
   1146   1141   1140   1153     1  180.0000771  0.3347200  3
   1146   1141   1140   1154     1  0.0000000  3.3472000  1
   1146   1141   1140   1154     1  0.0000000  0.0000000  2
   1146   1141   1140   1154     1  180.0000771  0.3347200  3
   1146   1141   1951   1952     1  0.0000000  8.3680000  1
   1146   1141   1951   1952     1  180.0000771  10.4600000  2
   1147   1136   1135   1160     1  0.0000000  0.6508444  3
   1147   1136   1138   1151     1  0.0000000  0.6508444  3
   1147   1136   1138   1152     1  0.0000000  0.6508444  3
   1148   1136   1135   1160     1  0.0000000  0.6508444  3
   1148   1136   1138   1151     1  0.0000000  0.6508444  3
   1148   1136   1138   1152     1  0.0000000  0.6508444  3
   1149   1137   1135   1160     1  0.0000000  0.6508444  3
   1149   1137   1140   1153     1  0.0000000  0.6508444  3
   1149   1137   1140   1154     1  0.0000000  0.6508444  3
   1150   1137   1135   1160     1  0.0000000  0.6508444  3
   1150   1137   1140   1153     1  0.0000000  0.6508444  3
   1150   1137   1140   1154     1  0.0000000  0.6508444  3
   1151   1138   1139   1939     1  180.0000771  0.0000000  2
   1152   1138   1139   1939     1  180.0000771  0.0000000  2
   1153   1140   1141   1951     1  180.0000771  0.0000000  2
   1154   1140   1141   1951     1  180.0000771  0.0000000  2
   1155   1142   1135   1160     1  0.0000000  0.6508444  3
   1155   1142   1143   1157     1  0.0000000  0.6508444  3
   1155   1142   1143   1158     1  0.0000000  0.6508444  3
   1156   1142   1135   1160     1  0.0000000  0.6508444  3
   1156   1142   1143   1157     1  0.0000000  0.6508444  3
   1156   1142   1143   1158     1  0.0000000  0.6508444  3
   1157   1143   1144   1159     1  0.0000000  0.0000000  2
   1158   1143   1144   1159     1  0.0000000  0.0000000  2
   1161   1162   1164   1177     1  0.0000000  0.6508444  3
   1161   1162   1164   1178     1  0.0000000  0.6508444  3
   1161   1163   1166   1179     1  0.0000000  0.6508444  3
   1161   1163   1166   1180     1  0.0000000  0.6508444  3
   1161   1168   1169   1183     1  0.0000000  0.6508444  3
   1161   1168   1169   1184     1  0.0000000  0.6508444  3
   1162   1161   1163   1175     1  0.0000000  0.6508444  3
   1162   1161   1163   1176     1  0.0000000  0.6508444  3
   1162   1161   1168   1181     1  0.0000000  0.6508444  3
   1162   1161   1168   1182     1  0.0000000  0.6508444  3
   1163   1161   1162   1173     1  0.0000000  0.6508444  3
   1163   1161   1162   1174     1  0.0000000  0.6508444  3
   1163   1161   1168   1181     1  0.0000000  0.6508444  3
   1163   1161   1168   1182     1  0.0000000  0.6508444  3
   1164   1162   1161   1186     1  0.0000000  0.6508444  3
   1164   1165   1963   1964     1  180.0000771  10.4600000  2
   1165   1164   1162   1173     1  0.0000000  0.6508444  3
   1165   1164   1162   1174     1  0.0000000  0.6508444  3
   1165   1963   1965   1967     1  0.0000000  0.0000000  2
   1165   1963   1965   1968     1  0.0000000  0.0000000  2
   1166   1163   1161   1186     1  0.0000000  0.6508444  3
   1166   1167   1975   1976     1  180.0000771  10.4600000  2
   1167   1166   1163   1175     1  0.0000000  0.6508444  3
   1167   1166   1163   1176     1  0.0000000  0.6508444  3
   1167   1975   1977   1979     1  0.0000000  0.0000000  2
   1167   1975   1977   1980     1  0.0000000  0.0000000  2
   1168   1161   1162   1173     1  0.0000000  0.6508444  3
   1168   1161   1162   1174     1  0.0000000  0.6508444  3
   1168   1161   1163   1175     1  0.0000000  0.6508444  3
   1168   1161   1163   1176     1  0.0000000  0.6508444  3
   1168   1169   1170   1185     1  0.0000000  0.0000000  2
   1169   1168   1161   1186     1  0.0000000  0.6508444  3
   1170   1169   1168   1181     1  0.0000000  0.6508444  3
   1170   1169   1168   1182     1  0.0000000  0.6508444  3
   1171   1165   1164   1177     1  0.0000000  3.3472000  1
   1171   1165   1164   1177     1  0.0000000  0.0000000  2
   1171   1165   1164   1177     1  180.0000771  0.3347200  3
   1171   1165   1164   1178     1  0.0000000  3.3472000  1
   1171   1165   1164   1178     1  0.0000000  0.0000000  2
   1171   1165   1164   1178     1  180.0000771  0.3347200  3
   1171   1165   1963   1964     1  0.0000000  8.3680000  1
   1171   1165   1963   1964     1  180.0000771  10.4600000  2
   1172   1167   1166   1179     1  0.0000000  3.3472000  1
   1172   1167   1166   1179     1  0.0000000  0.0000000  2
   1172   1167   1166   1179     1  180.0000771  0.3347200  3
   1172   1167   1166   1180     1  0.0000000  3.3472000  1
   1172   1167   1166   1180     1  0.0000000  0.0000000  2
   1172   1167   1166   1180     1  180.0000771  0.3347200  3
   1172   1167   1975   1976     1  0.0000000  8.3680000  1
   1172   1167   1975   1976     1  180.0000771  10.4600000  2
   1173   1162   1161   1186     1  0.0000000  0.6508444  3
   1173   1162   1164   1177     1  0.0000000  0.6508444  3
   1173   1162   1164   1178     1  0.0000000  0.6508444  3
   1174   1162   1161   1186     1  0.0000000  0.6508444  3
   1174   1162   1164   1177     1  0.0000000  0.6508444  3
   1174   1162   1164   1178     1  0.0000000  0.6508444  3
   1175   1163   1161   1186     1  0.0000000  0.6508444  3
   1175   1163   1166   1179     1  0.0000000  0.6508444  3
   1175   1163   1166   1180     1  0.0000000  0.6508444  3
   1176   1163   1161   1186     1  0.0000000  0.6508444  3
   1176   1163   1166   1179     1  0.0000000  0.6508444  3
   1176   1163   1166   1180     1  0.0000000  0.6508444  3
   1177   1164   1165   1963     1  180.0000771  0.0000000  2
   1178   1164   1165   1963     1  180.0000771  0.0000000  2
   1179   1166   1167   1975     1  180.0000771  0.0000000  2
   1180   1166   1167   1975     1  180.0000771  0.0000000  2
   1181   1168   1161   1186     1  0.0000000  0.6508444  3
   1181   1168   1169   1183     1  0.0000000  0.6508444  3
   1181   1168   1169   1184     1  0.0000000  0.6508444  3
   1182   1168   1161   1186     1  0.0000000  0.6508444  3
   1182   1168   1169   1183     1  0.0000000  0.6508444  3
   1182   1168   1169   1184     1  0.0000000  0.6508444  3
   1183   1169   1170   1185     1  0.0000000  0.0000000  2
   1184   1169   1170   1185     1  0.0000000  0.0000000  2
   1187   1188   1190   1203     1  0.0000000  0.6508444  3
   1187   1188   1190   1204     1  0.0000000  0.6508444  3
   1187   1189   1192   1205     1  0.0000000  0.6508444  3
   1187   1189   1192   1206     1  0.0000000  0.6508444  3
   1187   1194   1195   1209     1  0.0000000  0.6508444  3
   1187   1194   1195   1210     1  0.0000000  0.6508444  3
   1188   1187   1189   1201     1  0.0000000  0.6508444  3
   1188   1187   1189   1202     1  0.0000000  0.6508444  3
   1188   1187   1194   1207     1  0.0000000  0.6508444  3
   1188   1187   1194   1208     1  0.0000000  0.6508444  3
   1189   1187   1188   1199     1  0.0000000  0.6508444  3
   1189   1187   1188   1200     1  0.0000000  0.6508444  3
   1189   1187   1194   1207     1  0.0000000  0.6508444  3
   1189   1187   1194   1208     1  0.0000000  0.6508444  3
   1190   1188   1187   1212     1  0.0000000  0.6508444  3
   1190   1191   1987   1988     1  180.0000771  10.4600000  2
   1191   1190   1188   1199     1  0.0000000  0.6508444  3
   1191   1190   1188   1200     1  0.0000000  0.6508444  3
   1191   1987   1989   1991     1  0.0000000  0.0000000  2
   1191   1987   1989   1992     1  0.0000000  0.0000000  2
   1192   1189   1187   1212     1  0.0000000  0.6508444  3
   1192   1193   1999   2000     1  180.0000771  10.4600000  2
   1193   1192   1189   1201     1  0.0000000  0.6508444  3
   1193   1192   1189   1202     1  0.0000000  0.6508444  3
   1193   1999   2001   2003     1  0.0000000  0.0000000  2
   1193   1999   2001   2004     1  0.0000000  0.0000000  2
   1194   1187   1188   1199     1  0.0000000  0.6508444  3
   1194   1187   1188   1200     1  0.0000000  0.6508444  3
   1194   1187   1189   1201     1  0.0000000  0.6508444  3
   1194   1187   1189   1202     1  0.0000000  0.6508444  3
   1194   1195   1196   1211     1  0.0000000  0.0000000  2
   1195   1194   1187   1212     1  0.0000000  0.6508444  3
   1196   1195   1194   1207     1  0.0000000  0.6508444  3
   1196   1195   1194   1208     1  0.0000000  0.6508444  3
   1197   1191   1190   1203     1  0.0000000  3.3472000  1
   1197   1191   1190   1203     1  0.0000000  0.0000000  2
   1197   1191   1190   1203     1  180.0000771  0.3347200  3
   1197   1191   1190   1204     1  0.0000000  3.3472000  1
   1197   1191   1190   1204     1  0.0000000  0.0000000  2
   1197   1191   1190   1204     1  180.0000771  0.3347200  3
   1197   1191   1987   1988     1  0.0000000  8.3680000  1
   1197   1191   1987   1988     1  180.0000771  10.4600000  2
   1198   1193   1192   1205     1  0.0000000  3.3472000  1
   1198   1193   1192   1205     1  0.0000000  0.0000000  2
   1198   1193   1192   1205     1  180.0000771  0.3347200  3
   1198   1193   1192   1206     1  0.0000000  3.3472000  1
   1198   1193   1192   1206     1  0.0000000  0.0000000  2
   1198   1193   1192   1206     1  180.0000771  0.3347200  3
   1198   1193   1999   2000     1  0.0000000  8.3680000  1
   1198   1193   1999   2000     1  180.0000771  10.4600000  2
   1199   1188   1187   1212     1  0.0000000  0.6508444  3
   1199   1188   1190   1203     1  0.0000000  0.6508444  3
   1199   1188   1190   1204     1  0.0000000  0.6508444  3
   1200   1188   1187   1212     1  0.0000000  0.6508444  3
   1200   1188   1190   1203     1  0.0000000  0.6508444  3
   1200   1188   1190   1204     1  0.0000000  0.6508444  3
   1201   1189   1187   1212     1  0.0000000  0.6508444  3
   1201   1189   1192   1205     1  0.0000000  0.6508444  3
   1201   1189   1192   1206     1  0.0000000  0.6508444  3
   1202   1189   1187   1212     1  0.0000000  0.6508444  3
   1202   1189   1192   1205     1  0.0000000  0.6508444  3
   1202   1189   1192   1206     1  0.0000000  0.6508444  3
   1203   1190   1191   1987     1  180.0000771  0.0000000  2
   1204   1190   1191   1987     1  180.0000771  0.0000000  2
   1205   1192   1193   1999     1  180.0000771  0.0000000  2
   1206   1192   1193   1999     1  180.0000771  0.0000000  2
   1207   1194   1187   1212     1  0.0000000  0.6508444  3
   1207   1194   1195   1209     1  0.0000000  0.6508444  3
   1207   1194   1195   1210     1  0.0000000  0.6508444  3
   1208   1194   1187   1212     1  0.0000000  0.6508444  3
   1208   1194   1195   1209     1  0.0000000  0.6508444  3
   1208   1194   1195   1210     1  0.0000000  0.6508444  3
   1209   1195   1196   1211     1  0.0000000  0.0000000  2
   1210   1195   1196   1211     1  0.0000000  0.0000000  2
   1213   1214   1216   1229     1  0.0000000  0.6508444  3
   1213   1214   1216   1230     1  0.0000000  0.6508444  3
   1213   1215   1218   1231     1  0.0000000  0.6508444  3
   1213   1215   1218   1232     1  0.0000000  0.6508444  3
   1213   1220   1221   1235     1  0.0000000  0.6508444  3
   1213   1220   1221   1236     1  0.0000000  0.6508444  3
   1214   1213   1215   1227     1  0.0000000  0.6508444  3
   1214   1213   1215   1228     1  0.0000000  0.6508444  3
   1214   1213   1220   1233     1  0.0000000  0.6508444  3
   1214   1213   1220   1234     1  0.0000000  0.6508444  3
   1215   1213   1214   1225     1  0.0000000  0.6508444  3
   1215   1213   1214   1226     1  0.0000000  0.6508444  3
   1215   1213   1220   1233     1  0.0000000  0.6508444  3
   1215   1213   1220   1234     1  0.0000000  0.6508444  3
   1216   1214   1213   1238     1  0.0000000  0.6508444  3
   1216   1217   2011   2012     1  180.0000771  10.4600000  2
   1217   1216   1214   1225     1  0.0000000  0.6508444  3
   1217   1216   1214   1226     1  0.0000000  0.6508444  3
   1217   2011   2013   2015     1  0.0000000  0.0000000  2
   1217   2011   2013   2016     1  0.0000000  0.0000000  2
   1218   1215   1213   1238     1  0.0000000  0.6508444  3
   1218   1219   2023   2024     1  180.0000771  10.4600000  2
   1219   1218   1215   1227     1  0.0000000  0.6508444  3
   1219   1218   1215   1228     1  0.0000000  0.6508444  3
   1219   2023   2025   2027     1  0.0000000  0.0000000  2
   1219   2023   2025   2028     1  0.0000000  0.0000000  2
   1220   1213   1214   1225     1  0.0000000  0.6508444  3
   1220   1213   1214   1226     1  0.0000000  0.6508444  3
   1220   1213   1215   1227     1  0.0000000  0.6508444  3
   1220   1213   1215   1228     1  0.0000000  0.6508444  3
   1220   1221   1222   1237     1  0.0000000  0.0000000  2
   1221   1220   1213   1238     1  0.0000000  0.6508444  3
   1222   1221   1220   1233     1  0.0000000  0.6508444  3
   1222   1221   1220   1234     1  0.0000000  0.6508444  3
   1223   1217   1216   1229     1  0.0000000  3.3472000  1
   1223   1217   1216   1229     1  0.0000000  0.0000000  2
   1223   1217   1216   1229     1  180.0000771  0.3347200  3
   1223   1217   1216   1230     1  0.0000000  3.3472000  1
   1223   1217   1216   1230     1  0.0000000  0.0000000  2
   1223   1217   1216   1230     1  180.0000771  0.3347200  3
   1223   1217   2011   2012     1  0.0000000  8.3680000  1
   1223   1217   2011   2012     1  180.0000771  10.4600000  2
   1224   1219   1218   1231     1  0.0000000  3.3472000  1
   1224   1219   1218   1231     1  0.0000000  0.0000000  2
   1224   1219   1218   1231     1  180.0000771  0.3347200  3
   1224   1219   1218   1232     1  0.0000000  3.3472000  1
   1224   1219   1218   1232     1  0.0000000  0.0000000  2
   1224   1219   1218   1232     1  180.0000771  0.3347200  3
   1224   1219   2023   2024     1  0.0000000  8.3680000  1
   1224   1219   2023   2024     1  180.0000771  10.4600000  2
   1225   1214   1213   1238     1  0.0000000  0.6508444  3
   1225   1214   1216   1229     1  0.0000000  0.6508444  3
   1225   1214   1216   1230     1  0.0000000  0.6508444  3
   1226   1214   1213   1238     1  0.0000000  0.6508444  3
   1226   1214   1216   1229     1  0.0000000  0.6508444  3
   1226   1214   1216   1230     1  0.0000000  0.6508444  3
   1227   1215   1213   1238     1  0.0000000  0.6508444  3
   1227   1215   1218   1231     1  0.0000000  0.6508444  3
   1227   1215   1218   1232     1  0.0000000  0.6508444  3
   1228   1215   1213   1238     1  0.0000000  0.6508444  3
   1228   1215   1218   1231     1  0.0000000  0.6508444  3
   1228   1215   1218   1232     1  0.0000000  0.6508444  3
   1229   1216   1217   2011     1  180.0000771  0.0000000  2
   1230   1216   1217   2011     1  180.0000771  0.0000000  2
   1231   1218   1219   2023     1  180.0000771  0.0000000  2
   1232   1218   1219   2023     1  180.0000771  0.0000000  2
   1233   1220   1213   1238     1  0.0000000  0.6508444  3
   1233   1220   1221   1235     1  0.0000000  0.6508444  3
   1233   1220   1221   1236     1  0.0000000  0.6508444  3
   1234   1220   1213   1238     1  0.0000000  0.6508444  3
   1234   1220   1221   1235     1  0.0000000  0.6508444  3
   1234   1220   1221   1236     1  0.0000000  0.6508444  3
   1235   1221   1222   1237     1  0.0000000  0.0000000  2
   1236   1221   1222   1237     1  0.0000000  0.0000000  2
   1239   1240   1242   1255     1  0.0000000  0.6508444  3
   1239   1240   1242   1256     1  0.0000000  0.6508444  3
   1239   1241   1244   1257     1  0.0000000  0.6508444  3
   1239   1241   1244   1258     1  0.0000000  0.6508444  3
   1239   1246   1247   1261     1  0.0000000  0.6508444  3
   1239   1246   1247   1262     1  0.0000000  0.6508444  3
   1240   1239   1241   1253     1  0.0000000  0.6508444  3
   1240   1239   1241   1254     1  0.0000000  0.6508444  3
   1240   1239   1246   1259     1  0.0000000  0.6508444  3
   1240   1239   1246   1260     1  0.0000000  0.6508444  3
   1241   1239   1240   1251     1  0.0000000  0.6508444  3
   1241   1239   1240   1252     1  0.0000000  0.6508444  3
   1241   1239   1246   1259     1  0.0000000  0.6508444  3
   1241   1239   1246   1260     1  0.0000000  0.6508444  3
   1242   1240   1239   1264     1  0.0000000  0.6508444  3
   1242   1243   2035   2036     1  180.0000771  10.4600000  2
   1243   1242   1240   1251     1  0.0000000  0.6508444  3
   1243   1242   1240   1252     1  0.0000000  0.6508444  3
   1243   2035   2037   2039     1  0.0000000  0.0000000  2
   1243   2035   2037   2040     1  0.0000000  0.0000000  2
   1244   1241   1239   1264     1  0.0000000  0.6508444  3
   1244   1245   2047   2048     1  180.0000771  10.4600000  2
   1245   1244   1241   1253     1  0.0000000  0.6508444  3
   1245   1244   1241   1254     1  0.0000000  0.6508444  3
   1245   2047   2049   2051     1  0.0000000  0.0000000  2
   1245   2047   2049   2052     1  0.0000000  0.0000000  2
   1246   1239   1240   1251     1  0.0000000  0.6508444  3
   1246   1239   1240   1252     1  0.0000000  0.6508444  3
   1246   1239   1241   1253     1  0.0000000  0.6508444  3
   1246   1239   1241   1254     1  0.0000000  0.6508444  3
   1246   1247   1248   1263     1  0.0000000  0.0000000  2
   1247   1246   1239   1264     1  0.0000000  0.6508444  3
   1248   1247   1246   1259     1  0.0000000  0.6508444  3
   1248   1247   1246   1260     1  0.0000000  0.6508444  3
   1249   1243   1242   1255     1  0.0000000  3.3472000  1
   1249   1243   1242   1255     1  0.0000000  0.0000000  2
   1249   1243   1242   1255     1  180.0000771  0.3347200  3
   1249   1243   1242   1256     1  0.0000000  3.3472000  1
   1249   1243   1242   1256     1  0.0000000  0.0000000  2
   1249   1243   1242   1256     1  180.0000771  0.3347200  3
   1249   1243   2035   2036     1  0.0000000  8.3680000  1
   1249   1243   2035   2036     1  180.0000771  10.4600000  2
   1250   1245   1244   1257     1  0.0000000  3.3472000  1
   1250   1245   1244   1257     1  0.0000000  0.0000000  2
   1250   1245   1244   1257     1  180.0000771  0.3347200  3
   1250   1245   1244   1258     1  0.0000000  3.3472000  1
   1250   1245   1244   1258     1  0.0000000  0.0000000  2
   1250   1245   1244   1258     1  180.0000771  0.3347200  3
   1250   1245   2047   2048     1  0.0000000  8.3680000  1
   1250   1245   2047   2048     1  180.0000771  10.4600000  2
   1251   1240   1239   1264     1  0.0000000  0.6508444  3
   1251   1240   1242   1255     1  0.0000000  0.6508444  3
   1251   1240   1242   1256     1  0.0000000  0.6508444  3
   1252   1240   1239   1264     1  0.0000000  0.6508444  3
   1252   1240   1242   1255     1  0.0000000  0.6508444  3
   1252   1240   1242   1256     1  0.0000000  0.6508444  3
   1253   1241   1239   1264     1  0.0000000  0.6508444  3
   1253   1241   1244   1257     1  0.0000000  0.6508444  3
   1253   1241   1244   1258     1  0.0000000  0.6508444  3
   1254   1241   1239   1264     1  0.0000000  0.6508444  3
   1254   1241   1244   1257     1  0.0000000  0.6508444  3
   1254   1241   1244   1258     1  0.0000000  0.6508444  3
   1255   1242   1243   2035     1  180.0000771  0.0000000  2
   1256   1242   1243   2035     1  180.0000771  0.0000000  2
   1257   1244   1245   2047     1  180.0000771  0.0000000  2
   1258   1244   1245   2047     1  180.0000771  0.0000000  2
   1259   1246   1239   1264     1  0.0000000  0.6508444  3
   1259   1246   1247   1261     1  0.0000000  0.6508444  3
   1259   1246   1247   1262     1  0.0000000  0.6508444  3
   1260   1246   1239   1264     1  0.0000000  0.6508444  3
   1260   1246   1247   1261     1  0.0000000  0.6508444  3
   1260   1246   1247   1262     1  0.0000000  0.6508444  3
   1261   1247   1248   1263     1  0.0000000  0.0000000  2
   1262   1247   1248   1263     1  0.0000000  0.0000000  2
   1265   1266   1268   1281     1  0.0000000  0.6508444  3
   1265   1266   1268   1282     1  0.0000000  0.6508444  3
   1265   1267   1270   1283     1  0.0000000  0.6508444  3
   1265   1267   1270   1284     1  0.0000000  0.6508444  3
   1265   1272   1273   1287     1  0.0000000  0.6508444  3
   1265   1272   1273   1288     1  0.0000000  0.6508444  3
   1266   1265   1267   1279     1  0.0000000  0.6508444  3
   1266   1265   1267   1280     1  0.0000000  0.6508444  3
   1266   1265   1272   1285     1  0.0000000  0.6508444  3
   1266   1265   1272   1286     1  0.0000000  0.6508444  3
   1267   1265   1266   1277     1  0.0000000  0.6508444  3
   1267   1265   1266   1278     1  0.0000000  0.6508444  3
   1267   1265   1272   1285     1  0.0000000  0.6508444  3
   1267   1265   1272   1286     1  0.0000000  0.6508444  3
   1268   1266   1265   1290     1  0.0000000  0.6508444  3
   1268   1269   2059   2060     1  180.0000771  10.4600000  2
   1269   1268   1266   1277     1  0.0000000  0.6508444  3
   1269   1268   1266   1278     1  0.0000000  0.6508444  3
   1269   2059   2061   2063     1  0.0000000  0.0000000  2
   1269   2059   2061   2064     1  0.0000000  0.0000000  2
   1270   1267   1265   1290     1  0.0000000  0.6508444  3
   1270   1271   2071   2072     1  180.0000771  10.4600000  2
   1271   1270   1267   1279     1  0.0000000  0.6508444  3
   1271   1270   1267   1280     1  0.0000000  0.6508444  3
   1271   2071   2073   2075     1  0.0000000  0.0000000  2
   1271   2071   2073   2076     1  0.0000000  0.0000000  2
   1272   1265   1266   1277     1  0.0000000  0.6508444  3
   1272   1265   1266   1278     1  0.0000000  0.6508444  3
   1272   1265   1267   1279     1  0.0000000  0.6508444  3
   1272   1265   1267   1280     1  0.0000000  0.6508444  3
   1272   1273   1274   1289     1  0.0000000  0.0000000  2
   1273   1272   1265   1290     1  0.0000000  0.6508444  3
   1274   1273   1272   1285     1  0.0000000  0.6508444  3
   1274   1273   1272   1286     1  0.0000000  0.6508444  3
   1275   1269   1268   1281     1  0.0000000  3.3472000  1
   1275   1269   1268   1281     1  0.0000000  0.0000000  2
   1275   1269   1268   1281     1  180.0000771  0.3347200  3
   1275   1269   1268   1282     1  0.0000000  3.3472000  1
   1275   1269   1268   1282     1  0.0000000  0.0000000  2
   1275   1269   1268   1282     1  180.0000771  0.3347200  3
   1275   1269   2059   2060     1  0.0000000  8.3680000  1
   1275   1269   2059   2060     1  180.0000771  10.4600000  2
   1276   1271   1270   1283     1  0.0000000  3.3472000  1
   1276   1271   1270   1283     1  0.0000000  0.0000000  2
   1276   1271   1270   1283     1  180.0000771  0.3347200  3
   1276   1271   1270   1284     1  0.0000000  3.3472000  1
   1276   1271   1270   1284     1  0.0000000  0.0000000  2
   1276   1271   1270   1284     1  180.0000771  0.3347200  3
   1276   1271   2071   2072     1  0.0000000  8.3680000  1
   1276   1271   2071   2072     1  180.0000771  10.4600000  2
   1277   1266   1265   1290     1  0.0000000  0.6508444  3
   1277   1266   1268   1281     1  0.0000000  0.6508444  3
   1277   1266   1268   1282     1  0.0000000  0.6508444  3
   1278   1266   1265   1290     1  0.0000000  0.6508444  3
   1278   1266   1268   1281     1  0.0000000  0.6508444  3
   1278   1266   1268   1282     1  0.0000000  0.6508444  3
   1279   1267   1265   1290     1  0.0000000  0.6508444  3
   1279   1267   1270   1283     1  0.0000000  0.6508444  3
   1279   1267   1270   1284     1  0.0000000  0.6508444  3
   1280   1267   1265   1290     1  0.0000000  0.6508444  3
   1280   1267   1270   1283     1  0.0000000  0.6508444  3
   1280   1267   1270   1284     1  0.0000000  0.6508444  3
   1281   1268   1269   2059     1  180.0000771  0.0000000  2
   1282   1268   1269   2059     1  180.0000771  0.0000000  2
   1283   1270   1271   2071     1  180.0000771  0.0000000  2
   1284   1270   1271   2071     1  180.0000771  0.0000000  2
   1285   1272   1265   1290     1  0.0000000  0.6508444  3
   1285   1272   1273   1287     1  0.0000000  0.6508444  3
   1285   1272   1273   1288     1  0.0000000  0.6508444  3
   1286   1272   1265   1290     1  0.0000000  0.6508444  3
   1286   1272   1273   1287     1  0.0000000  0.6508444  3
   1286   1272   1273   1288     1  0.0000000  0.6508444  3
   1287   1273   1274   1289     1  0.0000000  0.0000000  2
   1288   1273   1274   1289     1  0.0000000  0.0000000  2
   1291   1292   1294   1307     1  0.0000000  0.6508444  3
   1291   1292   1294   1308     1  0.0000000  0.6508444  3
   1291   1293   1296   1309     1  0.0000000  0.6508444  3
   1291   1293   1296   1310     1  0.0000000  0.6508444  3
   1291   1298   1299   1313     1  0.0000000  0.6508444  3
   1291   1298   1299   1314     1  0.0000000  0.6508444  3
   1292   1291   1293   1305     1  0.0000000  0.6508444  3
   1292   1291   1293   1306     1  0.0000000  0.6508444  3
   1292   1291   1298   1311     1  0.0000000  0.6508444  3
   1292   1291   1298   1312     1  0.0000000  0.6508444  3
   1293   1291   1292   1303     1  0.0000000  0.6508444  3
   1293   1291   1292   1304     1  0.0000000  0.6508444  3
   1293   1291   1298   1311     1  0.0000000  0.6508444  3
   1293   1291   1298   1312     1  0.0000000  0.6508444  3
   1294   1292   1291   1316     1  0.0000000  0.6508444  3
   1294   1295   2083   2084     1  180.0000771  10.4600000  2
   1295   1294   1292   1303     1  0.0000000  0.6508444  3
   1295   1294   1292   1304     1  0.0000000  0.6508444  3
   1295   2083   2085   2087     1  0.0000000  0.0000000  2
   1295   2083   2085   2088     1  0.0000000  0.0000000  2
   1296   1293   1291   1316     1  0.0000000  0.6508444  3
   1296   1297   2095   2096     1  180.0000771  10.4600000  2
   1297   1296   1293   1305     1  0.0000000  0.6508444  3
   1297   1296   1293   1306     1  0.0000000  0.6508444  3
   1297   2095   2097   2099     1  0.0000000  0.0000000  2
   1297   2095   2097   2100     1  0.0000000  0.0000000  2
   1298   1291   1292   1303     1  0.0000000  0.6508444  3
   1298   1291   1292   1304     1  0.0000000  0.6508444  3
   1298   1291   1293   1305     1  0.0000000  0.6508444  3
   1298   1291   1293   1306     1  0.0000000  0.6508444  3
   1298   1299   1300   1315     1  0.0000000  0.0000000  2
   1299   1298   1291   1316     1  0.0000000  0.6508444  3
   1300   1299   1298   1311     1  0.0000000  0.6508444  3
   1300   1299   1298   1312     1  0.0000000  0.6508444  3
   1301   1295   1294   1307     1  0.0000000  3.3472000  1
   1301   1295   1294   1307     1  0.0000000  0.0000000  2
   1301   1295   1294   1307     1  180.0000771  0.3347200  3
   1301   1295   1294   1308     1  0.0000000  3.3472000  1
   1301   1295   1294   1308     1  0.0000000  0.0000000  2
   1301   1295   1294   1308     1  180.0000771  0.3347200  3
   1301   1295   2083   2084     1  0.0000000  8.3680000  1
   1301   1295   2083   2084     1  180.0000771  10.4600000  2
   1302   1297   1296   1309     1  0.0000000  3.3472000  1
   1302   1297   1296   1309     1  0.0000000  0.0000000  2
   1302   1297   1296   1309     1  180.0000771  0.3347200  3
   1302   1297   1296   1310     1  0.0000000  3.3472000  1
   1302   1297   1296   1310     1  0.0000000  0.0000000  2
   1302   1297   1296   1310     1  180.0000771  0.3347200  3
   1302   1297   2095   2096     1  0.0000000  8.3680000  1
   1302   1297   2095   2096     1  180.0000771  10.4600000  2
   1303   1292   1291   1316     1  0.0000000  0.6508444  3
   1303   1292   1294   1307     1  0.0000000  0.6508444  3
   1303   1292   1294   1308     1  0.0000000  0.6508444  3
   1304   1292   1291   1316     1  0.0000000  0.6508444  3
   1304   1292   1294   1307     1  0.0000000  0.6508444  3
   1304   1292   1294   1308     1  0.0000000  0.6508444  3
   1305   1293   1291   1316     1  0.0000000  0.6508444  3
   1305   1293   1296   1309     1  0.0000000  0.6508444  3
   1305   1293   1296   1310     1  0.0000000  0.6508444  3
   1306   1293   1291   1316     1  0.0000000  0.6508444  3
   1306   1293   1296   1309     1  0.0000000  0.6508444  3
   1306   1293   1296   1310     1  0.0000000  0.6508444  3
   1307   1294   1295   2083     1  180.0000771  0.0000000  2
   1308   1294   1295   2083     1  180.0000771  0.0000000  2
   1309   1296   1297   2095     1  180.0000771  0.0000000  2
   1310   1296   1297   2095     1  180.0000771  0.0000000  2
   1311   1298   1291   1316     1  0.0000000  0.6508444  3
   1311   1298   1299   1313     1  0.0000000  0.6508444  3
   1311   1298   1299   1314     1  0.0000000  0.6508444  3
   1312   1298   1291   1316     1  0.0000000  0.6508444  3
   1312   1298   1299   1313     1  0.0000000  0.6508444  3
   1312   1298   1299   1314     1  0.0000000  0.6508444  3
   1313   1299   1300   1315     1  0.0000000  0.0000000  2
   1314   1299   1300   1315     1  0.0000000  0.0000000  2
   1317   1318   1320   1333     1  0.0000000  0.6508444  3
   1317   1318   1320   1334     1  0.0000000  0.6508444  3
   1317   1319   1322   1335     1  0.0000000  0.6508444  3
   1317   1319   1322   1336     1  0.0000000  0.6508444  3
   1317   1324   1325   1339     1  0.0000000  0.6508444  3
   1317   1324   1325   1340     1  0.0000000  0.6508444  3
   1318   1317   1319   1331     1  0.0000000  0.6508444  3
   1318   1317   1319   1332     1  0.0000000  0.6508444  3
   1318   1317   1324   1337     1  0.0000000  0.6508444  3
   1318   1317   1324   1338     1  0.0000000  0.6508444  3
   1319   1317   1318   1329     1  0.0000000  0.6508444  3
   1319   1317   1318   1330     1  0.0000000  0.6508444  3
   1319   1317   1324   1337     1  0.0000000  0.6508444  3
   1319   1317   1324   1338     1  0.0000000  0.6508444  3
   1320   1318   1317   1342     1  0.0000000  0.6508444  3
   1320   1321   2107   2108     1  180.0000771  10.4600000  2
   1321   1320   1318   1329     1  0.0000000  0.6508444  3
   1321   1320   1318   1330     1  0.0000000  0.6508444  3
   1321   2107   2109   2111     1  0.0000000  0.0000000  2
   1321   2107   2109   2112     1  0.0000000  0.0000000  2
   1322   1319   1317   1342     1  0.0000000  0.6508444  3
   1322   1323   2119   2120     1  180.0000771  10.4600000  2
   1323   1322   1319   1331     1  0.0000000  0.6508444  3
   1323   1322   1319   1332     1  0.0000000  0.6508444  3
   1323   2119   2121   2123     1  0.0000000  0.0000000  2
   1323   2119   2121   2124     1  0.0000000  0.0000000  2
   1324   1317   1318   1329     1  0.0000000  0.6508444  3
   1324   1317   1318   1330     1  0.0000000  0.6508444  3
   1324   1317   1319   1331     1  0.0000000  0.6508444  3
   1324   1317   1319   1332     1  0.0000000  0.6508444  3
   1324   1325   1326   1341     1  0.0000000  0.0000000  2
   1325   1324   1317   1342     1  0.0000000  0.6508444  3
   1326   1325   1324   1337     1  0.0000000  0.6508444  3
   1326   1325   1324   1338     1  0.0000000  0.6508444  3
   1327   1321   1320   1333     1  0.0000000  3.3472000  1
   1327   1321   1320   1333     1  0.0000000  0.0000000  2
   1327   1321   1320   1333     1  180.0000771  0.3347200  3
   1327   1321   1320   1334     1  0.0000000  3.3472000  1
   1327   1321   1320   1334     1  0.0000000  0.0000000  2
   1327   1321   1320   1334     1  180.0000771  0.3347200  3
   1327   1321   2107   2108     1  0.0000000  8.3680000  1
   1327   1321   2107   2108     1  180.0000771  10.4600000  2
   1328   1323   1322   1335     1  0.0000000  3.3472000  1
   1328   1323   1322   1335     1  0.0000000  0.0000000  2
   1328   1323   1322   1335     1  180.0000771  0.3347200  3
   1328   1323   1322   1336     1  0.0000000  3.3472000  1
   1328   1323   1322   1336     1  0.0000000  0.0000000  2
   1328   1323   1322   1336     1  180.0000771  0.3347200  3
   1328   1323   2119   2120     1  0.0000000  8.3680000  1
   1328   1323   2119   2120     1  180.0000771  10.4600000  2
   1329   1318   1317   1342     1  0.0000000  0.6508444  3
   1329   1318   1320   1333     1  0.0000000  0.6508444  3
   1329   1318   1320   1334     1  0.0000000  0.6508444  3
   1330   1318   1317   1342     1  0.0000000  0.6508444  3
   1330   1318   1320   1333     1  0.0000000  0.6508444  3
   1330   1318   1320   1334     1  0.0000000  0.6508444  3
   1331   1319   1317   1342     1  0.0000000  0.6508444  3
   1331   1319   1322   1335     1  0.0000000  0.6508444  3
   1331   1319   1322   1336     1  0.0000000  0.6508444  3
   1332   1319   1317   1342     1  0.0000000  0.6508444  3
   1332   1319   1322   1335     1  0.0000000  0.6508444  3
   1332   1319   1322   1336     1  0.0000000  0.6508444  3
   1333   1320   1321   2107     1  180.0000771  0.0000000  2
   1334   1320   1321   2107     1  180.0000771  0.0000000  2
   1335   1322   1323   2119     1  180.0000771  0.0000000  2
   1336   1322   1323   2119     1  180.0000771  0.0000000  2
   1337   1324   1317   1342     1  0.0000000  0.6508444  3
   1337   1324   1325   1339     1  0.0000000  0.6508444  3
   1337   1324   1325   1340     1  0.0000000  0.6508444  3
   1338   1324   1317   1342     1  0.0000000  0.6508444  3
   1338   1324   1325   1339     1  0.0000000  0.6508444  3
   1338   1324   1325   1340     1  0.0000000  0.6508444  3
   1339   1325   1326   1341     1  0.0000000  0.0000000  2
   1340   1325   1326   1341     1  0.0000000  0.0000000  2
   1343   1344   1346   1359     1  0.0000000  0.6508444  3
   1343   1344   1346   1360     1  0.0000000  0.6508444  3
   1343   1345   1348   1361     1  0.0000000  0.6508444  3
   1343   1345   1348   1362     1  0.0000000  0.6508444  3
   1343   1350   1351   1365     1  0.0000000  0.6508444  3
   1343   1350   1351   1366     1  0.0000000  0.6508444  3
   1344   1343   1345   1357     1  0.0000000  0.6508444  3
   1344   1343   1345   1358     1  0.0000000  0.6508444  3
   1344   1343   1350   1363     1  0.0000000  0.6508444  3
   1344   1343   1350   1364     1  0.0000000  0.6508444  3
   1345   1343   1344   1355     1  0.0000000  0.6508444  3
   1345   1343   1344   1356     1  0.0000000  0.6508444  3
   1345   1343   1350   1363     1  0.0000000  0.6508444  3
   1345   1343   1350   1364     1  0.0000000  0.6508444  3
   1346   1344   1343   1368     1  0.0000000  0.6508444  3
   1346   1347   2131   2132     1  180.0000771  10.4600000  2
   1347   1346   1344   1355     1  0.0000000  0.6508444  3
   1347   1346   1344   1356     1  0.0000000  0.6508444  3
   1347   2131   2133   2135     1  0.0000000  0.0000000  2
   1347   2131   2133   2136     1  0.0000000  0.0000000  2
   1348   1345   1343   1368     1  0.0000000  0.6508444  3
   1348   1349   2143   2144     1  180.0000771  10.4600000  2
   1349   1348   1345   1357     1  0.0000000  0.6508444  3
   1349   1348   1345   1358     1  0.0000000  0.6508444  3
   1349   2143   2145   2147     1  0.0000000  0.0000000  2
   1349   2143   2145   2148     1  0.0000000  0.0000000  2
   1350   1343   1344   1355     1  0.0000000  0.6508444  3
   1350   1343   1344   1356     1  0.0000000  0.6508444  3
   1350   1343   1345   1357     1  0.0000000  0.6508444  3
   1350   1343   1345   1358     1  0.0000000  0.6508444  3
   1350   1351   1352   1367     1  0.0000000  0.0000000  2
   1351   1350   1343   1368     1  0.0000000  0.6508444  3
   1352   1351   1350   1363     1  0.0000000  0.6508444  3
   1352   1351   1350   1364     1  0.0000000  0.6508444  3
   1353   1347   1346   1359     1  0.0000000  3.3472000  1
   1353   1347   1346   1359     1  0.0000000  0.0000000  2
   1353   1347   1346   1359     1  180.0000771  0.3347200  3
   1353   1347   1346   1360     1  0.0000000  3.3472000  1
   1353   1347   1346   1360     1  0.0000000  0.0000000  2
   1353   1347   1346   1360     1  180.0000771  0.3347200  3
   1353   1347   2131   2132     1  0.0000000  8.3680000  1
   1353   1347   2131   2132     1  180.0000771  10.4600000  2
   1354   1349   1348   1361     1  0.0000000  3.3472000  1
   1354   1349   1348   1361     1  0.0000000  0.0000000  2
   1354   1349   1348   1361     1  180.0000771  0.3347200  3
   1354   1349   1348   1362     1  0.0000000  3.3472000  1
   1354   1349   1348   1362     1  0.0000000  0.0000000  2
   1354   1349   1348   1362     1  180.0000771  0.3347200  3
   1354   1349   2143   2144     1  0.0000000  8.3680000  1
   1354   1349   2143   2144     1  180.0000771  10.4600000  2
   1355   1344   1343   1368     1  0.0000000  0.6508444  3
   1355   1344   1346   1359     1  0.0000000  0.6508444  3
   1355   1344   1346   1360     1  0.0000000  0.6508444  3
   1356   1344   1343   1368     1  0.0000000  0.6508444  3
   1356   1344   1346   1359     1  0.0000000  0.6508444  3
   1356   1344   1346   1360     1  0.0000000  0.6508444  3
   1357   1345   1343   1368     1  0.0000000  0.6508444  3
   1357   1345   1348   1361     1  0.0000000  0.6508444  3
   1357   1345   1348   1362     1  0.0000000  0.6508444  3
   1358   1345   1343   1368     1  0.0000000  0.6508444  3
   1358   1345   1348   1361     1  0.0000000  0.6508444  3
   1358   1345   1348   1362     1  0.0000000  0.6508444  3
   1359   1346   1347   2131     1  180.0000771  0.0000000  2
   1360   1346   1347   2131     1  180.0000771  0.0000000  2
   1361   1348   1349   2143     1  180.0000771  0.0000000  2
   1362   1348   1349   2143     1  180.0000771  0.0000000  2
   1363   1350   1343   1368     1  0.0000000  0.6508444  3
   1363   1350   1351   1365     1  0.0000000  0.6508444  3
   1363   1350   1351   1366     1  0.0000000  0.6508444  3
   1364   1350   1343   1368     1  0.0000000  0.6508444  3
   1364   1350   1351   1365     1  0.0000000  0.6508444  3
   1364   1350   1351   1366     1  0.0000000  0.6508444  3
   1365   1351   1352   1367     1  0.0000000  0.0000000  2
   1366   1351   1352   1367     1  0.0000000  0.0000000  2
   1369   1370   1372   1385     1  0.0000000  0.6508444  3
   1369   1370   1372   1386     1  0.0000000  0.6508444  3
   1369   1371   1374   1387     1  0.0000000  0.6508444  3
   1369   1371   1374   1388     1  0.0000000  0.6508444  3
   1369   1376   1377   1391     1  0.0000000  0.6508444  3
   1369   1376   1377   1392     1  0.0000000  0.6508444  3
   1370   1369   1371   1383     1  0.0000000  0.6508444  3
   1370   1369   1371   1384     1  0.0000000  0.6508444  3
   1370   1369   1376   1389     1  0.0000000  0.6508444  3
   1370   1369   1376   1390     1  0.0000000  0.6508444  3
   1371   1369   1370   1381     1  0.0000000  0.6508444  3
   1371   1369   1370   1382     1  0.0000000  0.6508444  3
   1371   1369   1376   1389     1  0.0000000  0.6508444  3
   1371   1369   1376   1390     1  0.0000000  0.6508444  3
   1372   1370   1369   1394     1  0.0000000  0.6508444  3
   1372   1373   2155   2156     1  180.0000771  10.4600000  2
   1373   1372   1370   1381     1  0.0000000  0.6508444  3
   1373   1372   1370   1382     1  0.0000000  0.6508444  3
   1373   2155   2157   2159     1  0.0000000  0.0000000  2
   1373   2155   2157   2160     1  0.0000000  0.0000000  2
   1374   1371   1369   1394     1  0.0000000  0.6508444  3
   1374   1375   2167   2168     1  180.0000771  10.4600000  2
   1375   1374   1371   1383     1  0.0000000  0.6508444  3
   1375   1374   1371   1384     1  0.0000000  0.6508444  3
   1375   2167   2169   2171     1  0.0000000  0.0000000  2
   1375   2167   2169   2172     1  0.0000000  0.0000000  2
   1376   1369   1370   1381     1  0.0000000  0.6508444  3
   1376   1369   1370   1382     1  0.0000000  0.6508444  3
   1376   1369   1371   1383     1  0.0000000  0.6508444  3
   1376   1369   1371   1384     1  0.0000000  0.6508444  3
   1376   1377   1378   1393     1  0.0000000  0.0000000  2
   1377   1376   1369   1394     1  0.0000000  0.6508444  3
   1378   1377   1376   1389     1  0.0000000  0.6508444  3
   1378   1377   1376   1390     1  0.0000000  0.6508444  3
   1379   1373   1372   1385     1  0.0000000  3.3472000  1
   1379   1373   1372   1385     1  0.0000000  0.0000000  2
   1379   1373   1372   1385     1  180.0000771  0.3347200  3
   1379   1373   1372   1386     1  0.0000000  3.3472000  1
   1379   1373   1372   1386     1  0.0000000  0.0000000  2
   1379   1373   1372   1386     1  180.0000771  0.3347200  3
   1379   1373   2155   2156     1  0.0000000  8.3680000  1
   1379   1373   2155   2156     1  180.0000771  10.4600000  2
   1380   1375   1374   1387     1  0.0000000  3.3472000  1
   1380   1375   1374   1387     1  0.0000000  0.0000000  2
   1380   1375   1374   1387     1  180.0000771  0.3347200  3
   1380   1375   1374   1388     1  0.0000000  3.3472000  1
   1380   1375   1374   1388     1  0.0000000  0.0000000  2
   1380   1375   1374   1388     1  180.0000771  0.3347200  3
   1380   1375   2167   2168     1  0.0000000  8.3680000  1
   1380   1375   2167   2168     1  180.0000771  10.4600000  2
   1381   1370   1369   1394     1  0.0000000  0.6508444  3
   1381   1370   1372   1385     1  0.0000000  0.6508444  3
   1381   1370   1372   1386     1  0.0000000  0.6508444  3
   1382   1370   1369   1394     1  0.0000000  0.6508444  3
   1382   1370   1372   1385     1  0.0000000  0.6508444  3
   1382   1370   1372   1386     1  0.0000000  0.6508444  3
   1383   1371   1369   1394     1  0.0000000  0.6508444  3
   1383   1371   1374   1387     1  0.0000000  0.6508444  3
   1383   1371   1374   1388     1  0.0000000  0.6508444  3
   1384   1371   1369   1394     1  0.0000000  0.6508444  3
   1384   1371   1374   1387     1  0.0000000  0.6508444  3
   1384   1371   1374   1388     1  0.0000000  0.6508444  3
   1385   1372   1373   2155     1  180.0000771  0.0000000  2
   1386   1372   1373   2155     1  180.0000771  0.0000000  2
   1387   1374   1375   2167     1  180.0000771  0.0000000  2
   1388   1374   1375   2167     1  180.0000771  0.0000000  2
   1389   1376   1369   1394     1  0.0000000  0.6508444  3
   1389   1376   1377   1391     1  0.0000000  0.6508444  3
   1389   1376   1377   1392     1  0.0000000  0.6508444  3
   1390   1376   1369   1394     1  0.0000000  0.6508444  3
   1390   1376   1377   1391     1  0.0000000  0.6508444  3
   1390   1376   1377   1392     1  0.0000000  0.6508444  3
   1391   1377   1378   1393     1  0.0000000  0.0000000  2
   1392   1377   1378   1393     1  0.0000000  0.0000000  2
   1395   1396   1398   1411     1  0.0000000  0.6508444  3
   1395   1396   1398   1412     1  0.0000000  0.6508444  3
   1395   1397   1400   1413     1  0.0000000  0.6508444  3
   1395   1397   1400   1414     1  0.0000000  0.6508444  3
   1395   1402   1403   1417     1  0.0000000  0.6508444  3
   1395   1402   1403   1418     1  0.0000000  0.6508444  3
   1396   1395   1397   1409     1  0.0000000  0.6508444  3
   1396   1395   1397   1410     1  0.0000000  0.6508444  3
   1396   1395   1402   1415     1  0.0000000  0.6508444  3
   1396   1395   1402   1416     1  0.0000000  0.6508444  3
   1397   1395   1396   1407     1  0.0000000  0.6508444  3
   1397   1395   1396   1408     1  0.0000000  0.6508444  3
   1397   1395   1402   1415     1  0.0000000  0.6508444  3
   1397   1395   1402   1416     1  0.0000000  0.6508444  3
   1398   1396   1395   1420     1  0.0000000  0.6508444  3
   1398   1399   2179   2180     1  180.0000771  10.4600000  2
   1399   1398   1396   1407     1  0.0000000  0.6508444  3
   1399   1398   1396   1408     1  0.0000000  0.6508444  3
   1399   2179   2181   2183     1  0.0000000  0.0000000  2
   1399   2179   2181   2184     1  0.0000000  0.0000000  2
   1400   1397   1395   1420     1  0.0000000  0.6508444  3
   1400   1401   2191   2192     1  180.0000771  10.4600000  2
   1401   1400   1397   1409     1  0.0000000  0.6508444  3
   1401   1400   1397   1410     1  0.0000000  0.6508444  3
   1401   2191   2193   2195     1  0.0000000  0.0000000  2
   1401   2191   2193   2196     1  0.0000000  0.0000000  2
   1402   1395   1396   1407     1  0.0000000  0.6508444  3
   1402   1395   1396   1408     1  0.0000000  0.6508444  3
   1402   1395   1397   1409     1  0.0000000  0.6508444  3
   1402   1395   1397   1410     1  0.0000000  0.6508444  3
   1402   1403   1404   1419     1  0.0000000  0.0000000  2
   1403   1402   1395   1420     1  0.0000000  0.6508444  3
   1404   1403   1402   1415     1  0.0000000  0.6508444  3
   1404   1403   1402   1416     1  0.0000000  0.6508444  3
   1405   1399   1398   1411     1  0.0000000  3.3472000  1
   1405   1399   1398   1411     1  0.0000000  0.0000000  2
   1405   1399   1398   1411     1  180.0000771  0.3347200  3
   1405   1399   1398   1412     1  0.0000000  3.3472000  1
   1405   1399   1398   1412     1  0.0000000  0.0000000  2
   1405   1399   1398   1412     1  180.0000771  0.3347200  3
   1405   1399   2179   2180     1  0.0000000  8.3680000  1
   1405   1399   2179   2180     1  180.0000771  10.4600000  2
   1406   1401   1400   1413     1  0.0000000  3.3472000  1
   1406   1401   1400   1413     1  0.0000000  0.0000000  2
   1406   1401   1400   1413     1  180.0000771  0.3347200  3
   1406   1401   1400   1414     1  0.0000000  3.3472000  1
   1406   1401   1400   1414     1  0.0000000  0.0000000  2
   1406   1401   1400   1414     1  180.0000771  0.3347200  3
   1406   1401   2191   2192     1  0.0000000  8.3680000  1
   1406   1401   2191   2192     1  180.0000771  10.4600000  2
   1407   1396   1395   1420     1  0.0000000  0.6508444  3
   1407   1396   1398   1411     1  0.0000000  0.6508444  3
   1407   1396   1398   1412     1  0.0000000  0.6508444  3
   1408   1396   1395   1420     1  0.0000000  0.6508444  3
   1408   1396   1398   1411     1  0.0000000  0.6508444  3
   1408   1396   1398   1412     1  0.0000000  0.6508444  3
   1409   1397   1395   1420     1  0.0000000  0.6508444  3
   1409   1397   1400   1413     1  0.0000000  0.6508444  3
   1409   1397   1400   1414     1  0.0000000  0.6508444  3
   1410   1397   1395   1420     1  0.0000000  0.6508444  3
   1410   1397   1400   1413     1  0.0000000  0.6508444  3
   1410   1397   1400   1414     1  0.0000000  0.6508444  3
   1411   1398   1399   2179     1  180.0000771  0.0000000  2
   1412   1398   1399   2179     1  180.0000771  0.0000000  2
   1413   1400   1401   2191     1  180.0000771  0.0000000  2
   1414   1400   1401   2191     1  180.0000771  0.0000000  2
   1415   1402   1395   1420     1  0.0000000  0.6508444  3
   1415   1402   1403   1417     1  0.0000000  0.6508444  3
   1415   1402   1403   1418     1  0.0000000  0.6508444  3
   1416   1402   1395   1420     1  0.0000000  0.6508444  3
   1416   1402   1403   1417     1  0.0000000  0.6508444  3
   1416   1402   1403   1418     1  0.0000000  0.6508444  3
   1417   1403   1404   1419     1  0.0000000  0.0000000  2
   1418   1403   1404   1419     1  0.0000000  0.0000000  2
   1421   1422   1424   1437     1  0.0000000  0.6508444  3
   1421   1422   1424   1438     1  0.0000000  0.6508444  3
   1421   1423   1426   1439     1  0.0000000  0.6508444  3
   1421   1423   1426   1440     1  0.0000000  0.6508444  3
   1421   1428   1429   1443     1  0.0000000  0.6508444  3
   1421   1428   1429   1444     1  0.0000000  0.6508444  3
   1422   1421   1423   1435     1  0.0000000  0.6508444  3
   1422   1421   1423   1436     1  0.0000000  0.6508444  3
   1422   1421   1428   1441     1  0.0000000  0.6508444  3
   1422   1421   1428   1442     1  0.0000000  0.6508444  3
   1423   1421   1422   1433     1  0.0000000  0.6508444  3
   1423   1421   1422   1434     1  0.0000000  0.6508444  3
   1423   1421   1428   1441     1  0.0000000  0.6508444  3
   1423   1421   1428   1442     1  0.0000000  0.6508444  3
   1424   1422   1421   1446     1  0.0000000  0.6508444  3
   1424   1425   2203   2204     1  180.0000771  10.4600000  2
   1425   1424   1422   1433     1  0.0000000  0.6508444  3
   1425   1424   1422   1434     1  0.0000000  0.6508444  3
   1425   2203   2205   2207     1  0.0000000  0.0000000  2
   1425   2203   2205   2208     1  0.0000000  0.0000000  2
   1426   1423   1421   1446     1  0.0000000  0.6508444  3
   1426   1427   2215   2216     1  180.0000771  10.4600000  2
   1427   1426   1423   1435     1  0.0000000  0.6508444  3
   1427   1426   1423   1436     1  0.0000000  0.6508444  3
   1427   2215   2217   2219     1  0.0000000  0.0000000  2
   1427   2215   2217   2220     1  0.0000000  0.0000000  2
   1428   1421   1422   1433     1  0.0000000  0.6508444  3
   1428   1421   1422   1434     1  0.0000000  0.6508444  3
   1428   1421   1423   1435     1  0.0000000  0.6508444  3
   1428   1421   1423   1436     1  0.0000000  0.6508444  3
   1428   1429   1430   1445     1  0.0000000  0.0000000  2
   1429   1428   1421   1446     1  0.0000000  0.6508444  3
   1430   1429   1428   1441     1  0.0000000  0.6508444  3
   1430   1429   1428   1442     1  0.0000000  0.6508444  3
   1431   1425   1424   1437     1  0.0000000  3.3472000  1
   1431   1425   1424   1437     1  0.0000000  0.0000000  2
   1431   1425   1424   1437     1  180.0000771  0.3347200  3
   1431   1425   1424   1438     1  0.0000000  3.3472000  1
   1431   1425   1424   1438     1  0.0000000  0.0000000  2
   1431   1425   1424   1438     1  180.0000771  0.3347200  3
   1431   1425   2203   2204     1  0.0000000  8.3680000  1
   1431   1425   2203   2204     1  180.0000771  10.4600000  2
   1432   1427   1426   1439     1  0.0000000  3.3472000  1
   1432   1427   1426   1439     1  0.0000000  0.0000000  2
   1432   1427   1426   1439     1  180.0000771  0.3347200  3
   1432   1427   1426   1440     1  0.0000000  3.3472000  1
   1432   1427   1426   1440     1  0.0000000  0.0000000  2
   1432   1427   1426   1440     1  180.0000771  0.3347200  3
   1432   1427   2215   2216     1  0.0000000  8.3680000  1
   1432   1427   2215   2216     1  180.0000771  10.4600000  2
   1433   1422   1421   1446     1  0.0000000  0.6508444  3
   1433   1422   1424   1437     1  0.0000000  0.6508444  3
   1433   1422   1424   1438     1  0.0000000  0.6508444  3
   1434   1422   1421   1446     1  0.0000000  0.6508444  3
   1434   1422   1424   1437     1  0.0000000  0.6508444  3
   1434   1422   1424   1438     1  0.0000000  0.6508444  3
   1435   1423   1421   1446     1  0.0000000  0.6508444  3
   1435   1423   1426   1439     1  0.0000000  0.6508444  3
   1435   1423   1426   1440     1  0.0000000  0.6508444  3
   1436   1423   1421   1446     1  0.0000000  0.6508444  3
   1436   1423   1426   1439     1  0.0000000  0.6508444  3
   1436   1423   1426   1440     1  0.0000000  0.6508444  3
   1437   1424   1425   2203     1  180.0000771  0.0000000  2
   1438   1424   1425   2203     1  180.0000771  0.0000000  2
   1439   1426   1427   2215     1  180.0000771  0.0000000  2
   1440   1426   1427   2215     1  180.0000771  0.0000000  2
   1441   1428   1421   1446     1  0.0000000  0.6508444  3
   1441   1428   1429   1443     1  0.0000000  0.6508444  3
   1441   1428   1429   1444     1  0.0000000  0.6508444  3
   1442   1428   1421   1446     1  0.0000000  0.6508444  3
   1442   1428   1429   1443     1  0.0000000  0.6508444  3
   1442   1428   1429   1444     1  0.0000000  0.6508444  3
   1443   1429   1430   1445     1  0.0000000  0.0000000  2
   1444   1429   1430   1445     1  0.0000000  0.0000000  2
   1447   1448   1450   1463     1  0.0000000  0.6508444  3
   1447   1448   1450   1464     1  0.0000000  0.6508444  3
   1447   1449   1452   1465     1  0.0000000  0.6508444  3
   1447   1449   1452   1466     1  0.0000000  0.6508444  3
   1447   1454   1455   1469     1  0.0000000  0.6508444  3
   1447   1454   1455   1470     1  0.0000000  0.6508444  3
   1448   1447   1449   1461     1  0.0000000  0.6508444  3
   1448   1447   1449   1462     1  0.0000000  0.6508444  3
   1448   1447   1454   1467     1  0.0000000  0.6508444  3
   1448   1447   1454   1468     1  0.0000000  0.6508444  3
   1449   1447   1448   1459     1  0.0000000  0.6508444  3
   1449   1447   1448   1460     1  0.0000000  0.6508444  3
   1449   1447   1454   1467     1  0.0000000  0.6508444  3
   1449   1447   1454   1468     1  0.0000000  0.6508444  3
   1450   1448   1447   1472     1  0.0000000  0.6508444  3
   1450   1451   2227   2228     1  180.0000771  10.4600000  2
   1451   1450   1448   1459     1  0.0000000  0.6508444  3
   1451   1450   1448   1460     1  0.0000000  0.6508444  3
   1451   2227   2229   2231     1  0.0000000  0.0000000  2
   1451   2227   2229   2232     1  0.0000000  0.0000000  2
   1452   1449   1447   1472     1  0.0000000  0.6508444  3
   1452   1453   2239   2240     1  180.0000771  10.4600000  2
   1453   1452   1449   1461     1  0.0000000  0.6508444  3
   1453   1452   1449   1462     1  0.0000000  0.6508444  3
   1453   2239   2241   2243     1  0.0000000  0.0000000  2
   1453   2239   2241   2244     1  0.0000000  0.0000000  2
   1454   1447   1448   1459     1  0.0000000  0.6508444  3
   1454   1447   1448   1460     1  0.0000000  0.6508444  3
   1454   1447   1449   1461     1  0.0000000  0.6508444  3
   1454   1447   1449   1462     1  0.0000000  0.6508444  3
   1454   1455   1456   1471     1  0.0000000  0.0000000  2
   1455   1454   1447   1472     1  0.0000000  0.6508444  3
   1456   1455   1454   1467     1  0.0000000  0.6508444  3
   1456   1455   1454   1468     1  0.0000000  0.6508444  3
   1457   1451   1450   1463     1  0.0000000  3.3472000  1
   1457   1451   1450   1463     1  0.0000000  0.0000000  2
   1457   1451   1450   1463     1  180.0000771  0.3347200  3
   1457   1451   1450   1464     1  0.0000000  3.3472000  1
   1457   1451   1450   1464     1  0.0000000  0.0000000  2
   1457   1451   1450   1464     1  180.0000771  0.3347200  3
   1457   1451   2227   2228     1  0.0000000  8.3680000  1
   1457   1451   2227   2228     1  180.0000771  10.4600000  2
   1458   1453   1452   1465     1  0.0000000  3.3472000  1
   1458   1453   1452   1465     1  0.0000000  0.0000000  2
   1458   1453   1452   1465     1  180.0000771  0.3347200  3
   1458   1453   1452   1466     1  0.0000000  3.3472000  1
   1458   1453   1452   1466     1  0.0000000  0.0000000  2
   1458   1453   1452   1466     1  180.0000771  0.3347200  3
   1458   1453   2239   2240     1  0.0000000  8.3680000  1
   1458   1453   2239   2240     1  180.0000771  10.4600000  2
   1459   1448   1447   1472     1  0.0000000  0.6508444  3
   1459   1448   1450   1463     1  0.0000000  0.6508444  3
   1459   1448   1450   1464     1  0.0000000  0.6508444  3
   1460   1448   1447   1472     1  0.0000000  0.6508444  3
   1460   1448   1450   1463     1  0.0000000  0.6508444  3
   1460   1448   1450   1464     1  0.0000000  0.6508444  3
   1461   1449   1447   1472     1  0.0000000  0.6508444  3
   1461   1449   1452   1465     1  0.0000000  0.6508444  3
   1461   1449   1452   1466     1  0.0000000  0.6508444  3
   1462   1449   1447   1472     1  0.0000000  0.6508444  3
   1462   1449   1452   1465     1  0.0000000  0.6508444  3
   1462   1449   1452   1466     1  0.0000000  0.6508444  3
   1463   1450   1451   2227     1  180.0000771  0.0000000  2
   1464   1450   1451   2227     1  180.0000771  0.0000000  2
   1465   1452   1453   2239     1  180.0000771  0.0000000  2
   1466   1452   1453   2239     1  180.0000771  0.0000000  2
   1467   1454   1447   1472     1  0.0000000  0.6508444  3
   1467   1454   1455   1469     1  0.0000000  0.6508444  3
   1467   1454   1455   1470     1  0.0000000  0.6508444  3
   1468   1454   1447   1472     1  0.0000000  0.6508444  3
   1468   1454   1455   1469     1  0.0000000  0.6508444  3
   1468   1454   1455   1470     1  0.0000000  0.6508444  3
   1469   1455   1456   1471     1  0.0000000  0.0000000  2
   1470   1455   1456   1471     1  0.0000000  0.0000000  2
   1473   1474   1476   1489     1  0.0000000  0.6508444  3
   1473   1474   1476   1490     1  0.0000000  0.6508444  3
   1473   1475   1478   1491     1  0.0000000  0.6508444  3
   1473   1475   1478   1492     1  0.0000000  0.6508444  3
   1473   1480   1481   1495     1  0.0000000  0.6508444  3
   1473   1480   1481   1496     1  0.0000000  0.6508444  3
   1474   1473   1475   1487     1  0.0000000  0.6508444  3
   1474   1473   1475   1488     1  0.0000000  0.6508444  3
   1474   1473   1480   1493     1  0.0000000  0.6508444  3
   1474   1473   1480   1494     1  0.0000000  0.6508444  3
   1475   1473   1474   1485     1  0.0000000  0.6508444  3
   1475   1473   1474   1486     1  0.0000000  0.6508444  3
   1475   1473   1480   1493     1  0.0000000  0.6508444  3
   1475   1473   1480   1494     1  0.0000000  0.6508444  3
   1476   1474   1473   1498     1  0.0000000  0.6508444  3
   1476   1477   2251   2252     1  180.0000771  10.4600000  2
   1477   1476   1474   1485     1  0.0000000  0.6508444  3
   1477   1476   1474   1486     1  0.0000000  0.6508444  3
   1477   2251   2253   2255     1  0.0000000  0.0000000  2
   1477   2251   2253   2256     1  0.0000000  0.0000000  2
   1478   1475   1473   1498     1  0.0000000  0.6508444  3
   1478   1479   2263   2264     1  180.0000771  10.4600000  2
   1479   1478   1475   1487     1  0.0000000  0.6508444  3
   1479   1478   1475   1488     1  0.0000000  0.6508444  3
   1479   2263   2265   2267     1  0.0000000  0.0000000  2
   1479   2263   2265   2268     1  0.0000000  0.0000000  2
   1480   1473   1474   1485     1  0.0000000  0.6508444  3
   1480   1473   1474   1486     1  0.0000000  0.6508444  3
   1480   1473   1475   1487     1  0.0000000  0.6508444  3
   1480   1473   1475   1488     1  0.0000000  0.6508444  3
   1480   1481   1482   1497     1  0.0000000  0.0000000  2
   1481   1480   1473   1498     1  0.0000000  0.6508444  3
   1482   1481   1480   1493     1  0.0000000  0.6508444  3
   1482   1481   1480   1494     1  0.0000000  0.6508444  3
   1483   1477   1476   1489     1  0.0000000  3.3472000  1
   1483   1477   1476   1489     1  0.0000000  0.0000000  2
   1483   1477   1476   1489     1  180.0000771  0.3347200  3
   1483   1477   1476   1490     1  0.0000000  3.3472000  1
   1483   1477   1476   1490     1  0.0000000  0.0000000  2
   1483   1477   1476   1490     1  180.0000771  0.3347200  3
   1483   1477   2251   2252     1  0.0000000  8.3680000  1
   1483   1477   2251   2252     1  180.0000771  10.4600000  2
   1484   1479   1478   1491     1  0.0000000  3.3472000  1
   1484   1479   1478   1491     1  0.0000000  0.0000000  2
   1484   1479   1478   1491     1  180.0000771  0.3347200  3
   1484   1479   1478   1492     1  0.0000000  3.3472000  1
   1484   1479   1478   1492     1  0.0000000  0.0000000  2
   1484   1479   1478   1492     1  180.0000771  0.3347200  3
   1484   1479   2263   2264     1  0.0000000  8.3680000  1
   1484   1479   2263   2264     1  180.0000771  10.4600000  2
   1485   1474   1473   1498     1  0.0000000  0.6508444  3
   1485   1474   1476   1489     1  0.0000000  0.6508444  3
   1485   1474   1476   1490     1  0.0000000  0.6508444  3
   1486   1474   1473   1498     1  0.0000000  0.6508444  3
   1486   1474   1476   1489     1  0.0000000  0.6508444  3
   1486   1474   1476   1490     1  0.0000000  0.6508444  3
   1487   1475   1473   1498     1  0.0000000  0.6508444  3
   1487   1475   1478   1491     1  0.0000000  0.6508444  3
   1487   1475   1478   1492     1  0.0000000  0.6508444  3
   1488   1475   1473   1498     1  0.0000000  0.6508444  3
   1488   1475   1478   1491     1  0.0000000  0.6508444  3
   1488   1475   1478   1492     1  0.0000000  0.6508444  3
   1489   1476   1477   2251     1  180.0000771  0.0000000  2
   1490   1476   1477   2251     1  180.0000771  0.0000000  2
   1491   1478   1479   2263     1  180.0000771  0.0000000  2
   1492   1478   1479   2263     1  180.0000771  0.0000000  2
   1493   1480   1473   1498     1  0.0000000  0.6508444  3
   1493   1480   1481   1495     1  0.0000000  0.6508444  3
   1493   1480   1481   1496     1  0.0000000  0.6508444  3
   1494   1480   1473   1498     1  0.0000000  0.6508444  3
   1494   1480   1481   1495     1  0.0000000  0.6508444  3
   1494   1480   1481   1496     1  0.0000000  0.6508444  3
   1495   1481   1482   1497     1  0.0000000  0.0000000  2
   1496   1481   1482   1497     1  0.0000000  0.0000000  2
   1499   1500   1502   1515     1  0.0000000  0.6508444  3
   1499   1500   1502   1516     1  0.0000000  0.6508444  3
   1499   1501   1504   1517     1  0.0000000  0.6508444  3
   1499   1501   1504   1518     1  0.0000000  0.6508444  3
   1499   1506   1507   1521     1  0.0000000  0.6508444  3
   1499   1506   1507   1522     1  0.0000000  0.6508444  3
   1500   1499   1501   1513     1  0.0000000  0.6508444  3
   1500   1499   1501   1514     1  0.0000000  0.6508444  3
   1500   1499   1506   1519     1  0.0000000  0.6508444  3
   1500   1499   1506   1520     1  0.0000000  0.6508444  3
   1501   1499   1500   1511     1  0.0000000  0.6508444  3
   1501   1499   1500   1512     1  0.0000000  0.6508444  3
   1501   1499   1506   1519     1  0.0000000  0.6508444  3
   1501   1499   1506   1520     1  0.0000000  0.6508444  3
   1502   1500   1499   1524     1  0.0000000  0.6508444  3
   1502   1503   2275   2276     1  180.0000771  10.4600000  2
   1503   1502   1500   1511     1  0.0000000  0.6508444  3
   1503   1502   1500   1512     1  0.0000000  0.6508444  3
   1503   2275   2277   2279     1  0.0000000  0.0000000  2
   1503   2275   2277   2280     1  0.0000000  0.0000000  2
   1504   1501   1499   1524     1  0.0000000  0.6508444  3
   1504   1505   2287   2288     1  180.0000771  10.4600000  2
   1505   1504   1501   1513     1  0.0000000  0.6508444  3
   1505   1504   1501   1514     1  0.0000000  0.6508444  3
   1505   2287   2289   2291     1  0.0000000  0.0000000  2
   1505   2287   2289   2292     1  0.0000000  0.0000000  2
   1506   1499   1500   1511     1  0.0000000  0.6508444  3
   1506   1499   1500   1512     1  0.0000000  0.6508444  3
   1506   1499   1501   1513     1  0.0000000  0.6508444  3
   1506   1499   1501   1514     1  0.0000000  0.6508444  3
   1506   1507   1508   1523     1  0.0000000  0.0000000  2
   1507   1506   1499   1524     1  0.0000000  0.6508444  3
   1508   1507   1506   1519     1  0.0000000  0.6508444  3
   1508   1507   1506   1520     1  0.0000000  0.6508444  3
   1509   1503   1502   1515     1  0.0000000  3.3472000  1
   1509   1503   1502   1515     1  0.0000000  0.0000000  2
   1509   1503   1502   1515     1  180.0000771  0.3347200  3
   1509   1503   1502   1516     1  0.0000000  3.3472000  1
   1509   1503   1502   1516     1  0.0000000  0.0000000  2
   1509   1503   1502   1516     1  180.0000771  0.3347200  3
   1509   1503   2275   2276     1  0.0000000  8.3680000  1
   1509   1503   2275   2276     1  180.0000771  10.4600000  2
   1510   1505   1504   1517     1  0.0000000  3.3472000  1
   1510   1505   1504   1517     1  0.0000000  0.0000000  2
   1510   1505   1504   1517     1  180.0000771  0.3347200  3
   1510   1505   1504   1518     1  0.0000000  3.3472000  1
   1510   1505   1504   1518     1  0.0000000  0.0000000  2
   1510   1505   1504   1518     1  180.0000771  0.3347200  3
   1510   1505   2287   2288     1  0.0000000  8.3680000  1
   1510   1505   2287   2288     1  180.0000771  10.4600000  2
   1511   1500   1499   1524     1  0.0000000  0.6508444  3
   1511   1500   1502   1515     1  0.0000000  0.6508444  3
   1511   1500   1502   1516     1  0.0000000  0.6508444  3
   1512   1500   1499   1524     1  0.0000000  0.6508444  3
   1512   1500   1502   1515     1  0.0000000  0.6508444  3
   1512   1500   1502   1516     1  0.0000000  0.6508444  3
   1513   1501   1499   1524     1  0.0000000  0.6508444  3
   1513   1501   1504   1517     1  0.0000000  0.6508444  3
   1513   1501   1504   1518     1  0.0000000  0.6508444  3
   1514   1501   1499   1524     1  0.0000000  0.6508444  3
   1514   1501   1504   1517     1  0.0000000  0.6508444  3
   1514   1501   1504   1518     1  0.0000000  0.6508444  3
   1515   1502   1503   2275     1  180.0000771  0.0000000  2
   1516   1502   1503   2275     1  180.0000771  0.0000000  2
   1517   1504   1505   2287     1  180.0000771  0.0000000  2
   1518   1504   1505   2287     1  180.0000771  0.0000000  2
   1519   1506   1499   1524     1  0.0000000  0.6508444  3
   1519   1506   1507   1521     1  0.0000000  0.6508444  3
   1519   1506   1507   1522     1  0.0000000  0.6508444  3
   1520   1506   1499   1524     1  0.0000000  0.6508444  3
   1520   1506   1507   1521     1  0.0000000  0.6508444  3
   1520   1506   1507   1522     1  0.0000000  0.6508444  3
   1521   1507   1508   1523     1  0.0000000  0.0000000  2
   1522   1507   1508   1523     1  0.0000000  0.0000000  2
   1525   1526   1528   1541     1  0.0000000  0.6508444  3
   1525   1526   1528   1542     1  0.0000000  0.6508444  3
   1525   1527   1530   1543     1  0.0000000  0.6508444  3
   1525   1527   1530   1544     1  0.0000000  0.6508444  3
   1525   1532   1533   1547     1  0.0000000  0.6508444  3
   1525   1532   1533   1548     1  0.0000000  0.6508444  3
   1526   1525   1527   1539     1  0.0000000  0.6508444  3
   1526   1525   1527   1540     1  0.0000000  0.6508444  3
   1526   1525   1532   1545     1  0.0000000  0.6508444  3
   1526   1525   1532   1546     1  0.0000000  0.6508444  3
   1527   1525   1526   1537     1  0.0000000  0.6508444  3
   1527   1525   1526   1538     1  0.0000000  0.6508444  3
   1527   1525   1532   1545     1  0.0000000  0.6508444  3
   1527   1525   1532   1546     1  0.0000000  0.6508444  3
   1528   1526   1525   1550     1  0.0000000  0.6508444  3
   1528   1529   2299   2300     1  180.0000771  10.4600000  2
   1529   1528   1526   1537     1  0.0000000  0.6508444  3
   1529   1528   1526   1538     1  0.0000000  0.6508444  3
   1529   2299   2301   2303     1  0.0000000  0.0000000  2
   1529   2299   2301   2304     1  0.0000000  0.0000000  2
   1530   1527   1525   1550     1  0.0000000  0.6508444  3
   1530   1531   2311   2312     1  180.0000771  10.4600000  2
   1531   1530   1527   1539     1  0.0000000  0.6508444  3
   1531   1530   1527   1540     1  0.0000000  0.6508444  3
   1531   2311   2313   2315     1  0.0000000  0.0000000  2
   1531   2311   2313   2316     1  0.0000000  0.0000000  2
   1532   1525   1526   1537     1  0.0000000  0.6508444  3
   1532   1525   1526   1538     1  0.0000000  0.6508444  3
   1532   1525   1527   1539     1  0.0000000  0.6508444  3
   1532   1525   1527   1540     1  0.0000000  0.6508444  3
   1532   1533   1534   1549     1  0.0000000  0.0000000  2
   1533   1532   1525   1550     1  0.0000000  0.6508444  3
   1534   1533   1532   1545     1  0.0000000  0.6508444  3
   1534   1533   1532   1546     1  0.0000000  0.6508444  3
   1535   1529   1528   1541     1  0.0000000  3.3472000  1
   1535   1529   1528   1541     1  0.0000000  0.0000000  2
   1535   1529   1528   1541     1  180.0000771  0.3347200  3
   1535   1529   1528   1542     1  0.0000000  3.3472000  1
   1535   1529   1528   1542     1  0.0000000  0.0000000  2
   1535   1529   1528   1542     1  180.0000771  0.3347200  3
   1535   1529   2299   2300     1  0.0000000  8.3680000  1
   1535   1529   2299   2300     1  180.0000771  10.4600000  2
   1536   1531   1530   1543     1  0.0000000  3.3472000  1
   1536   1531   1530   1543     1  0.0000000  0.0000000  2
   1536   1531   1530   1543     1  180.0000771  0.3347200  3
   1536   1531   1530   1544     1  0.0000000  3.3472000  1
   1536   1531   1530   1544     1  0.0000000  0.0000000  2
   1536   1531   1530   1544     1  180.0000771  0.3347200  3
   1536   1531   2311   2312     1  0.0000000  8.3680000  1
   1536   1531   2311   2312     1  180.0000771  10.4600000  2
   1537   1526   1525   1550     1  0.0000000  0.6508444  3
   1537   1526   1528   1541     1  0.0000000  0.6508444  3
   1537   1526   1528   1542     1  0.0000000  0.6508444  3
   1538   1526   1525   1550     1  0.0000000  0.6508444  3
   1538   1526   1528   1541     1  0.0000000  0.6508444  3
   1538   1526   1528   1542     1  0.0000000  0.6508444  3
   1539   1527   1525   1550     1  0.0000000  0.6508444  3
   1539   1527   1530   1543     1  0.0000000  0.6508444  3
   1539   1527   1530   1544     1  0.0000000  0.6508444  3
   1540   1527   1525   1550     1  0.0000000  0.6508444  3
   1540   1527   1530   1543     1  0.0000000  0.6508444  3
   1540   1527   1530   1544     1  0.0000000  0.6508444  3
   1541   1528   1529   2299     1  180.0000771  0.0000000  2
   1542   1528   1529   2299     1  180.0000771  0.0000000  2
   1543   1530   1531   2311     1  180.0000771  0.0000000  2
   1544   1530   1531   2311     1  180.0000771  0.0000000  2
   1545   1532   1525   1550     1  0.0000000  0.6508444  3
   1545   1532   1533   1547     1  0.0000000  0.6508444  3
   1545   1532   1533   1548     1  0.0000000  0.6508444  3
   1546   1532   1525   1550     1  0.0000000  0.6508444  3
   1546   1532   1533   1547     1  0.0000000  0.6508444  3
   1546   1532   1533   1548     1  0.0000000  0.6508444  3
   1547   1533   1534   1549     1  0.0000000  0.0000000  2
   1548   1533   1534   1549     1  0.0000000  0.0000000  2
   1551   1552   1554   1567     1  0.0000000  0.6508444  3
   1551   1552   1554   1568     1  0.0000000  0.6508444  3
   1551   1553   1556   1569     1  0.0000000  0.6508444  3
   1551   1553   1556   1570     1  0.0000000  0.6508444  3
   1551   1558   1559   1573     1  0.0000000  0.6508444  3
   1551   1558   1559   1574     1  0.0000000  0.6508444  3
   1552   1551   1553   1565     1  0.0000000  0.6508444  3
   1552   1551   1553   1566     1  0.0000000  0.6508444  3
   1552   1551   1558   1571     1  0.0000000  0.6508444  3
   1552   1551   1558   1572     1  0.0000000  0.6508444  3
   1553   1551   1552   1563     1  0.0000000  0.6508444  3
   1553   1551   1552   1564     1  0.0000000  0.6508444  3
   1553   1551   1558   1571     1  0.0000000  0.6508444  3
   1553   1551   1558   1572     1  0.0000000  0.6508444  3
   1554   1552   1551   1576     1  0.0000000  0.6508444  3
   1554   1555   2323   2324     1  180.0000771  10.4600000  2
   1555   1554   1552   1563     1  0.0000000  0.6508444  3
   1555   1554   1552   1564     1  0.0000000  0.6508444  3
   1555   2323   2325   2327     1  0.0000000  0.0000000  2
   1555   2323   2325   2328     1  0.0000000  0.0000000  2
   1556   1553   1551   1576     1  0.0000000  0.6508444  3
   1556   1557   2335   2336     1  180.0000771  10.4600000  2
   1557   1556   1553   1565     1  0.0000000  0.6508444  3
   1557   1556   1553   1566     1  0.0000000  0.6508444  3
   1557   2335   2337   2339     1  0.0000000  0.0000000  2
   1557   2335   2337   2340     1  0.0000000  0.0000000  2
   1558   1551   1552   1563     1  0.0000000  0.6508444  3
   1558   1551   1552   1564     1  0.0000000  0.6508444  3
   1558   1551   1553   1565     1  0.0000000  0.6508444  3
   1558   1551   1553   1566     1  0.0000000  0.6508444  3
   1558   1559   1560   1575     1  0.0000000  0.0000000  2
   1559   1558   1551   1576     1  0.0000000  0.6508444  3
   1560   1559   1558   1571     1  0.0000000  0.6508444  3
   1560   1559   1558   1572     1  0.0000000  0.6508444  3
   1561   1555   1554   1567     1  0.0000000  3.3472000  1
   1561   1555   1554   1567     1  0.0000000  0.0000000  2
   1561   1555   1554   1567     1  180.0000771  0.3347200  3
   1561   1555   1554   1568     1  0.0000000  3.3472000  1
   1561   1555   1554   1568     1  0.0000000  0.0000000  2
   1561   1555   1554   1568     1  180.0000771  0.3347200  3
   1561   1555   2323   2324     1  0.0000000  8.3680000  1
   1561   1555   2323   2324     1  180.0000771  10.4600000  2
   1562   1557   1556   1569     1  0.0000000  3.3472000  1
   1562   1557   1556   1569     1  0.0000000  0.0000000  2
   1562   1557   1556   1569     1  180.0000771  0.3347200  3
   1562   1557   1556   1570     1  0.0000000  3.3472000  1
   1562   1557   1556   1570     1  0.0000000  0.0000000  2
   1562   1557   1556   1570     1  180.0000771  0.3347200  3
   1562   1557   2335   2336     1  0.0000000  8.3680000  1
   1562   1557   2335   2336     1  180.0000771  10.4600000  2
   1563   1552   1551   1576     1  0.0000000  0.6508444  3
   1563   1552   1554   1567     1  0.0000000  0.6508444  3
   1563   1552   1554   1568     1  0.0000000  0.6508444  3
   1564   1552   1551   1576     1  0.0000000  0.6508444  3
   1564   1552   1554   1567     1  0.0000000  0.6508444  3
   1564   1552   1554   1568     1  0.0000000  0.6508444  3
   1565   1553   1551   1576     1  0.0000000  0.6508444  3
   1565   1553   1556   1569     1  0.0000000  0.6508444  3
   1565   1553   1556   1570     1  0.0000000  0.6508444  3
   1566   1553   1551   1576     1  0.0000000  0.6508444  3
   1566   1553   1556   1569     1  0.0000000  0.6508444  3
   1566   1553   1556   1570     1  0.0000000  0.6508444  3
   1567   1554   1555   2323     1  180.0000771  0.0000000  2
   1568   1554   1555   2323     1  180.0000771  0.0000000  2
   1569   1556   1557   2335     1  180.0000771  0.0000000  2
   1570   1556   1557   2335     1  180.0000771  0.0000000  2
   1571   1558   1551   1576     1  0.0000000  0.6508444  3
   1571   1558   1559   1573     1  0.0000000  0.6508444  3
   1571   1558   1559   1574     1  0.0000000  0.6508444  3
   1572   1558   1551   1576     1  0.0000000  0.6508444  3
   1572   1558   1559   1573     1  0.0000000  0.6508444  3
   1572   1558   1559   1574     1  0.0000000  0.6508444  3
   1573   1559   1560   1575     1  0.0000000  0.0000000  2
   1574   1559   1560   1575     1  0.0000000  0.0000000  2
   1577   1578   1580   1593     1  0.0000000  0.6508444  3
   1577   1578   1580   1594     1  0.0000000  0.6508444  3
   1577   1579   1582   1595     1  0.0000000  0.6508444  3
   1577   1579   1582   1596     1  0.0000000  0.6508444  3
   1577   1584   1585   1599     1  0.0000000  0.6508444  3
   1577   1584   1585   1600     1  0.0000000  0.6508444  3
   1578   1577   1579   1591     1  0.0000000  0.6508444  3
   1578   1577   1579   1592     1  0.0000000  0.6508444  3
   1578   1577   1584   1597     1  0.0000000  0.6508444  3
   1578   1577   1584   1598     1  0.0000000  0.6508444  3
   1579   1577   1578   1589     1  0.0000000  0.6508444  3
   1579   1577   1578   1590     1  0.0000000  0.6508444  3
   1579   1577   1584   1597     1  0.0000000  0.6508444  3
   1579   1577   1584   1598     1  0.0000000  0.6508444  3
   1580   1578   1577   1602     1  0.0000000  0.6508444  3
   1580   1581   2347   2348     1  180.0000771  10.4600000  2
   1581   1580   1578   1589     1  0.0000000  0.6508444  3
   1581   1580   1578   1590     1  0.0000000  0.6508444  3
   1581   2347   2349   2351     1  0.0000000  0.0000000  2
   1581   2347   2349   2352     1  0.0000000  0.0000000  2
   1582   1579   1577   1602     1  0.0000000  0.6508444  3
   1582   1583   2359   2360     1  180.0000771  10.4600000  2
   1583   1582   1579   1591     1  0.0000000  0.6508444  3
   1583   1582   1579   1592     1  0.0000000  0.6508444  3
   1583   2359   2361   2363     1  0.0000000  0.0000000  2
   1583   2359   2361   2364     1  0.0000000  0.0000000  2
   1584   1577   1578   1589     1  0.0000000  0.6508444  3
   1584   1577   1578   1590     1  0.0000000  0.6508444  3
   1584   1577   1579   1591     1  0.0000000  0.6508444  3
   1584   1577   1579   1592     1  0.0000000  0.6508444  3
   1584   1585   1586   1601     1  0.0000000  0.0000000  2
   1585   1584   1577   1602     1  0.0000000  0.6508444  3
   1586   1585   1584   1597     1  0.0000000  0.6508444  3
   1586   1585   1584   1598     1  0.0000000  0.6508444  3
   1587   1581   1580   1593     1  0.0000000  3.3472000  1
   1587   1581   1580   1593     1  0.0000000  0.0000000  2
   1587   1581   1580   1593     1  180.0000771  0.3347200  3
   1587   1581   1580   1594     1  0.0000000  3.3472000  1
   1587   1581   1580   1594     1  0.0000000  0.0000000  2
   1587   1581   1580   1594     1  180.0000771  0.3347200  3
   1587   1581   2347   2348     1  0.0000000  8.3680000  1
   1587   1581   2347   2348     1  180.0000771  10.4600000  2
   1588   1583   1582   1595     1  0.0000000  3.3472000  1
   1588   1583   1582   1595     1  0.0000000  0.0000000  2
   1588   1583   1582   1595     1  180.0000771  0.3347200  3
   1588   1583   1582   1596     1  0.0000000  3.3472000  1
   1588   1583   1582   1596     1  0.0000000  0.0000000  2
   1588   1583   1582   1596     1  180.0000771  0.3347200  3
   1588   1583   2359   2360     1  0.0000000  8.3680000  1
   1588   1583   2359   2360     1  180.0000771  10.4600000  2
   1589   1578   1577   1602     1  0.0000000  0.6508444  3
   1589   1578   1580   1593     1  0.0000000  0.6508444  3
   1589   1578   1580   1594     1  0.0000000  0.6508444  3
   1590   1578   1577   1602     1  0.0000000  0.6508444  3
   1590   1578   1580   1593     1  0.0000000  0.6508444  3
   1590   1578   1580   1594     1  0.0000000  0.6508444  3
   1591   1579   1577   1602     1  0.0000000  0.6508444  3
   1591   1579   1582   1595     1  0.0000000  0.6508444  3
   1591   1579   1582   1596     1  0.0000000  0.6508444  3
   1592   1579   1577   1602     1  0.0000000  0.6508444  3
   1592   1579   1582   1595     1  0.0000000  0.6508444  3
   1592   1579   1582   1596     1  0.0000000  0.6508444  3
   1593   1580   1581   2347     1  180.0000771  0.0000000  2
   1594   1580   1581   2347     1  180.0000771  0.0000000  2
   1595   1582   1583   2359     1  180.0000771  0.0000000  2
   1596   1582   1583   2359     1  180.0000771  0.0000000  2
   1597   1584   1577   1602     1  0.0000000  0.6508444  3
   1597   1584   1585   1599     1  0.0000000  0.6508444  3
   1597   1584   1585   1600     1  0.0000000  0.6508444  3
   1598   1584   1577   1602     1  0.0000000  0.6508444  3
   1598   1584   1585   1599     1  0.0000000  0.6508444  3
   1598   1584   1585   1600     1  0.0000000  0.6508444  3
   1599   1585   1586   1601     1  0.0000000  0.0000000  2
   1600   1585   1586   1601     1  0.0000000  0.0000000  2
   1603   1605   1606   1609     1  0.0000000  0.6508444  3
   1603   1605   1606   1610     1  0.0000000  0.6508444  3
   1604   1603   1605   1606     1  0.0000000  0.0000000  2
   1604   1603   1605   1607     1  0.0000000  0.0000000  2
   1604   1603   1605   1608     1  0.0000000  0.0000000  2
   1605   1606   1611   1612     1  0.0000000  0.6508444  3
   1605   1606   1611   1613     1  0.0000000  0.6508444  3
   1605   1606   1611   1614     1  0.0000000  0.6508444  3
   1607   1605   1606   1611     1  0.0000000  0.6508444  3
   1607   1605   1606   1609     1  0.0000000  0.6508444  3
   1607   1605   1606   1610     1  0.0000000  0.6508444  3
   1608   1605   1606   1611     1  0.0000000  0.6508444  3
   1608   1605   1606   1609     1  0.0000000  0.6508444  3
   1608   1605   1606   1610     1  0.0000000  0.6508444  3
   1609   1606   1611   1612     1  0.0000000  0.6508444  3
   1609   1606   1611   1613     1  0.0000000  0.6508444  3
   1609   1606   1611   1614     1  0.0000000  0.6508444  3
   1610   1606   1611   1612     1  0.0000000  0.6508444  3
   1610   1606   1611   1613     1  0.0000000  0.6508444  3
   1610   1606   1611   1614     1  0.0000000  0.6508444  3
   1615   1617   1618   1621     1  0.0000000  0.6508444  3
   1615   1617   1618   1622     1  0.0000000  0.6508444  3
   1616   1615   1617   1618     1  0.0000000  0.0000000  2
   1616   1615   1617   1619     1  0.0000000  0.0000000  2
   1616   1615   1617   1620     1  0.0000000  0.0000000  2
   1617   1618   1623   1624     1  0.0000000  0.6508444  3
   1617   1618   1623   1625     1  0.0000000  0.6508444  3
   1617   1618   1623   1626     1  0.0000000  0.6508444  3
   1619   1617   1618   1623     1  0.0000000  0.6508444  3
   1619   1617   1618   1621     1  0.0000000  0.6508444  3
   1619   1617   1618   1622     1  0.0000000  0.6508444  3
   1620   1617   1618   1623     1  0.0000000  0.6508444  3
   1620   1617   1618   1621     1  0.0000000  0.6508444  3
   1620   1617   1618   1622     1  0.0000000  0.6508444  3
   1621   1618   1623   1624     1  0.0000000  0.6508444  3
   1621   1618   1623   1625     1  0.0000000  0.6508444  3
   1621   1618   1623   1626     1  0.0000000  0.6508444  3
   1622   1618   1623   1624     1  0.0000000  0.6508444  3
   1622   1618   1623   1625     1  0.0000000  0.6508444  3
   1622   1618   1623   1626     1  0.0000000  0.6508444  3
   1627   1629   1630   1633     1  0.0000000  0.6508444  3
   1627   1629   1630   1634     1  0.0000000  0.6508444  3
   1628   1627   1629   1630     1  0.0000000  0.0000000  2
   1628   1627   1629   1631     1  0.0000000  0.0000000  2
   1628   1627   1629   1632     1  0.0000000  0.0000000  2
   1629   1630   1635   1636     1  0.0000000  0.6508444  3
   1629   1630   1635   1637     1  0.0000000  0.6508444  3
   1629   1630   1635   1638     1  0.0000000  0.6508444  3
   1631   1629   1630   1635     1  0.0000000  0.6508444  3
   1631   1629   1630   1633     1  0.0000000  0.6508444  3
   1631   1629   1630   1634     1  0.0000000  0.6508444  3
   1632   1629   1630   1635     1  0.0000000  0.6508444  3
   1632   1629   1630   1633     1  0.0000000  0.6508444  3
   1632   1629   1630   1634     1  0.0000000  0.6508444  3
   1633   1630   1635   1636     1  0.0000000  0.6508444  3
   1633   1630   1635   1637     1  0.0000000  0.6508444  3
   1633   1630   1635   1638     1  0.0000000  0.6508444  3
   1634   1630   1635   1636     1  0.0000000  0.6508444  3
   1634   1630   1635   1637     1  0.0000000  0.6508444  3
   1634   1630   1635   1638     1  0.0000000  0.6508444  3
   1639   1641   1642   1645     1  0.0000000  0.6508444  3
   1639   1641   1642   1646     1  0.0000000  0.6508444  3
   1640   1639   1641   1642     1  0.0000000  0.0000000  2
   1640   1639   1641   1643     1  0.0000000  0.0000000  2
   1640   1639   1641   1644     1  0.0000000  0.0000000  2
   1641   1642   1647   1648     1  0.0000000  0.6508444  3
   1641   1642   1647   1649     1  0.0000000  0.6508444  3
   1641   1642   1647   1650     1  0.0000000  0.6508444  3
   1643   1641   1642   1647     1  0.0000000  0.6508444  3
   1643   1641   1642   1645     1  0.0000000  0.6508444  3
   1643   1641   1642   1646     1  0.0000000  0.6508444  3
   1644   1641   1642   1647     1  0.0000000  0.6508444  3
   1644   1641   1642   1645     1  0.0000000  0.6508444  3
   1644   1641   1642   1646     1  0.0000000  0.6508444  3
   1645   1642   1647   1648     1  0.0000000  0.6508444  3
   1645   1642   1647   1649     1  0.0000000  0.6508444  3
   1645   1642   1647   1650     1  0.0000000  0.6508444  3
   1646   1642   1647   1648     1  0.0000000  0.6508444  3
   1646   1642   1647   1649     1  0.0000000  0.6508444  3
   1646   1642   1647   1650     1  0.0000000  0.6508444  3
   1651   1653   1654   1657     1  0.0000000  0.6508444  3
   1651   1653   1654   1658     1  0.0000000  0.6508444  3
   1652   1651   1653   1654     1  0.0000000  0.0000000  2
   1652   1651   1653   1655     1  0.0000000  0.0000000  2
   1652   1651   1653   1656     1  0.0000000  0.0000000  2
   1653   1654   1659   1660     1  0.0000000  0.6508444  3
   1653   1654   1659   1661     1  0.0000000  0.6508444  3
   1653   1654   1659   1662     1  0.0000000  0.6508444  3
   1655   1653   1654   1659     1  0.0000000  0.6508444  3
   1655   1653   1654   1657     1  0.0000000  0.6508444  3
   1655   1653   1654   1658     1  0.0000000  0.6508444  3
   1656   1653   1654   1659     1  0.0000000  0.6508444  3
   1656   1653   1654   1657     1  0.0000000  0.6508444  3
   1656   1653   1654   1658     1  0.0000000  0.6508444  3
   1657   1654   1659   1660     1  0.0000000  0.6508444  3
   1657   1654   1659   1661     1  0.0000000  0.6508444  3
   1657   1654   1659   1662     1  0.0000000  0.6508444  3
   1658   1654   1659   1660     1  0.0000000  0.6508444  3
   1658   1654   1659   1661     1  0.0000000  0.6508444  3
   1658   1654   1659   1662     1  0.0000000  0.6508444  3
   1663   1665   1666   1669     1  0.0000000  0.6508444  3
   1663   1665   1666   1670     1  0.0000000  0.6508444  3
   1664   1663   1665   1666     1  0.0000000  0.0000000  2
   1664   1663   1665   1667     1  0.0000000  0.0000000  2
   1664   1663   1665   1668     1  0.0000000  0.0000000  2
   1665   1666   1671   1672     1  0.0000000  0.6508444  3
   1665   1666   1671   1673     1  0.0000000  0.6508444  3
   1665   1666   1671   1674     1  0.0000000  0.6508444  3
   1667   1665   1666   1671     1  0.0000000  0.6508444  3
   1667   1665   1666   1669     1  0.0000000  0.6508444  3
   1667   1665   1666   1670     1  0.0000000  0.6508444  3
   1668   1665   1666   1671     1  0.0000000  0.6508444  3
   1668   1665   1666   1669     1  0.0000000  0.6508444  3
   1668   1665   1666   1670     1  0.0000000  0.6508444  3
   1669   1666   1671   1672     1  0.0000000  0.6508444  3
   1669   1666   1671   1673     1  0.0000000  0.6508444  3
   1669   1666   1671   1674     1  0.0000000  0.6508444  3
   1670   1666   1671   1672     1  0.0000000  0.6508444  3
   1670   1666   1671   1673     1  0.0000000  0.6508444  3
   1670   1666   1671   1674     1  0.0000000  0.6508444  3
   1675   1677   1678   1681     1  0.0000000  0.6508444  3
   1675   1677   1678   1682     1  0.0000000  0.6508444  3
   1676   1675   1677   1678     1  0.0000000  0.0000000  2
   1676   1675   1677   1679     1  0.0000000  0.0000000  2
   1676   1675   1677   1680     1  0.0000000  0.0000000  2
   1677   1678   1683   1684     1  0.0000000  0.6508444  3
   1677   1678   1683   1685     1  0.0000000  0.6508444  3
   1677   1678   1683   1686     1  0.0000000  0.6508444  3
   1679   1677   1678   1683     1  0.0000000  0.6508444  3
   1679   1677   1678   1681     1  0.0000000  0.6508444  3
   1679   1677   1678   1682     1  0.0000000  0.6508444  3
   1680   1677   1678   1683     1  0.0000000  0.6508444  3
   1680   1677   1678   1681     1  0.0000000  0.6508444  3
   1680   1677   1678   1682     1  0.0000000  0.6508444  3
   1681   1678   1683   1684     1  0.0000000  0.6508444  3
   1681   1678   1683   1685     1  0.0000000  0.6508444  3
   1681   1678   1683   1686     1  0.0000000  0.6508444  3
   1682   1678   1683   1684     1  0.0000000  0.6508444  3
   1682   1678   1683   1685     1  0.0000000  0.6508444  3
   1682   1678   1683   1686     1  0.0000000  0.6508444  3
   1687   1689   1690   1693     1  0.0000000  0.6508444  3
   1687   1689   1690   1694     1  0.0000000  0.6508444  3
   1688   1687   1689   1690     1  0.0000000  0.0000000  2
   1688   1687   1689   1691     1  0.0000000  0.0000000  2
   1688   1687   1689   1692     1  0.0000000  0.0000000  2
   1689   1690   1695   1696     1  0.0000000  0.6508444  3
   1689   1690   1695   1697     1  0.0000000  0.6508444  3
   1689   1690   1695   1698     1  0.0000000  0.6508444  3
   1691   1689   1690   1695     1  0.0000000  0.6508444  3
   1691   1689   1690   1693     1  0.0000000  0.6508444  3
   1691   1689   1690   1694     1  0.0000000  0.6508444  3
   1692   1689   1690   1695     1  0.0000000  0.6508444  3
   1692   1689   1690   1693     1  0.0000000  0.6508444  3
   1692   1689   1690   1694     1  0.0000000  0.6508444  3
   1693   1690   1695   1696     1  0.0000000  0.6508444  3
   1693   1690   1695   1697     1  0.0000000  0.6508444  3
   1693   1690   1695   1698     1  0.0000000  0.6508444  3
   1694   1690   1695   1696     1  0.0000000  0.6508444  3
   1694   1690   1695   1697     1  0.0000000  0.6508444  3
   1694   1690   1695   1698     1  0.0000000  0.6508444  3
   1699   1701   1702   1705     1  0.0000000  0.6508444  3
   1699   1701   1702   1706     1  0.0000000  0.6508444  3
   1700   1699   1701   1702     1  0.0000000  0.0000000  2
   1700   1699   1701   1703     1  0.0000000  0.0000000  2
   1700   1699   1701   1704     1  0.0000000  0.0000000  2
   1701   1702   1707   1708     1  0.0000000  0.6508444  3
   1701   1702   1707   1709     1  0.0000000  0.6508444  3
   1701   1702   1707   1710     1  0.0000000  0.6508444  3
   1703   1701   1702   1707     1  0.0000000  0.6508444  3
   1703   1701   1702   1705     1  0.0000000  0.6508444  3
   1703   1701   1702   1706     1  0.0000000  0.6508444  3
   1704   1701   1702   1707     1  0.0000000  0.6508444  3
   1704   1701   1702   1705     1  0.0000000  0.6508444  3
   1704   1701   1702   1706     1  0.0000000  0.6508444  3
   1705   1702   1707   1708     1  0.0000000  0.6508444  3
   1705   1702   1707   1709     1  0.0000000  0.6508444  3
   1705   1702   1707   1710     1  0.0000000  0.6508444  3
   1706   1702   1707   1708     1  0.0000000  0.6508444  3
   1706   1702   1707   1709     1  0.0000000  0.6508444  3
   1706   1702   1707   1710     1  0.0000000  0.6508444  3
   1711   1713   1714   1717     1  0.0000000  0.6508444  3
   1711   1713   1714   1718     1  0.0000000  0.6508444  3
   1712   1711   1713   1714     1  0.0000000  0.0000000  2
   1712   1711   1713   1715     1  0.0000000  0.0000000  2
   1712   1711   1713   1716     1  0.0000000  0.0000000  2
   1713   1714   1719   1720     1  0.0000000  0.6508444  3
   1713   1714   1719   1721     1  0.0000000  0.6508444  3
   1713   1714   1719   1722     1  0.0000000  0.6508444  3
   1715   1713   1714   1719     1  0.0000000  0.6508444  3
   1715   1713   1714   1717     1  0.0000000  0.6508444  3
   1715   1713   1714   1718     1  0.0000000  0.6508444  3
   1716   1713   1714   1719     1  0.0000000  0.6508444  3
   1716   1713   1714   1717     1  0.0000000  0.6508444  3
   1716   1713   1714   1718     1  0.0000000  0.6508444  3
   1717   1714   1719   1720     1  0.0000000  0.6508444  3
   1717   1714   1719   1721     1  0.0000000  0.6508444  3
   1717   1714   1719   1722     1  0.0000000  0.6508444  3
   1718   1714   1719   1720     1  0.0000000  0.6508444  3
   1718   1714   1719   1721     1  0.0000000  0.6508444  3
   1718   1714   1719   1722     1  0.0000000  0.6508444  3
   1723   1725   1726   1729     1  0.0000000  0.6508444  3
   1723   1725   1726   1730     1  0.0000000  0.6508444  3
   1724   1723   1725   1726     1  0.0000000  0.0000000  2
   1724   1723   1725   1727     1  0.0000000  0.0000000  2
   1724   1723   1725   1728     1  0.0000000  0.0000000  2
   1725   1726   1731   1732     1  0.0000000  0.6508444  3
   1725   1726   1731   1733     1  0.0000000  0.6508444  3
   1725   1726   1731   1734     1  0.0000000  0.6508444  3
   1727   1725   1726   1731     1  0.0000000  0.6508444  3
   1727   1725   1726   1729     1  0.0000000  0.6508444  3
   1727   1725   1726   1730     1  0.0000000  0.6508444  3
   1728   1725   1726   1731     1  0.0000000  0.6508444  3
   1728   1725   1726   1729     1  0.0000000  0.6508444  3
   1728   1725   1726   1730     1  0.0000000  0.6508444  3
   1729   1726   1731   1732     1  0.0000000  0.6508444  3
   1729   1726   1731   1733     1  0.0000000  0.6508444  3
   1729   1726   1731   1734     1  0.0000000  0.6508444  3
   1730   1726   1731   1732     1  0.0000000  0.6508444  3
   1730   1726   1731   1733     1  0.0000000  0.6508444  3
   1730   1726   1731   1734     1  0.0000000  0.6508444  3
   1735   1737   1738   1741     1  0.0000000  0.6508444  3
   1735   1737   1738   1742     1  0.0000000  0.6508444  3
   1736   1735   1737   1738     1  0.0000000  0.0000000  2
   1736   1735   1737   1739     1  0.0000000  0.0000000  2
   1736   1735   1737   1740     1  0.0000000  0.0000000  2
   1737   1738   1743   1744     1  0.0000000  0.6508444  3
   1737   1738   1743   1745     1  0.0000000  0.6508444  3
   1737   1738   1743   1746     1  0.0000000  0.6508444  3
   1739   1737   1738   1743     1  0.0000000  0.6508444  3
   1739   1737   1738   1741     1  0.0000000  0.6508444  3
   1739   1737   1738   1742     1  0.0000000  0.6508444  3
   1740   1737   1738   1743     1  0.0000000  0.6508444  3
   1740   1737   1738   1741     1  0.0000000  0.6508444  3
   1740   1737   1738   1742     1  0.0000000  0.6508444  3
   1741   1738   1743   1744     1  0.0000000  0.6508444  3
   1741   1738   1743   1745     1  0.0000000  0.6508444  3
   1741   1738   1743   1746     1  0.0000000  0.6508444  3
   1742   1738   1743   1744     1  0.0000000  0.6508444  3
   1742   1738   1743   1745     1  0.0000000  0.6508444  3
   1742   1738   1743   1746     1  0.0000000  0.6508444  3
   1747   1749   1750   1753     1  0.0000000  0.6508444  3
   1747   1749   1750   1754     1  0.0000000  0.6508444  3
   1748   1747   1749   1750     1  0.0000000  0.0000000  2
   1748   1747   1749   1751     1  0.0000000  0.0000000  2
   1748   1747   1749   1752     1  0.0000000  0.0000000  2
   1749   1750   1755   1756     1  0.0000000  0.6508444  3
   1749   1750   1755   1757     1  0.0000000  0.6508444  3
   1749   1750   1755   1758     1  0.0000000  0.6508444  3
   1751   1749   1750   1755     1  0.0000000  0.6508444  3
   1751   1749   1750   1753     1  0.0000000  0.6508444  3
   1751   1749   1750   1754     1  0.0000000  0.6508444  3
   1752   1749   1750   1755     1  0.0000000  0.6508444  3
   1752   1749   1750   1753     1  0.0000000  0.6508444  3
   1752   1749   1750   1754     1  0.0000000  0.6508444  3
   1753   1750   1755   1756     1  0.0000000  0.6508444  3
   1753   1750   1755   1757     1  0.0000000  0.6508444  3
   1753   1750   1755   1758     1  0.0000000  0.6508444  3
   1754   1750   1755   1756     1  0.0000000  0.6508444  3
   1754   1750   1755   1757     1  0.0000000  0.6508444  3
   1754   1750   1755   1758     1  0.0000000  0.6508444  3
   1759   1761   1762   1765     1  0.0000000  0.6508444  3
   1759   1761   1762   1766     1  0.0000000  0.6508444  3
   1760   1759   1761   1762     1  0.0000000  0.0000000  2
   1760   1759   1761   1763     1  0.0000000  0.0000000  2
   1760   1759   1761   1764     1  0.0000000  0.0000000  2
   1761   1762   1767   1768     1  0.0000000  0.6508444  3
   1761   1762   1767   1769     1  0.0000000  0.6508444  3
   1761   1762   1767   1770     1  0.0000000  0.6508444  3
   1763   1761   1762   1767     1  0.0000000  0.6508444  3
   1763   1761   1762   1765     1  0.0000000  0.6508444  3
   1763   1761   1762   1766     1  0.0000000  0.6508444  3
   1764   1761   1762   1767     1  0.0000000  0.6508444  3
   1764   1761   1762   1765     1  0.0000000  0.6508444  3
   1764   1761   1762   1766     1  0.0000000  0.6508444  3
   1765   1762   1767   1768     1  0.0000000  0.6508444  3
   1765   1762   1767   1769     1  0.0000000  0.6508444  3
   1765   1762   1767   1770     1  0.0000000  0.6508444  3
   1766   1762   1767   1768     1  0.0000000  0.6508444  3
   1766   1762   1767   1769     1  0.0000000  0.6508444  3
   1766   1762   1767   1770     1  0.0000000  0.6508444  3
   1771   1773   1774   1777     1  0.0000000  0.6508444  3
   1771   1773   1774   1778     1  0.0000000  0.6508444  3
   1772   1771   1773   1774     1  0.0000000  0.0000000  2
   1772   1771   1773   1775     1  0.0000000  0.0000000  2
   1772   1771   1773   1776     1  0.0000000  0.0000000  2
   1773   1774   1779   1780     1  0.0000000  0.6508444  3
   1773   1774   1779   1781     1  0.0000000  0.6508444  3
   1773   1774   1779   1782     1  0.0000000  0.6508444  3
   1775   1773   1774   1779     1  0.0000000  0.6508444  3
   1775   1773   1774   1777     1  0.0000000  0.6508444  3
   1775   1773   1774   1778     1  0.0000000  0.6508444  3
   1776   1773   1774   1779     1  0.0000000  0.6508444  3
   1776   1773   1774   1777     1  0.0000000  0.6508444  3
   1776   1773   1774   1778     1  0.0000000  0.6508444  3
   1777   1774   1779   1780     1  0.0000000  0.6508444  3
   1777   1774   1779   1781     1  0.0000000  0.6508444  3
   1777   1774   1779   1782     1  0.0000000  0.6508444  3
   1778   1774   1779   1780     1  0.0000000  0.6508444  3
   1778   1774   1779   1781     1  0.0000000  0.6508444  3
   1778   1774   1779   1782     1  0.0000000  0.6508444  3
   1783   1785   1786   1789     1  0.0000000  0.6508444  3
   1783   1785   1786   1790     1  0.0000000  0.6508444  3
   1784   1783   1785   1786     1  0.0000000  0.0000000  2
   1784   1783   1785   1787     1  0.0000000  0.0000000  2
   1784   1783   1785   1788     1  0.0000000  0.0000000  2
   1785   1786   1791   1792     1  0.0000000  0.6508444  3
   1785   1786   1791   1793     1  0.0000000  0.6508444  3
   1785   1786   1791   1794     1  0.0000000  0.6508444  3
   1787   1785   1786   1791     1  0.0000000  0.6508444  3
   1787   1785   1786   1789     1  0.0000000  0.6508444  3
   1787   1785   1786   1790     1  0.0000000  0.6508444  3
   1788   1785   1786   1791     1  0.0000000  0.6508444  3
   1788   1785   1786   1789     1  0.0000000  0.6508444  3
   1788   1785   1786   1790     1  0.0000000  0.6508444  3
   1789   1786   1791   1792     1  0.0000000  0.6508444  3
   1789   1786   1791   1793     1  0.0000000  0.6508444  3
   1789   1786   1791   1794     1  0.0000000  0.6508444  3
   1790   1786   1791   1792     1  0.0000000  0.6508444  3
   1790   1786   1791   1793     1  0.0000000  0.6508444  3
   1790   1786   1791   1794     1  0.0000000  0.6508444  3
   1795   1797   1798   1801     1  0.0000000  0.6508444  3
   1795   1797   1798   1802     1  0.0000000  0.6508444  3
   1796   1795   1797   1798     1  0.0000000  0.0000000  2
   1796   1795   1797   1799     1  0.0000000  0.0000000  2
   1796   1795   1797   1800     1  0.0000000  0.0000000  2
   1797   1798   1803   1804     1  0.0000000  0.6508444  3
   1797   1798   1803   1805     1  0.0000000  0.6508444  3
   1797   1798   1803   1806     1  0.0000000  0.6508444  3
   1799   1797   1798   1803     1  0.0000000  0.6508444  3
   1799   1797   1798   1801     1  0.0000000  0.6508444  3
   1799   1797   1798   1802     1  0.0000000  0.6508444  3
   1800   1797   1798   1803     1  0.0000000  0.6508444  3
   1800   1797   1798   1801     1  0.0000000  0.6508444  3
   1800   1797   1798   1802     1  0.0000000  0.6508444  3
   1801   1798   1803   1804     1  0.0000000  0.6508444  3
   1801   1798   1803   1805     1  0.0000000  0.6508444  3
   1801   1798   1803   1806     1  0.0000000  0.6508444  3
   1802   1798   1803   1804     1  0.0000000  0.6508444  3
   1802   1798   1803   1805     1  0.0000000  0.6508444  3
   1802   1798   1803   1806     1  0.0000000  0.6508444  3
   1807   1809   1810   1813     1  0.0000000  0.6508444  3
   1807   1809   1810   1814     1  0.0000000  0.6508444  3
   1808   1807   1809   1810     1  0.0000000  0.0000000  2
   1808   1807   1809   1811     1  0.0000000  0.0000000  2
   1808   1807   1809   1812     1  0.0000000  0.0000000  2
   1809   1810   1815   1816     1  0.0000000  0.6508444  3
   1809   1810   1815   1817     1  0.0000000  0.6508444  3
   1809   1810   1815   1818     1  0.0000000  0.6508444  3
   1811   1809   1810   1815     1  0.0000000  0.6508444  3
   1811   1809   1810   1813     1  0.0000000  0.6508444  3
   1811   1809   1810   1814     1  0.0000000  0.6508444  3
   1812   1809   1810   1815     1  0.0000000  0.6508444  3
   1812   1809   1810   1813     1  0.0000000  0.6508444  3
   1812   1809   1810   1814     1  0.0000000  0.6508444  3
   1813   1810   1815   1816     1  0.0000000  0.6508444  3
   1813   1810   1815   1817     1  0.0000000  0.6508444  3
   1813   1810   1815   1818     1  0.0000000  0.6508444  3
   1814   1810   1815   1816     1  0.0000000  0.6508444  3
   1814   1810   1815   1817     1  0.0000000  0.6508444  3
   1814   1810   1815   1818     1  0.0000000  0.6508444  3
   1819   1821   1822   1825     1  0.0000000  0.6508444  3
   1819   1821   1822   1826     1  0.0000000  0.6508444  3
   1820   1819   1821   1822     1  0.0000000  0.0000000  2
   1820   1819   1821   1823     1  0.0000000  0.0000000  2
   1820   1819   1821   1824     1  0.0000000  0.0000000  2
   1821   1822   1827   1828     1  0.0000000  0.6508444  3
   1821   1822   1827   1829     1  0.0000000  0.6508444  3
   1821   1822   1827   1830     1  0.0000000  0.6508444  3
   1823   1821   1822   1827     1  0.0000000  0.6508444  3
   1823   1821   1822   1825     1  0.0000000  0.6508444  3
   1823   1821   1822   1826     1  0.0000000  0.6508444  3
   1824   1821   1822   1827     1  0.0000000  0.6508444  3
   1824   1821   1822   1825     1  0.0000000  0.6508444  3
   1824   1821   1822   1826     1  0.0000000  0.6508444  3
   1825   1822   1827   1828     1  0.0000000  0.6508444  3
   1825   1822   1827   1829     1  0.0000000  0.6508444  3
   1825   1822   1827   1830     1  0.0000000  0.6508444  3
   1826   1822   1827   1828     1  0.0000000  0.6508444  3
   1826   1822   1827   1829     1  0.0000000  0.6508444  3
   1826   1822   1827   1830     1  0.0000000  0.6508444  3
   1831   1833   1834   1837     1  0.0000000  0.6508444  3
   1831   1833   1834   1838     1  0.0000000  0.6508444  3
   1832   1831   1833   1834     1  0.0000000  0.0000000  2
   1832   1831   1833   1835     1  0.0000000  0.0000000  2
   1832   1831   1833   1836     1  0.0000000  0.0000000  2
   1833   1834   1839   1840     1  0.0000000  0.6508444  3
   1833   1834   1839   1841     1  0.0000000  0.6508444  3
   1833   1834   1839   1842     1  0.0000000  0.6508444  3
   1835   1833   1834   1839     1  0.0000000  0.6508444  3
   1835   1833   1834   1837     1  0.0000000  0.6508444  3
   1835   1833   1834   1838     1  0.0000000  0.6508444  3
   1836   1833   1834   1839     1  0.0000000  0.6508444  3
   1836   1833   1834   1837     1  0.0000000  0.6508444  3
   1836   1833   1834   1838     1  0.0000000  0.6508444  3
   1837   1834   1839   1840     1  0.0000000  0.6508444  3
   1837   1834   1839   1841     1  0.0000000  0.6508444  3
   1837   1834   1839   1842     1  0.0000000  0.6508444  3
   1838   1834   1839   1840     1  0.0000000  0.6508444  3
   1838   1834   1839   1841     1  0.0000000  0.6508444  3
   1838   1834   1839   1842     1  0.0000000  0.6508444  3
   1843   1845   1846   1849     1  0.0000000  0.6508444  3
   1843   1845   1846   1850     1  0.0000000  0.6508444  3
   1844   1843   1845   1846     1  0.0000000  0.0000000  2
   1844   1843   1845   1847     1  0.0000000  0.0000000  2
   1844   1843   1845   1848     1  0.0000000  0.0000000  2
   1845   1846   1851   1852     1  0.0000000  0.6508444  3
   1845   1846   1851   1853     1  0.0000000  0.6508444  3
   1845   1846   1851   1854     1  0.0000000  0.6508444  3
   1847   1845   1846   1851     1  0.0000000  0.6508444  3
   1847   1845   1846   1849     1  0.0000000  0.6508444  3
   1847   1845   1846   1850     1  0.0000000  0.6508444  3
   1848   1845   1846   1851     1  0.0000000  0.6508444  3
   1848   1845   1846   1849     1  0.0000000  0.6508444  3
   1848   1845   1846   1850     1  0.0000000  0.6508444  3
   1849   1846   1851   1852     1  0.0000000  0.6508444  3
   1849   1846   1851   1853     1  0.0000000  0.6508444  3
   1849   1846   1851   1854     1  0.0000000  0.6508444  3
   1850   1846   1851   1852     1  0.0000000  0.6508444  3
   1850   1846   1851   1853     1  0.0000000  0.6508444  3
   1850   1846   1851   1854     1  0.0000000  0.6508444  3
   1855   1857   1858   1861     1  0.0000000  0.6508444  3
   1855   1857   1858   1862     1  0.0000000  0.6508444  3
   1856   1855   1857   1858     1  0.0000000  0.0000000  2
   1856   1855   1857   1859     1  0.0000000  0.0000000  2
   1856   1855   1857   1860     1  0.0000000  0.0000000  2
   1857   1858   1863   1864     1  0.0000000  0.6508444  3
   1857   1858   1863   1865     1  0.0000000  0.6508444  3
   1857   1858   1863   1866     1  0.0000000  0.6508444  3
   1859   1857   1858   1863     1  0.0000000  0.6508444  3
   1859   1857   1858   1861     1  0.0000000  0.6508444  3
   1859   1857   1858   1862     1  0.0000000  0.6508444  3
   1860   1857   1858   1863     1  0.0000000  0.6508444  3
   1860   1857   1858   1861     1  0.0000000  0.6508444  3
   1860   1857   1858   1862     1  0.0000000  0.6508444  3
   1861   1858   1863   1864     1  0.0000000  0.6508444  3
   1861   1858   1863   1865     1  0.0000000  0.6508444  3
   1861   1858   1863   1866     1  0.0000000  0.6508444  3
   1862   1858   1863   1864     1  0.0000000  0.6508444  3
   1862   1858   1863   1865     1  0.0000000  0.6508444  3
   1862   1858   1863   1866     1  0.0000000  0.6508444  3
   1867   1869   1870   1873     1  0.0000000  0.6508444  3
   1867   1869   1870   1874     1  0.0000000  0.6508444  3
   1868   1867   1869   1870     1  0.0000000  0.0000000  2
   1868   1867   1869   1871     1  0.0000000  0.0000000  2
   1868   1867   1869   1872     1  0.0000000  0.0000000  2
   1869   1870   1875   1876     1  0.0000000  0.6508444  3
   1869   1870   1875   1877     1  0.0000000  0.6508444  3
   1869   1870   1875   1878     1  0.0000000  0.6508444  3
   1871   1869   1870   1875     1  0.0000000  0.6508444  3
   1871   1869   1870   1873     1  0.0000000  0.6508444  3
   1871   1869   1870   1874     1  0.0000000  0.6508444  3
   1872   1869   1870   1875     1  0.0000000  0.6508444  3
   1872   1869   1870   1873     1  0.0000000  0.6508444  3
   1872   1869   1870   1874     1  0.0000000  0.6508444  3
   1873   1870   1875   1876     1  0.0000000  0.6508444  3
   1873   1870   1875   1877     1  0.0000000  0.6508444  3
   1873   1870   1875   1878     1  0.0000000  0.6508444  3
   1874   1870   1875   1876     1  0.0000000  0.6508444  3
   1874   1870   1875   1877     1  0.0000000  0.6508444  3
   1874   1870   1875   1878     1  0.0000000  0.6508444  3
   1879   1881   1882   1885     1  0.0000000  0.6508444  3
   1879   1881   1882   1886     1  0.0000000  0.6508444  3
   1880   1879   1881   1882     1  0.0000000  0.0000000  2
   1880   1879   1881   1883     1  0.0000000  0.0000000  2
   1880   1879   1881   1884     1  0.0000000  0.0000000  2
   1881   1882   1887   1888     1  0.0000000  0.6508444  3
   1881   1882   1887   1889     1  0.0000000  0.6508444  3
   1881   1882   1887   1890     1  0.0000000  0.6508444  3
   1883   1881   1882   1887     1  0.0000000  0.6508444  3
   1883   1881   1882   1885     1  0.0000000  0.6508444  3
   1883   1881   1882   1886     1  0.0000000  0.6508444  3
   1884   1881   1882   1887     1  0.0000000  0.6508444  3
   1884   1881   1882   1885     1  0.0000000  0.6508444  3
   1884   1881   1882   1886     1  0.0000000  0.6508444  3
   1885   1882   1887   1888     1  0.0000000  0.6508444  3
   1885   1882   1887   1889     1  0.0000000  0.6508444  3
   1885   1882   1887   1890     1  0.0000000  0.6508444  3
   1886   1882   1887   1888     1  0.0000000  0.6508444  3
   1886   1882   1887   1889     1  0.0000000  0.6508444  3
   1886   1882   1887   1890     1  0.0000000  0.6508444  3
   1891   1893   1894   1897     1  0.0000000  0.6508444  3
   1891   1893   1894   1898     1  0.0000000  0.6508444  3
   1892   1891   1893   1894     1  0.0000000  0.0000000  2
   1892   1891   1893   1895     1  0.0000000  0.0000000  2
   1892   1891   1893   1896     1  0.0000000  0.0000000  2
   1893   1894   1899   1900     1  0.0000000  0.6508444  3
   1893   1894   1899   1901     1  0.0000000  0.6508444  3
   1893   1894   1899   1902     1  0.0000000  0.6508444  3
   1895   1893   1894   1899     1  0.0000000  0.6508444  3
   1895   1893   1894   1897     1  0.0000000  0.6508444  3
   1895   1893   1894   1898     1  0.0000000  0.6508444  3
   1896   1893   1894   1899     1  0.0000000  0.6508444  3
   1896   1893   1894   1897     1  0.0000000  0.6508444  3
   1896   1893   1894   1898     1  0.0000000  0.6508444  3
   1897   1894   1899   1900     1  0.0000000  0.6508444  3
   1897   1894   1899   1901     1  0.0000000  0.6508444  3
   1897   1894   1899   1902     1  0.0000000  0.6508444  3
   1898   1894   1899   1900     1  0.0000000  0.6508444  3
   1898   1894   1899   1901     1  0.0000000  0.6508444  3
   1898   1894   1899   1902     1  0.0000000  0.6508444  3
   1903   1905   1906   1909     1  0.0000000  0.6508444  3
   1903   1905   1906   1910     1  0.0000000  0.6508444  3
   1904   1903   1905   1906     1  0.0000000  0.0000000  2
   1904   1903   1905   1907     1  0.0000000  0.0000000  2
   1904   1903   1905   1908     1  0.0000000  0.0000000  2
   1905   1906   1911   1912     1  0.0000000  0.6508444  3
   1905   1906   1911   1913     1  0.0000000  0.6508444  3
   1905   1906   1911   1914     1  0.0000000  0.6508444  3
   1907   1905   1906   1911     1  0.0000000  0.6508444  3
   1907   1905   1906   1909     1  0.0000000  0.6508444  3
   1907   1905   1906   1910     1  0.0000000  0.6508444  3
   1908   1905   1906   1911     1  0.0000000  0.6508444  3
   1908   1905   1906   1909     1  0.0000000  0.6508444  3
   1908   1905   1906   1910     1  0.0000000  0.6508444  3
   1909   1906   1911   1912     1  0.0000000  0.6508444  3
   1909   1906   1911   1913     1  0.0000000  0.6508444  3
   1909   1906   1911   1914     1  0.0000000  0.6508444  3
   1910   1906   1911   1912     1  0.0000000  0.6508444  3
   1910   1906   1911   1913     1  0.0000000  0.6508444  3
   1910   1906   1911   1914     1  0.0000000  0.6508444  3
   1915   1917   1918   1921     1  0.0000000  0.6508444  3
   1915   1917   1918   1922     1  0.0000000  0.6508444  3
   1916   1915   1917   1918     1  0.0000000  0.0000000  2
   1916   1915   1917   1919     1  0.0000000  0.0000000  2
   1916   1915   1917   1920     1  0.0000000  0.0000000  2
   1917   1918   1923   1924     1  0.0000000  0.6508444  3
   1917   1918   1923   1925     1  0.0000000  0.6508444  3
   1917   1918   1923   1926     1  0.0000000  0.6508444  3
   1919   1917   1918   1923     1  0.0000000  0.6508444  3
   1919   1917   1918   1921     1  0.0000000  0.6508444  3
   1919   1917   1918   1922     1  0.0000000  0.6508444  3
   1920   1917   1918   1923     1  0.0000000  0.6508444  3
   1920   1917   1918   1921     1  0.0000000  0.6508444  3
   1920   1917   1918   1922     1  0.0000000  0.6508444  3
   1921   1918   1923   1924     1  0.0000000  0.6508444  3
   1921   1918   1923   1925     1  0.0000000  0.6508444  3
   1921   1918   1923   1926     1  0.0000000  0.6508444  3
   1922   1918   1923   1924     1  0.0000000  0.6508444  3
   1922   1918   1923   1925     1  0.0000000  0.6508444  3
   1922   1918   1923   1926     1  0.0000000  0.6508444  3
   1927   1929   1930   1933     1  0.0000000  0.6508444  3
   1927   1929   1930   1934     1  0.0000000  0.6508444  3
   1928   1927   1929   1930     1  0.0000000  0.0000000  2
   1928   1927   1929   1931     1  0.0000000  0.0000000  2
   1928   1927   1929   1932     1  0.0000000  0.0000000  2
   1929   1930   1935   1936     1  0.0000000  0.6508444  3
   1929   1930   1935   1937     1  0.0000000  0.6508444  3
   1929   1930   1935   1938     1  0.0000000  0.6508444  3
   1931   1929   1930   1935     1  0.0000000  0.6508444  3
   1931   1929   1930   1933     1  0.0000000  0.6508444  3
   1931   1929   1930   1934     1  0.0000000  0.6508444  3
   1932   1929   1930   1935     1  0.0000000  0.6508444  3
   1932   1929   1930   1933     1  0.0000000  0.6508444  3
   1932   1929   1930   1934     1  0.0000000  0.6508444  3
   1933   1930   1935   1936     1  0.0000000  0.6508444  3
   1933   1930   1935   1937     1  0.0000000  0.6508444  3
   1933   1930   1935   1938     1  0.0000000  0.6508444  3
   1934   1930   1935   1936     1  0.0000000  0.6508444  3
   1934   1930   1935   1937     1  0.0000000  0.6508444  3
   1934   1930   1935   1938     1  0.0000000  0.6508444  3
   1939   1941   1942   1945     1  0.0000000  0.6508444  3
   1939   1941   1942   1946     1  0.0000000  0.6508444  3
   1940   1939   1941   1942     1  0.0000000  0.0000000  2
   1940   1939   1941   1943     1  0.0000000  0.0000000  2
   1940   1939   1941   1944     1  0.0000000  0.0000000  2
   1941   1942   1947   1948     1  0.0000000  0.6508444  3
   1941   1942   1947   1949     1  0.0000000  0.6508444  3
   1941   1942   1947   1950     1  0.0000000  0.6508444  3
   1943   1941   1942   1947     1  0.0000000  0.6508444  3
   1943   1941   1942   1945     1  0.0000000  0.6508444  3
   1943   1941   1942   1946     1  0.0000000  0.6508444  3
   1944   1941   1942   1947     1  0.0000000  0.6508444  3
   1944   1941   1942   1945     1  0.0000000  0.6508444  3
   1944   1941   1942   1946     1  0.0000000  0.6508444  3
   1945   1942   1947   1948     1  0.0000000  0.6508444  3
   1945   1942   1947   1949     1  0.0000000  0.6508444  3
   1945   1942   1947   1950     1  0.0000000  0.6508444  3
   1946   1942   1947   1948     1  0.0000000  0.6508444  3
   1946   1942   1947   1949     1  0.0000000  0.6508444  3
   1946   1942   1947   1950     1  0.0000000  0.6508444  3
   1951   1953   1954   1957     1  0.0000000  0.6508444  3
   1951   1953   1954   1958     1  0.0000000  0.6508444  3
   1952   1951   1953   1954     1  0.0000000  0.0000000  2
   1952   1951   1953   1955     1  0.0000000  0.0000000  2
   1952   1951   1953   1956     1  0.0000000  0.0000000  2
   1953   1954   1959   1960     1  0.0000000  0.6508444  3
   1953   1954   1959   1961     1  0.0000000  0.6508444  3
   1953   1954   1959   1962     1  0.0000000  0.6508444  3
   1955   1953   1954   1959     1  0.0000000  0.6508444  3
   1955   1953   1954   1957     1  0.0000000  0.6508444  3
   1955   1953   1954   1958     1  0.0000000  0.6508444  3
   1956   1953   1954   1959     1  0.0000000  0.6508444  3
   1956   1953   1954   1957     1  0.0000000  0.6508444  3
   1956   1953   1954   1958     1  0.0000000  0.6508444  3
   1957   1954   1959   1960     1  0.0000000  0.6508444  3
   1957   1954   1959   1961     1  0.0000000  0.6508444  3
   1957   1954   1959   1962     1  0.0000000  0.6508444  3
   1958   1954   1959   1960     1  0.0000000  0.6508444  3
   1958   1954   1959   1961     1  0.0000000  0.6508444  3
   1958   1954   1959   1962     1  0.0000000  0.6508444  3
   1963   1965   1966   1969     1  0.0000000  0.6508444  3
   1963   1965   1966   1970     1  0.0000000  0.6508444  3
   1964   1963   1965   1966     1  0.0000000  0.0000000  2
   1964   1963   1965   1967     1  0.0000000  0.0000000  2
   1964   1963   1965   1968     1  0.0000000  0.0000000  2
   1965   1966   1971   1972     1  0.0000000  0.6508444  3
   1965   1966   1971   1973     1  0.0000000  0.6508444  3
   1965   1966   1971   1974     1  0.0000000  0.6508444  3
   1967   1965   1966   1971     1  0.0000000  0.6508444  3
   1967   1965   1966   1969     1  0.0000000  0.6508444  3
   1967   1965   1966   1970     1  0.0000000  0.6508444  3
   1968   1965   1966   1971     1  0.0000000  0.6508444  3
   1968   1965   1966   1969     1  0.0000000  0.6508444  3
   1968   1965   1966   1970     1  0.0000000  0.6508444  3
   1969   1966   1971   1972     1  0.0000000  0.6508444  3
   1969   1966   1971   1973     1  0.0000000  0.6508444  3
   1969   1966   1971   1974     1  0.0000000  0.6508444  3
   1970   1966   1971   1972     1  0.0000000  0.6508444  3
   1970   1966   1971   1973     1  0.0000000  0.6508444  3
   1970   1966   1971   1974     1  0.0000000  0.6508444  3
   1975   1977   1978   1981     1  0.0000000  0.6508444  3
   1975   1977   1978   1982     1  0.0000000  0.6508444  3
   1976   1975   1977   1978     1  0.0000000  0.0000000  2
   1976   1975   1977   1979     1  0.0000000  0.0000000  2
   1976   1975   1977   1980     1  0.0000000  0.0000000  2
   1977   1978   1983   1984     1  0.0000000  0.6508444  3
   1977   1978   1983   1985     1  0.0000000  0.6508444  3
   1977   1978   1983   1986     1  0.0000000  0.6508444  3
   1979   1977   1978   1983     1  0.0000000  0.6508444  3
   1979   1977   1978   1981     1  0.0000000  0.6508444  3
   1979   1977   1978   1982     1  0.0000000  0.6508444  3
   1980   1977   1978   1983     1  0.0000000  0.6508444  3
   1980   1977   1978   1981     1  0.0000000  0.6508444  3
   1980   1977   1978   1982     1  0.0000000  0.6508444  3
   1981   1978   1983   1984     1  0.0000000  0.6508444  3
   1981   1978   1983   1985     1  0.0000000  0.6508444  3
   1981   1978   1983   1986     1  0.0000000  0.6508444  3
   1982   1978   1983   1984     1  0.0000000  0.6508444  3
   1982   1978   1983   1985     1  0.0000000  0.6508444  3
   1982   1978   1983   1986     1  0.0000000  0.6508444  3
   1987   1989   1990   1993     1  0.0000000  0.6508444  3
   1987   1989   1990   1994     1  0.0000000  0.6508444  3
   1988   1987   1989   1990     1  0.0000000  0.0000000  2
   1988   1987   1989   1991     1  0.0000000  0.0000000  2
   1988   1987   1989   1992     1  0.0000000  0.0000000  2
   1989   1990   1995   1996     1  0.0000000  0.6508444  3
   1989   1990   1995   1997     1  0.0000000  0.6508444  3
   1989   1990   1995   1998     1  0.0000000  0.6508444  3
   1991   1989   1990   1995     1  0.0000000  0.6508444  3
   1991   1989   1990   1993     1  0.0000000  0.6508444  3
   1991   1989   1990   1994     1  0.0000000  0.6508444  3
   1992   1989   1990   1995     1  0.0000000  0.6508444  3
   1992   1989   1990   1993     1  0.0000000  0.6508444  3
   1992   1989   1990   1994     1  0.0000000  0.6508444  3
   1993   1990   1995   1996     1  0.0000000  0.6508444  3
   1993   1990   1995   1997     1  0.0000000  0.6508444  3
   1993   1990   1995   1998     1  0.0000000  0.6508444  3
   1994   1990   1995   1996     1  0.0000000  0.6508444  3
   1994   1990   1995   1997     1  0.0000000  0.6508444  3
   1994   1990   1995   1998     1  0.0000000  0.6508444  3
   1999   2001   2002   2005     1  0.0000000  0.6508444  3
   1999   2001   2002   2006     1  0.0000000  0.6508444  3
   2000   1999   2001   2002     1  0.0000000  0.0000000  2
   2000   1999   2001   2003     1  0.0000000  0.0000000  2
   2000   1999   2001   2004     1  0.0000000  0.0000000  2
   2001   2002   2007   2008     1  0.0000000  0.6508444  3
   2001   2002   2007   2009     1  0.0000000  0.6508444  3
   2001   2002   2007   2010     1  0.0000000  0.6508444  3
   2003   2001   2002   2007     1  0.0000000  0.6508444  3
   2003   2001   2002   2005     1  0.0000000  0.6508444  3
   2003   2001   2002   2006     1  0.0000000  0.6508444  3
   2004   2001   2002   2007     1  0.0000000  0.6508444  3
   2004   2001   2002   2005     1  0.0000000  0.6508444  3
   2004   2001   2002   2006     1  0.0000000  0.6508444  3
   2005   2002   2007   2008     1  0.0000000  0.6508444  3
   2005   2002   2007   2009     1  0.0000000  0.6508444  3
   2005   2002   2007   2010     1  0.0000000  0.6508444  3
   2006   2002   2007   2008     1  0.0000000  0.6508444  3
   2006   2002   2007   2009     1  0.0000000  0.6508444  3
   2006   2002   2007   2010     1  0.0000000  0.6508444  3
   2011   2013   2014   2017     1  0.0000000  0.6508444  3
   2011   2013   2014   2018     1  0.0000000  0.6508444  3
   2012   2011   2013   2014     1  0.0000000  0.0000000  2
   2012   2011   2013   2015     1  0.0000000  0.0000000  2
   2012   2011   2013   2016     1  0.0000000  0.0000000  2
   2013   2014   2019   2020     1  0.0000000  0.6508444  3
   2013   2014   2019   2021     1  0.0000000  0.6508444  3
   2013   2014   2019   2022     1  0.0000000  0.6508444  3
   2015   2013   2014   2019     1  0.0000000  0.6508444  3
   2015   2013   2014   2017     1  0.0000000  0.6508444  3
   2015   2013   2014   2018     1  0.0000000  0.6508444  3
   2016   2013   2014   2019     1  0.0000000  0.6508444  3
   2016   2013   2014   2017     1  0.0000000  0.6508444  3
   2016   2013   2014   2018     1  0.0000000  0.6508444  3
   2017   2014   2019   2020     1  0.0000000  0.6508444  3
   2017   2014   2019   2021     1  0.0000000  0.6508444  3
   2017   2014   2019   2022     1  0.0000000  0.6508444  3
   2018   2014   2019   2020     1  0.0000000  0.6508444  3
   2018   2014   2019   2021     1  0.0000000  0.6508444  3
   2018   2014   2019   2022     1  0.0000000  0.6508444  3
   2023   2025   2026   2029     1  0.0000000  0.6508444  3
   2023   2025   2026   2030     1  0.0000000  0.6508444  3
   2024   2023   2025   2026     1  0.0000000  0.0000000  2
   2024   2023   2025   2027     1  0.0000000  0.0000000  2
   2024   2023   2025   2028     1  0.0000000  0.0000000  2
   2025   2026   2031   2032     1  0.0000000  0.6508444  3
   2025   2026   2031   2033     1  0.0000000  0.6508444  3
   2025   2026   2031   2034     1  0.0000000  0.6508444  3
   2027   2025   2026   2031     1  0.0000000  0.6508444  3
   2027   2025   2026   2029     1  0.0000000  0.6508444  3
   2027   2025   2026   2030     1  0.0000000  0.6508444  3
   2028   2025   2026   2031     1  0.0000000  0.6508444  3
   2028   2025   2026   2029     1  0.0000000  0.6508444  3
   2028   2025   2026   2030     1  0.0000000  0.6508444  3
   2029   2026   2031   2032     1  0.0000000  0.6508444  3
   2029   2026   2031   2033     1  0.0000000  0.6508444  3
   2029   2026   2031   2034     1  0.0000000  0.6508444  3
   2030   2026   2031   2032     1  0.0000000  0.6508444  3
   2030   2026   2031   2033     1  0.0000000  0.6508444  3
   2030   2026   2031   2034     1  0.0000000  0.6508444  3
   2035   2037   2038   2041     1  0.0000000  0.6508444  3
   2035   2037   2038   2042     1  0.0000000  0.6508444  3
   2036   2035   2037   2038     1  0.0000000  0.0000000  2
   2036   2035   2037   2039     1  0.0000000  0.0000000  2
   2036   2035   2037   2040     1  0.0000000  0.0000000  2
   2037   2038   2043   2044     1  0.0000000  0.6508444  3
   2037   2038   2043   2045     1  0.0000000  0.6508444  3
   2037   2038   2043   2046     1  0.0000000  0.6508444  3
   2039   2037   2038   2043     1  0.0000000  0.6508444  3
   2039   2037   2038   2041     1  0.0000000  0.6508444  3
   2039   2037   2038   2042     1  0.0000000  0.6508444  3
   2040   2037   2038   2043     1  0.0000000  0.6508444  3
   2040   2037   2038   2041     1  0.0000000  0.6508444  3
   2040   2037   2038   2042     1  0.0000000  0.6508444  3
   2041   2038   2043   2044     1  0.0000000  0.6508444  3
   2041   2038   2043   2045     1  0.0000000  0.6508444  3
   2041   2038   2043   2046     1  0.0000000  0.6508444  3
   2042   2038   2043   2044     1  0.0000000  0.6508444  3
   2042   2038   2043   2045     1  0.0000000  0.6508444  3
   2042   2038   2043   2046     1  0.0000000  0.6508444  3
   2047   2049   2050   2053     1  0.0000000  0.6508444  3
   2047   2049   2050   2054     1  0.0000000  0.6508444  3
   2048   2047   2049   2050     1  0.0000000  0.0000000  2
   2048   2047   2049   2051     1  0.0000000  0.0000000  2
   2048   2047   2049   2052     1  0.0000000  0.0000000  2
   2049   2050   2055   2056     1  0.0000000  0.6508444  3
   2049   2050   2055   2057     1  0.0000000  0.6508444  3
   2049   2050   2055   2058     1  0.0000000  0.6508444  3
   2051   2049   2050   2055     1  0.0000000  0.6508444  3
   2051   2049   2050   2053     1  0.0000000  0.6508444  3
   2051   2049   2050   2054     1  0.0000000  0.6508444  3
   2052   2049   2050   2055     1  0.0000000  0.6508444  3
   2052   2049   2050   2053     1  0.0000000  0.6508444  3
   2052   2049   2050   2054     1  0.0000000  0.6508444  3
   2053   2050   2055   2056     1  0.0000000  0.6508444  3
   2053   2050   2055   2057     1  0.0000000  0.6508444  3
   2053   2050   2055   2058     1  0.0000000  0.6508444  3
   2054   2050   2055   2056     1  0.0000000  0.6508444  3
   2054   2050   2055   2057     1  0.0000000  0.6508444  3
   2054   2050   2055   2058     1  0.0000000  0.6508444  3
   2059   2061   2062   2065     1  0.0000000  0.6508444  3
   2059   2061   2062   2066     1  0.0000000  0.6508444  3
   2060   2059   2061   2062     1  0.0000000  0.0000000  2
   2060   2059   2061   2063     1  0.0000000  0.0000000  2
   2060   2059   2061   2064     1  0.0000000  0.0000000  2
   2061   2062   2067   2068     1  0.0000000  0.6508444  3
   2061   2062   2067   2069     1  0.0000000  0.6508444  3
   2061   2062   2067   2070     1  0.0000000  0.6508444  3
   2063   2061   2062   2067     1  0.0000000  0.6508444  3
   2063   2061   2062   2065     1  0.0000000  0.6508444  3
   2063   2061   2062   2066     1  0.0000000  0.6508444  3
   2064   2061   2062   2067     1  0.0000000  0.6508444  3
   2064   2061   2062   2065     1  0.0000000  0.6508444  3
   2064   2061   2062   2066     1  0.0000000  0.6508444  3
   2065   2062   2067   2068     1  0.0000000  0.6508444  3
   2065   2062   2067   2069     1  0.0000000  0.6508444  3
   2065   2062   2067   2070     1  0.0000000  0.6508444  3
   2066   2062   2067   2068     1  0.0000000  0.6508444  3
   2066   2062   2067   2069     1  0.0000000  0.6508444  3
   2066   2062   2067   2070     1  0.0000000  0.6508444  3
   2071   2073   2074   2077     1  0.0000000  0.6508444  3
   2071   2073   2074   2078     1  0.0000000  0.6508444  3
   2072   2071   2073   2074     1  0.0000000  0.0000000  2
   2072   2071   2073   2075     1  0.0000000  0.0000000  2
   2072   2071   2073   2076     1  0.0000000  0.0000000  2
   2073   2074   2079   2080     1  0.0000000  0.6508444  3
   2073   2074   2079   2081     1  0.0000000  0.6508444  3
   2073   2074   2079   2082     1  0.0000000  0.6508444  3
   2075   2073   2074   2079     1  0.0000000  0.6508444  3
   2075   2073   2074   2077     1  0.0000000  0.6508444  3
   2075   2073   2074   2078     1  0.0000000  0.6508444  3
   2076   2073   2074   2079     1  0.0000000  0.6508444  3
   2076   2073   2074   2077     1  0.0000000  0.6508444  3
   2076   2073   2074   2078     1  0.0000000  0.6508444  3
   2077   2074   2079   2080     1  0.0000000  0.6508444  3
   2077   2074   2079   2081     1  0.0000000  0.6508444  3
   2077   2074   2079   2082     1  0.0000000  0.6508444  3
   2078   2074   2079   2080     1  0.0000000  0.6508444  3
   2078   2074   2079   2081     1  0.0000000  0.6508444  3
   2078   2074   2079   2082     1  0.0000000  0.6508444  3
   2083   2085   2086   2089     1  0.0000000  0.6508444  3
   2083   2085   2086   2090     1  0.0000000  0.6508444  3
   2084   2083   2085   2086     1  0.0000000  0.0000000  2
   2084   2083   2085   2087     1  0.0000000  0.0000000  2
   2084   2083   2085   2088     1  0.0000000  0.0000000  2
   2085   2086   2091   2092     1  0.0000000  0.6508444  3
   2085   2086   2091   2093     1  0.0000000  0.6508444  3
   2085   2086   2091   2094     1  0.0000000  0.6508444  3
   2087   2085   2086   2091     1  0.0000000  0.6508444  3
   2087   2085   2086   2089     1  0.0000000  0.6508444  3
   2087   2085   2086   2090     1  0.0000000  0.6508444  3
   2088   2085   2086   2091     1  0.0000000  0.6508444  3
   2088   2085   2086   2089     1  0.0000000  0.6508444  3
   2088   2085   2086   2090     1  0.0000000  0.6508444  3
   2089   2086   2091   2092     1  0.0000000  0.6508444  3
   2089   2086   2091   2093     1  0.0000000  0.6508444  3
   2089   2086   2091   2094     1  0.0000000  0.6508444  3
   2090   2086   2091   2092     1  0.0000000  0.6508444  3
   2090   2086   2091   2093     1  0.0000000  0.6508444  3
   2090   2086   2091   2094     1  0.0000000  0.6508444  3
   2095   2097   2098   2101     1  0.0000000  0.6508444  3
   2095   2097   2098   2102     1  0.0000000  0.6508444  3
   2096   2095   2097   2098     1  0.0000000  0.0000000  2
   2096   2095   2097   2099     1  0.0000000  0.0000000  2
   2096   2095   2097   2100     1  0.0000000  0.0000000  2
   2097   2098   2103   2104     1  0.0000000  0.6508444  3
   2097   2098   2103   2105     1  0.0000000  0.6508444  3
   2097   2098   2103   2106     1  0.0000000  0.6508444  3
   2099   2097   2098   2103     1  0.0000000  0.6508444  3
   2099   2097   2098   2101     1  0.0000000  0.6508444  3
   2099   2097   2098   2102     1  0.0000000  0.6508444  3
   2100   2097   2098   2103     1  0.0000000  0.6508444  3
   2100   2097   2098   2101     1  0.0000000  0.6508444  3
   2100   2097   2098   2102     1  0.0000000  0.6508444  3
   2101   2098   2103   2104     1  0.0000000  0.6508444  3
   2101   2098   2103   2105     1  0.0000000  0.6508444  3
   2101   2098   2103   2106     1  0.0000000  0.6508444  3
   2102   2098   2103   2104     1  0.0000000  0.6508444  3
   2102   2098   2103   2105     1  0.0000000  0.6508444  3
   2102   2098   2103   2106     1  0.0000000  0.6508444  3
   2107   2109   2110   2113     1  0.0000000  0.6508444  3
   2107   2109   2110   2114     1  0.0000000  0.6508444  3
   2108   2107   2109   2110     1  0.0000000  0.0000000  2
   2108   2107   2109   2111     1  0.0000000  0.0000000  2
   2108   2107   2109   2112     1  0.0000000  0.0000000  2
   2109   2110   2115   2116     1  0.0000000  0.6508444  3
   2109   2110   2115   2117     1  0.0000000  0.6508444  3
   2109   2110   2115   2118     1  0.0000000  0.6508444  3
   2111   2109   2110   2115     1  0.0000000  0.6508444  3
   2111   2109   2110   2113     1  0.0000000  0.6508444  3
   2111   2109   2110   2114     1  0.0000000  0.6508444  3
   2112   2109   2110   2115     1  0.0000000  0.6508444  3
   2112   2109   2110   2113     1  0.0000000  0.6508444  3
   2112   2109   2110   2114     1  0.0000000  0.6508444  3
   2113   2110   2115   2116     1  0.0000000  0.6508444  3
   2113   2110   2115   2117     1  0.0000000  0.6508444  3
   2113   2110   2115   2118     1  0.0000000  0.6508444  3
   2114   2110   2115   2116     1  0.0000000  0.6508444  3
   2114   2110   2115   2117     1  0.0000000  0.6508444  3
   2114   2110   2115   2118     1  0.0000000  0.6508444  3
   2119   2121   2122   2125     1  0.0000000  0.6508444  3
   2119   2121   2122   2126     1  0.0000000  0.6508444  3
   2120   2119   2121   2122     1  0.0000000  0.0000000  2
   2120   2119   2121   2123     1  0.0000000  0.0000000  2
   2120   2119   2121   2124     1  0.0000000  0.0000000  2
   2121   2122   2127   2128     1  0.0000000  0.6508444  3
   2121   2122   2127   2129     1  0.0000000  0.6508444  3
   2121   2122   2127   2130     1  0.0000000  0.6508444  3
   2123   2121   2122   2127     1  0.0000000  0.6508444  3
   2123   2121   2122   2125     1  0.0000000  0.6508444  3
   2123   2121   2122   2126     1  0.0000000  0.6508444  3
   2124   2121   2122   2127     1  0.0000000  0.6508444  3
   2124   2121   2122   2125     1  0.0000000  0.6508444  3
   2124   2121   2122   2126     1  0.0000000  0.6508444  3
   2125   2122   2127   2128     1  0.0000000  0.6508444  3
   2125   2122   2127   2129     1  0.0000000  0.6508444  3
   2125   2122   2127   2130     1  0.0000000  0.6508444  3
   2126   2122   2127   2128     1  0.0000000  0.6508444  3
   2126   2122   2127   2129     1  0.0000000  0.6508444  3
   2126   2122   2127   2130     1  0.0000000  0.6508444  3
   2131   2133   2134   2137     1  0.0000000  0.6508444  3
   2131   2133   2134   2138     1  0.0000000  0.6508444  3
   2132   2131   2133   2134     1  0.0000000  0.0000000  2
   2132   2131   2133   2135     1  0.0000000  0.0000000  2
   2132   2131   2133   2136     1  0.0000000  0.0000000  2
   2133   2134   2139   2140     1  0.0000000  0.6508444  3
   2133   2134   2139   2141     1  0.0000000  0.6508444  3
   2133   2134   2139   2142     1  0.0000000  0.6508444  3
   2135   2133   2134   2139     1  0.0000000  0.6508444  3
   2135   2133   2134   2137     1  0.0000000  0.6508444  3
   2135   2133   2134   2138     1  0.0000000  0.6508444  3
   2136   2133   2134   2139     1  0.0000000  0.6508444  3
   2136   2133   2134   2137     1  0.0000000  0.6508444  3
   2136   2133   2134   2138     1  0.0000000  0.6508444  3
   2137   2134   2139   2140     1  0.0000000  0.6508444  3
   2137   2134   2139   2141     1  0.0000000  0.6508444  3
   2137   2134   2139   2142     1  0.0000000  0.6508444  3
   2138   2134   2139   2140     1  0.0000000  0.6508444  3
   2138   2134   2139   2141     1  0.0000000  0.6508444  3
   2138   2134   2139   2142     1  0.0000000  0.6508444  3
   2143   2145   2146   2149     1  0.0000000  0.6508444  3
   2143   2145   2146   2150     1  0.0000000  0.6508444  3
   2144   2143   2145   2146     1  0.0000000  0.0000000  2
   2144   2143   2145   2147     1  0.0000000  0.0000000  2
   2144   2143   2145   2148     1  0.0000000  0.0000000  2
   2145   2146   2151   2152     1  0.0000000  0.6508444  3
   2145   2146   2151   2153     1  0.0000000  0.6508444  3
   2145   2146   2151   2154     1  0.0000000  0.6508444  3
   2147   2145   2146   2151     1  0.0000000  0.6508444  3
   2147   2145   2146   2149     1  0.0000000  0.6508444  3
   2147   2145   2146   2150     1  0.0000000  0.6508444  3
   2148   2145   2146   2151     1  0.0000000  0.6508444  3
   2148   2145   2146   2149     1  0.0000000  0.6508444  3
   2148   2145   2146   2150     1  0.0000000  0.6508444  3
   2149   2146   2151   2152     1  0.0000000  0.6508444  3
   2149   2146   2151   2153     1  0.0000000  0.6508444  3
   2149   2146   2151   2154     1  0.0000000  0.6508444  3
   2150   2146   2151   2152     1  0.0000000  0.6508444  3
   2150   2146   2151   2153     1  0.0000000  0.6508444  3
   2150   2146   2151   2154     1  0.0000000  0.6508444  3
   2155   2157   2158   2161     1  0.0000000  0.6508444  3
   2155   2157   2158   2162     1  0.0000000  0.6508444  3
   2156   2155   2157   2158     1  0.0000000  0.0000000  2
   2156   2155   2157   2159     1  0.0000000  0.0000000  2
   2156   2155   2157   2160     1  0.0000000  0.0000000  2
   2157   2158   2163   2164     1  0.0000000  0.6508444  3
   2157   2158   2163   2165     1  0.0000000  0.6508444  3
   2157   2158   2163   2166     1  0.0000000  0.6508444  3
   2159   2157   2158   2163     1  0.0000000  0.6508444  3
   2159   2157   2158   2161     1  0.0000000  0.6508444  3
   2159   2157   2158   2162     1  0.0000000  0.6508444  3
   2160   2157   2158   2163     1  0.0000000  0.6508444  3
   2160   2157   2158   2161     1  0.0000000  0.6508444  3
   2160   2157   2158   2162     1  0.0000000  0.6508444  3
   2161   2158   2163   2164     1  0.0000000  0.6508444  3
   2161   2158   2163   2165     1  0.0000000  0.6508444  3
   2161   2158   2163   2166     1  0.0000000  0.6508444  3
   2162   2158   2163   2164     1  0.0000000  0.6508444  3
   2162   2158   2163   2165     1  0.0000000  0.6508444  3
   2162   2158   2163   2166     1  0.0000000  0.6508444  3
   2167   2169   2170   2173     1  0.0000000  0.6508444  3
   2167   2169   2170   2174     1  0.0000000  0.6508444  3
   2168   2167   2169   2170     1  0.0000000  0.0000000  2
   2168   2167   2169   2171     1  0.0000000  0.0000000  2
   2168   2167   2169   2172     1  0.0000000  0.0000000  2
   2169   2170   2175   2176     1  0.0000000  0.6508444  3
   2169   2170   2175   2177     1  0.0000000  0.6508444  3
   2169   2170   2175   2178     1  0.0000000  0.6508444  3
   2171   2169   2170   2175     1  0.0000000  0.6508444  3
   2171   2169   2170   2173     1  0.0000000  0.6508444  3
   2171   2169   2170   2174     1  0.0000000  0.6508444  3
   2172   2169   2170   2175     1  0.0000000  0.6508444  3
   2172   2169   2170   2173     1  0.0000000  0.6508444  3
   2172   2169   2170   2174     1  0.0000000  0.6508444  3
   2173   2170   2175   2176     1  0.0000000  0.6508444  3
   2173   2170   2175   2177     1  0.0000000  0.6508444  3
   2173   2170   2175   2178     1  0.0000000  0.6508444  3
   2174   2170   2175   2176     1  0.0000000  0.6508444  3
   2174   2170   2175   2177     1  0.0000000  0.6508444  3
   2174   2170   2175   2178     1  0.0000000  0.6508444  3
   2179   2181   2182   2185     1  0.0000000  0.6508444  3
   2179   2181   2182   2186     1  0.0000000  0.6508444  3
   2180   2179   2181   2182     1  0.0000000  0.0000000  2
   2180   2179   2181   2183     1  0.0000000  0.0000000  2
   2180   2179   2181   2184     1  0.0000000  0.0000000  2
   2181   2182   2187   2188     1  0.0000000  0.6508444  3
   2181   2182   2187   2189     1  0.0000000  0.6508444  3
   2181   2182   2187   2190     1  0.0000000  0.6508444  3
   2183   2181   2182   2187     1  0.0000000  0.6508444  3
   2183   2181   2182   2185     1  0.0000000  0.6508444  3
   2183   2181   2182   2186     1  0.0000000  0.6508444  3
   2184   2181   2182   2187     1  0.0000000  0.6508444  3
   2184   2181   2182   2185     1  0.0000000  0.6508444  3
   2184   2181   2182   2186     1  0.0000000  0.6508444  3
   2185   2182   2187   2188     1  0.0000000  0.6508444  3
   2185   2182   2187   2189     1  0.0000000  0.6508444  3
   2185   2182   2187   2190     1  0.0000000  0.6508444  3
   2186   2182   2187   2188     1  0.0000000  0.6508444  3
   2186   2182   2187   2189     1  0.0000000  0.6508444  3
   2186   2182   2187   2190     1  0.0000000  0.6508444  3
   2191   2193   2194   2197     1  0.0000000  0.6508444  3
   2191   2193   2194   2198     1  0.0000000  0.6508444  3
   2192   2191   2193   2194     1  0.0000000  0.0000000  2
   2192   2191   2193   2195     1  0.0000000  0.0000000  2
   2192   2191   2193   2196     1  0.0000000  0.0000000  2
   2193   2194   2199   2200     1  0.0000000  0.6508444  3
   2193   2194   2199   2201     1  0.0000000  0.6508444  3
   2193   2194   2199   2202     1  0.0000000  0.6508444  3
   2195   2193   2194   2199     1  0.0000000  0.6508444  3
   2195   2193   2194   2197     1  0.0000000  0.6508444  3
   2195   2193   2194   2198     1  0.0000000  0.6508444  3
   2196   2193   2194   2199     1  0.0000000  0.6508444  3
   2196   2193   2194   2197     1  0.0000000  0.6508444  3
   2196   2193   2194   2198     1  0.0000000  0.6508444  3
   2197   2194   2199   2200     1  0.0000000  0.6508444  3
   2197   2194   2199   2201     1  0.0000000  0.6508444  3
   2197   2194   2199   2202     1  0.0000000  0.6508444  3
   2198   2194   2199   2200     1  0.0000000  0.6508444  3
   2198   2194   2199   2201     1  0.0000000  0.6508444  3
   2198   2194   2199   2202     1  0.0000000  0.6508444  3
   2203   2205   2206   2209     1  0.0000000  0.6508444  3
   2203   2205   2206   2210     1  0.0000000  0.6508444  3
   2204   2203   2205   2206     1  0.0000000  0.0000000  2
   2204   2203   2205   2207     1  0.0000000  0.0000000  2
   2204   2203   2205   2208     1  0.0000000  0.0000000  2
   2205   2206   2211   2212     1  0.0000000  0.6508444  3
   2205   2206   2211   2213     1  0.0000000  0.6508444  3
   2205   2206   2211   2214     1  0.0000000  0.6508444  3
   2207   2205   2206   2211     1  0.0000000  0.6508444  3
   2207   2205   2206   2209     1  0.0000000  0.6508444  3
   2207   2205   2206   2210     1  0.0000000  0.6508444  3
   2208   2205   2206   2211     1  0.0000000  0.6508444  3
   2208   2205   2206   2209     1  0.0000000  0.6508444  3
   2208   2205   2206   2210     1  0.0000000  0.6508444  3
   2209   2206   2211   2212     1  0.0000000  0.6508444  3
   2209   2206   2211   2213     1  0.0000000  0.6508444  3
   2209   2206   2211   2214     1  0.0000000  0.6508444  3
   2210   2206   2211   2212     1  0.0000000  0.6508444  3
   2210   2206   2211   2213     1  0.0000000  0.6508444  3
   2210   2206   2211   2214     1  0.0000000  0.6508444  3
   2215   2217   2218   2221     1  0.0000000  0.6508444  3
   2215   2217   2218   2222     1  0.0000000  0.6508444  3
   2216   2215   2217   2218     1  0.0000000  0.0000000  2
   2216   2215   2217   2219     1  0.0000000  0.0000000  2
   2216   2215   2217   2220     1  0.0000000  0.0000000  2
   2217   2218   2223   2224     1  0.0000000  0.6508444  3
   2217   2218   2223   2225     1  0.0000000  0.6508444  3
   2217   2218   2223   2226     1  0.0000000  0.6508444  3
   2219   2217   2218   2223     1  0.0000000  0.6508444  3
   2219   2217   2218   2221     1  0.0000000  0.6508444  3
   2219   2217   2218   2222     1  0.0000000  0.6508444  3
   2220   2217   2218   2223     1  0.0000000  0.6508444  3
   2220   2217   2218   2221     1  0.0000000  0.6508444  3
   2220   2217   2218   2222     1  0.0000000  0.6508444  3
   2221   2218   2223   2224     1  0.0000000  0.6508444  3
   2221   2218   2223   2225     1  0.0000000  0.6508444  3
   2221   2218   2223   2226     1  0.0000000  0.6508444  3
   2222   2218   2223   2224     1  0.0000000  0.6508444  3
   2222   2218   2223   2225     1  0.0000000  0.6508444  3
   2222   2218   2223   2226     1  0.0000000  0.6508444  3
   2227   2229   2230   2233     1  0.0000000  0.6508444  3
   2227   2229   2230   2234     1  0.0000000  0.6508444  3
   2228   2227   2229   2230     1  0.0000000  0.0000000  2
   2228   2227   2229   2231     1  0.0000000  0.0000000  2
   2228   2227   2229   2232     1  0.0000000  0.0000000  2
   2229   2230   2235   2236     1  0.0000000  0.6508444  3
   2229   2230   2235   2237     1  0.0000000  0.6508444  3
   2229   2230   2235   2238     1  0.0000000  0.6508444  3
   2231   2229   2230   2235     1  0.0000000  0.6508444  3
   2231   2229   2230   2233     1  0.0000000  0.6508444  3
   2231   2229   2230   2234     1  0.0000000  0.6508444  3
   2232   2229   2230   2235     1  0.0000000  0.6508444  3
   2232   2229   2230   2233     1  0.0000000  0.6508444  3
   2232   2229   2230   2234     1  0.0000000  0.6508444  3
   2233   2230   2235   2236     1  0.0000000  0.6508444  3
   2233   2230   2235   2237     1  0.0000000  0.6508444  3
   2233   2230   2235   2238     1  0.0000000  0.6508444  3
   2234   2230   2235   2236     1  0.0000000  0.6508444  3
   2234   2230   2235   2237     1  0.0000000  0.6508444  3
   2234   2230   2235   2238     1  0.0000000  0.6508444  3
   2239   2241   2242   2245     1  0.0000000  0.6508444  3
   2239   2241   2242   2246     1  0.0000000  0.6508444  3
   2240   2239   2241   2242     1  0.0000000  0.0000000  2
   2240   2239   2241   2243     1  0.0000000  0.0000000  2
   2240   2239   2241   2244     1  0.0000000  0.0000000  2
   2241   2242   2247   2248     1  0.0000000  0.6508444  3
   2241   2242   2247   2249     1  0.0000000  0.6508444  3
   2241   2242   2247   2250     1  0.0000000  0.6508444  3
   2243   2241   2242   2247     1  0.0000000  0.6508444  3
   2243   2241   2242   2245     1  0.0000000  0.6508444  3
   2243   2241   2242   2246     1  0.0000000  0.6508444  3
   2244   2241   2242   2247     1  0.0000000  0.6508444  3
   2244   2241   2242   2245     1  0.0000000  0.6508444  3
   2244   2241   2242   2246     1  0.0000000  0.6508444  3
   2245   2242   2247   2248     1  0.0000000  0.6508444  3
   2245   2242   2247   2249     1  0.0000000  0.6508444  3
   2245   2242   2247   2250     1  0.0000000  0.6508444  3
   2246   2242   2247   2248     1  0.0000000  0.6508444  3
   2246   2242   2247   2249     1  0.0000000  0.6508444  3
   2246   2242   2247   2250     1  0.0000000  0.6508444  3
   2251   2253   2254   2257     1  0.0000000  0.6508444  3
   2251   2253   2254   2258     1  0.0000000  0.6508444  3
   2252   2251   2253   2254     1  0.0000000  0.0000000  2
   2252   2251   2253   2255     1  0.0000000  0.0000000  2
   2252   2251   2253   2256     1  0.0000000  0.0000000  2
   2253   2254   2259   2260     1  0.0000000  0.6508444  3
   2253   2254   2259   2261     1  0.0000000  0.6508444  3
   2253   2254   2259   2262     1  0.0000000  0.6508444  3
   2255   2253   2254   2259     1  0.0000000  0.6508444  3
   2255   2253   2254   2257     1  0.0000000  0.6508444  3
   2255   2253   2254   2258     1  0.0000000  0.6508444  3
   2256   2253   2254   2259     1  0.0000000  0.6508444  3
   2256   2253   2254   2257     1  0.0000000  0.6508444  3
   2256   2253   2254   2258     1  0.0000000  0.6508444  3
   2257   2254   2259   2260     1  0.0000000  0.6508444  3
   2257   2254   2259   2261     1  0.0000000  0.6508444  3
   2257   2254   2259   2262     1  0.0000000  0.6508444  3
   2258   2254   2259   2260     1  0.0000000  0.6508444  3
   2258   2254   2259   2261     1  0.0000000  0.6508444  3
   2258   2254   2259   2262     1  0.0000000  0.6508444  3
   2263   2265   2266   2269     1  0.0000000  0.6508444  3
   2263   2265   2266   2270     1  0.0000000  0.6508444  3
   2264   2263   2265   2266     1  0.0000000  0.0000000  2
   2264   2263   2265   2267     1  0.0000000  0.0000000  2
   2264   2263   2265   2268     1  0.0000000  0.0000000  2
   2265   2266   2271   2272     1  0.0000000  0.6508444  3
   2265   2266   2271   2273     1  0.0000000  0.6508444  3
   2265   2266   2271   2274     1  0.0000000  0.6508444  3
   2267   2265   2266   2271     1  0.0000000  0.6508444  3
   2267   2265   2266   2269     1  0.0000000  0.6508444  3
   2267   2265   2266   2270     1  0.0000000  0.6508444  3
   2268   2265   2266   2271     1  0.0000000  0.6508444  3
   2268   2265   2266   2269     1  0.0000000  0.6508444  3
   2268   2265   2266   2270     1  0.0000000  0.6508444  3
   2269   2266   2271   2272     1  0.0000000  0.6508444  3
   2269   2266   2271   2273     1  0.0000000  0.6508444  3
   2269   2266   2271   2274     1  0.0000000  0.6508444  3
   2270   2266   2271   2272     1  0.0000000  0.6508444  3
   2270   2266   2271   2273     1  0.0000000  0.6508444  3
   2270   2266   2271   2274     1  0.0000000  0.6508444  3
   2275   2277   2278   2281     1  0.0000000  0.6508444  3
   2275   2277   2278   2282     1  0.0000000  0.6508444  3
   2276   2275   2277   2278     1  0.0000000  0.0000000  2
   2276   2275   2277   2279     1  0.0000000  0.0000000  2
   2276   2275   2277   2280     1  0.0000000  0.0000000  2
   2277   2278   2283   2284     1  0.0000000  0.6508444  3
   2277   2278   2283   2285     1  0.0000000  0.6508444  3
   2277   2278   2283   2286     1  0.0000000  0.6508444  3
   2279   2277   2278   2283     1  0.0000000  0.6508444  3
   2279   2277   2278   2281     1  0.0000000  0.6508444  3
   2279   2277   2278   2282     1  0.0000000  0.6508444  3
   2280   2277   2278   2283     1  0.0000000  0.6508444  3
   2280   2277   2278   2281     1  0.0000000  0.6508444  3
   2280   2277   2278   2282     1  0.0000000  0.6508444  3
   2281   2278   2283   2284     1  0.0000000  0.6508444  3
   2281   2278   2283   2285     1  0.0000000  0.6508444  3
   2281   2278   2283   2286     1  0.0000000  0.6508444  3
   2282   2278   2283   2284     1  0.0000000  0.6508444  3
   2282   2278   2283   2285     1  0.0000000  0.6508444  3
   2282   2278   2283   2286     1  0.0000000  0.6508444  3
   2287   2289   2290   2293     1  0.0000000  0.6508444  3
   2287   2289   2290   2294     1  0.0000000  0.6508444  3
   2288   2287   2289   2290     1  0.0000000  0.0000000  2
   2288   2287   2289   2291     1  0.0000000  0.0000000  2
   2288   2287   2289   2292     1  0.0000000  0.0000000  2
   2289   2290   2295   2296     1  0.0000000  0.6508444  3
   2289   2290   2295   2297     1  0.0000000  0.6508444  3
   2289   2290   2295   2298     1  0.0000000  0.6508444  3
   2291   2289   2290   2295     1  0.0000000  0.6508444  3
   2291   2289   2290   2293     1  0.0000000  0.6508444  3
   2291   2289   2290   2294     1  0.0000000  0.6508444  3
   2292   2289   2290   2295     1  0.0000000  0.6508444  3
   2292   2289   2290   2293     1  0.0000000  0.6508444  3
   2292   2289   2290   2294     1  0.0000000  0.6508444  3
   2293   2290   2295   2296     1  0.0000000  0.6508444  3
   2293   2290   2295   2297     1  0.0000000  0.6508444  3
   2293   2290   2295   2298     1  0.0000000  0.6508444  3
   2294   2290   2295   2296     1  0.0000000  0.6508444  3
   2294   2290   2295   2297     1  0.0000000  0.6508444  3
   2294   2290   2295   2298     1  0.0000000  0.6508444  3
   2299   2301   2302   2305     1  0.0000000  0.6508444  3
   2299   2301   2302   2306     1  0.0000000  0.6508444  3
   2300   2299   2301   2302     1  0.0000000  0.0000000  2
   2300   2299   2301   2303     1  0.0000000  0.0000000  2
   2300   2299   2301   2304     1  0.0000000  0.0000000  2
   2301   2302   2307   2308     1  0.0000000  0.6508444  3
   2301   2302   2307   2309     1  0.0000000  0.6508444  3
   2301   2302   2307   2310     1  0.0000000  0.6508444  3
   2303   2301   2302   2307     1  0.0000000  0.6508444  3
   2303   2301   2302   2305     1  0.0000000  0.6508444  3
   2303   2301   2302   2306     1  0.0000000  0.6508444  3
   2304   2301   2302   2307     1  0.0000000  0.6508444  3
   2304   2301   2302   2305     1  0.0000000  0.6508444  3
   2304   2301   2302   2306     1  0.0000000  0.6508444  3
   2305   2302   2307   2308     1  0.0000000  0.6508444  3
   2305   2302   2307   2309     1  0.0000000  0.6508444  3
   2305   2302   2307   2310     1  0.0000000  0.6508444  3
   2306   2302   2307   2308     1  0.0000000  0.6508444  3
   2306   2302   2307   2309     1  0.0000000  0.6508444  3
   2306   2302   2307   2310     1  0.0000000  0.6508444  3
   2311   2313   2314   2317     1  0.0000000  0.6508444  3
   2311   2313   2314   2318     1  0.0000000  0.6508444  3
   2312   2311   2313   2314     1  0.0000000  0.0000000  2
   2312   2311   2313   2315     1  0.0000000  0.0000000  2
   2312   2311   2313   2316     1  0.0000000  0.0000000  2
   2313   2314   2319   2320     1  0.0000000  0.6508444  3
   2313   2314   2319   2321     1  0.0000000  0.6508444  3
   2313   2314   2319   2322     1  0.0000000  0.6508444  3
   2315   2313   2314   2319     1  0.0000000  0.6508444  3
   2315   2313   2314   2317     1  0.0000000  0.6508444  3
   2315   2313   2314   2318     1  0.0000000  0.6508444  3
   2316   2313   2314   2319     1  0.0000000  0.6508444  3
   2316   2313   2314   2317     1  0.0000000  0.6508444  3
   2316   2313   2314   2318     1  0.0000000  0.6508444  3
   2317   2314   2319   2320     1  0.0000000  0.6508444  3
   2317   2314   2319   2321     1  0.0000000  0.6508444  3
   2317   2314   2319   2322     1  0.0000000  0.6508444  3
   2318   2314   2319   2320     1  0.0000000  0.6508444  3
   2318   2314   2319   2321     1  0.0000000  0.6508444  3
   2318   2314   2319   2322     1  0.0000000  0.6508444  3
   2323   2325   2326   2329     1  0.0000000  0.6508444  3
   2323   2325   2326   2330     1  0.0000000  0.6508444  3
   2324   2323   2325   2326     1  0.0000000  0.0000000  2
   2324   2323   2325   2327     1  0.0000000  0.0000000  2
   2324   2323   2325   2328     1  0.0000000  0.0000000  2
   2325   2326   2331   2332     1  0.0000000  0.6508444  3
   2325   2326   2331   2333     1  0.0000000  0.6508444  3
   2325   2326   2331   2334     1  0.0000000  0.6508444  3
   2327   2325   2326   2331     1  0.0000000  0.6508444  3
   2327   2325   2326   2329     1  0.0000000  0.6508444  3
   2327   2325   2326   2330     1  0.0000000  0.6508444  3
   2328   2325   2326   2331     1  0.0000000  0.6508444  3
   2328   2325   2326   2329     1  0.0000000  0.6508444  3
   2328   2325   2326   2330     1  0.0000000  0.6508444  3
   2329   2326   2331   2332     1  0.0000000  0.6508444  3
   2329   2326   2331   2333     1  0.0000000  0.6508444  3
   2329   2326   2331   2334     1  0.0000000  0.6508444  3
   2330   2326   2331   2332     1  0.0000000  0.6508444  3
   2330   2326   2331   2333     1  0.0000000  0.6508444  3
   2330   2326   2331   2334     1  0.0000000  0.6508444  3
   2335   2337   2338   2341     1  0.0000000  0.6508444  3
   2335   2337   2338   2342     1  0.0000000  0.6508444  3
   2336   2335   2337   2338     1  0.0000000  0.0000000  2
   2336   2335   2337   2339     1  0.0000000  0.0000000  2
   2336   2335   2337   2340     1  0.0000000  0.0000000  2
   2337   2338   2343   2344     1  0.0000000  0.6508444  3
   2337   2338   2343   2345     1  0.0000000  0.6508444  3
   2337   2338   2343   2346     1  0.0000000  0.6508444  3
   2339   2337   2338   2343     1  0.0000000  0.6508444  3
   2339   2337   2338   2341     1  0.0000000  0.6508444  3
   2339   2337   2338   2342     1  0.0000000  0.6508444  3
   2340   2337   2338   2343     1  0.0000000  0.6508444  3
   2340   2337   2338   2341     1  0.0000000  0.6508444  3
   2340   2337   2338   2342     1  0.0000000  0.6508444  3
   2341   2338   2343   2344     1  0.0000000  0.6508444  3
   2341   2338   2343   2345     1  0.0000000  0.6508444  3
   2341   2338   2343   2346     1  0.0000000  0.6508444  3
   2342   2338   2343   2344     1  0.0000000  0.6508444  3
   2342   2338   2343   2345     1  0.0000000  0.6508444  3
   2342   2338   2343   2346     1  0.0000000  0.6508444  3
   2347   2349   2350   2353     1  0.0000000  0.6508444  3
   2347   2349   2350   2354     1  0.0000000  0.6508444  3
   2348   2347   2349   2350     1  0.0000000  0.0000000  2
   2348   2347   2349   2351     1  0.0000000  0.0000000  2
   2348   2347   2349   2352     1  0.0000000  0.0000000  2
   2349   2350   2355   2356     1  0.0000000  0.6508444  3
   2349   2350   2355   2357     1  0.0000000  0.6508444  3
   2349   2350   2355   2358     1  0.0000000  0.6508444  3
   2351   2349   2350   2355     1  0.0000000  0.6508444  3
   2351   2349   2350   2353     1  0.0000000  0.6508444  3
   2351   2349   2350   2354     1  0.0000000  0.6508444  3
   2352   2349   2350   2355     1  0.0000000  0.6508444  3
   2352   2349   2350   2353     1  0.0000000  0.6508444  3
   2352   2349   2350   2354     1  0.0000000  0.6508444  3
   2353   2350   2355   2356     1  0.0000000  0.6508444  3
   2353   2350   2355   2357     1  0.0000000  0.6508444  3
   2353   2350   2355   2358     1  0.0000000  0.6508444  3
   2354   2350   2355   2356     1  0.0000000  0.6508444  3
   2354   2350   2355   2357     1  0.0000000  0.6508444  3
   2354   2350   2355   2358     1  0.0000000  0.6508444  3
   2359   2361   2362   2365     1  0.0000000  0.6508444  3
   2359   2361   2362   2366     1  0.0000000  0.6508444  3
   2360   2359   2361   2362     1  0.0000000  0.0000000  2
   2360   2359   2361   2363     1  0.0000000  0.0000000  2
   2360   2359   2361   2364     1  0.0000000  0.0000000  2
   2361   2362   2367   2368     1  0.0000000  0.6508444  3
   2361   2362   2367   2369     1  0.0000000  0.6508444  3
   2361   2362   2367   2370     1  0.0000000  0.6508444  3
   2363   2361   2362   2367     1  0.0000000  0.6508444  3
   2363   2361   2362   2365     1  0.0000000  0.6508444  3
   2363   2361   2362   2366     1  0.0000000  0.6508444  3
   2364   2361   2362   2367     1  0.0000000  0.6508444  3
   2364   2361   2362   2365     1  0.0000000  0.6508444  3
   2364   2361   2362   2366     1  0.0000000  0.6508444  3
   2365   2362   2367   2368     1  0.0000000  0.6508444  3
   2365   2362   2367   2369     1  0.0000000  0.6508444  3
   2365   2362   2367   2370     1  0.0000000  0.6508444  3
   2366   2362   2367   2368     1  0.0000000  0.6508444  3
   2366   2362   2367   2369     1  0.0000000  0.6508444  3
   2366   2362   2367   2370     1  0.0000000  0.6508444  3
     10     51     52     67     4  180.0000771  4.6024000  2
     12     77     78     93     4  180.0000771  4.6024000  2
     14    103    104    119     4  180.0000771  4.6024000  2
     16    129    130    145     4  180.0000771  4.6024000  2
     47    155    156    171     4  180.0000771  4.6024000  2
     49    181    182    197     4  180.0000771  4.6024000  2
     73    207    208    223     4  180.0000771  4.6024000  2
     75    233    234    249     4  180.0000771  4.6024000  2
     99    259    260    275     4  180.0000771  4.6024000  2
    101    285    286    301     4  180.0000771  4.6024000  2
    125    311    312    327     4  180.0000771  4.6024000  2
    127    337    338    353     4  180.0000771  4.6024000  2
    151    363    364    379     4  180.0000771  4.6024000  2
    153    389    390    405     4  180.0000771  4.6024000  2
    177    415    416    431     4  180.0000771  4.6024000  2
    179    441    442    457     4  180.0000771  4.6024000  2
    203    467    468    483     4  180.0000771  4.6024000  2
    205    493    494    509     4  180.0000771  4.6024000  2
    229    519    520    535     4  180.0000771  4.6024000  2
    231    545    546    561     4  180.0000771  4.6024000  2
    255    571    572    587     4  180.0000771  4.6024000  2
    257    597    598    613     4  180.0000771  4.6024000  2
    281    623    624    639     4  180.0000771  4.6024000  2
    283    649    650    665     4  180.0000771  4.6024000  2
    307    675    676    691     4  180.0000771  4.6024000  2
    309    701    702    717     4  180.0000771  4.6024000  2
    333    727    728    743     4  180.0000771  4.6024000  2
    335    753    754    769     4  180.0000771  4.6024000  2
    359    779    780    795     4  180.0000771  4.6024000  2
    361    805    806    821     4  180.0000771  4.6024000  2
    385    831    832    847     4  180.0000771  4.6024000  2
    387    857    858    873     4  180.0000771  4.6024000  2
    411    883    884    899     4  180.0000771  4.6024000  2
    413    909    910    925     4  180.0000771  4.6024000  2
    437    935    936    951     4  180.0000771  4.6024000  2
    439    961    962    977     4  180.0000771  4.6024000  2
    463    987    988   1003     4  180.0000771  4.6024000  2
    465   1013   1014   1029     4  180.0000771  4.6024000  2
    489   1039   1040   1055     4  180.0000771  4.6024000  2
    491   1065   1066   1081     4  180.0000771  4.6024000  2
    515   1091   1092   1107     4  180.0000771  4.6024000  2
    517   1117   1118   1133     4  180.0000771  4.6024000  2
    541   1143   1144   1159     4  180.0000771  4.6024000  2
    543   1169   1170   1185     4  180.0000771  4.6024000  2
    567   1195   1196   1211     4  180.0000771  4.6024000  2
    569   1221   1222   1237     4  180.0000771  4.6024000  2
    593   1247   1248   1263     4  180.0000771  4.6024000  2
    595   1273   1274   1289     4  180.0000771  4.6024000  2
    619   1299   1300   1315     4  180.0000771  4.6024000  2
    621   1325   1326   1341     4  180.0000771  4.6024000  2
    645   1351   1352   1367     4  180.0000771  4.6024000  2
    647   1377   1378   1393     4  180.0000771  4.6024000  2
    671   1403   1404   1419     4  180.0000771  4.6024000  2
    673   1429   1430   1445     4  180.0000771  4.6024000  2
    697   1455   1456   1471     4  180.0000771  4.6024000  2
    699   1481   1482   1497     4  180.0000771  4.6024000  2
    723   1507   1508   1523     4  180.0000771  4.6024000  2
    725   1533   1534   1549     4  180.0000771  4.6024000  2
    749   1559   1560   1575     4  180.0000771  4.6024000  2
    751   1585   1586   1601     4  180.0000771  4.6024000  2
    775   1605   1603   1604     4  180.0000771  4.6024000  2
    777   1617   1615   1616     4  180.0000771  4.6024000  2
    801   1629   1627   1628     4  180.0000771  4.6024000  2
    803   1641   1639   1640     4  180.0000771  4.6024000  2
    827   1653   1651   1652     4  180.0000771  4.6024000  2
    829   1665   1663   1664     4  180.0000771  4.6024000  2
    853   1677   1675   1676     4  180.0000771  4.6024000  2
    855   1689   1687   1688     4  180.0000771  4.6024000  2
    879   1701   1699   1700     4  180.0000771  4.6024000  2
    881   1713   1711   1712     4  180.0000771  4.6024000  2
    905   1725   1723   1724     4  180.0000771  4.6024000  2
    907   1737   1735   1736     4  180.0000771  4.6024000  2
    931   1749   1747   1748     4  180.0000771  4.6024000  2
    933   1761   1759   1760     4  180.0000771  4.6024000  2
    957   1773   1771   1772     4  180.0000771  4.6024000  2
    959   1785   1783   1784     4  180.0000771  4.6024000  2
    983   1797   1795   1796     4  180.0000771  4.6024000  2
    985   1809   1807   1808     4  180.0000771  4.6024000  2
   1009   1821   1819   1820     4  180.0000771  4.6024000  2
   1011   1833   1831   1832     4  180.0000771  4.6024000  2
   1035   1845   1843   1844     4  180.0000771  4.6024000  2
   1037   1857   1855   1856     4  180.0000771  4.6024000  2
   1061   1869   1867   1868     4  180.0000771  4.6024000  2
   1063   1881   1879   1880     4  180.0000771  4.6024000  2
   1087   1893   1891   1892     4  180.0000771  4.6024000  2
   1089   1905   1903   1904     4  180.0000771  4.6024000  2
   1113   1917   1915   1916     4  180.0000771  4.6024000  2
   1115   1929   1927   1928     4  180.0000771  4.6024000  2
   1139   1941   1939   1940     4  180.0000771  4.6024000  2
   1141   1953   1951   1952     4  180.0000771  4.6024000  2
   1165   1965   1963   1964     4  180.0000771  4.6024000  2
   1167   1977   1975   1976     4  180.0000771  4.6024000  2
   1191   1989   1987   1988     4  180.0000771  4.6024000  2
   1193   2001   1999   2000     4  180.0000771  4.6024000  2
   1217   2013   2011   2012     4  180.0000771  4.6024000  2
   1219   2025   2023   2024     4  180.0000771  4.6024000  2
   1243   2037   2035   2036     4  180.0000771  4.6024000  2
   1245   2049   2047   2048     4  180.0000771  4.6024000  2
   1269   2061   2059   2060     4  180.0000771  4.6024000  2
   1271   2073   2071   2072     4  180.0000771  4.6024000  2
   1295   2085   2083   2084     4  180.0000771  4.6024000  2
   1297   2097   2095   2096     4  180.0000771  4.6024000  2
   1321   2109   2107   2108     4  180.0000771  4.6024000  2
   1323   2121   2119   2120     4  180.0000771  4.6024000  2
   1347   2133   2131   2132     4  180.0000771  4.6024000  2
   1349   2145   2143   2144     4  180.0000771  4.6024000  2
   1373   2157   2155   2156     4  180.0000771  4.6024000  2
   1375   2169   2167   2168     4  180.0000771  4.6024000  2
   1399   2181   2179   2180     4  180.0000771  4.6024000  2
   1401   2193   2191   2192     4  180.0000771  4.6024000  2
   1425   2205   2203   2204     4  180.0000771  4.6024000  2
   1427   2217   2215   2216     4  180.0000771  4.6024000  2
   1451   2229   2227   2228     4  180.0000771  4.6024000  2
   1453   2241   2239   2240     4  180.0000771  4.6024000  2
   1477   2253   2251   2252     4  180.0000771  4.6024000  2
   1479   2265   2263   2264     4  180.0000771  4.6024000  2
   1503   2277   2275   2276     4  180.0000771  4.6024000  2
   1505   2289   2287   2288     4  180.0000771  4.6024000  2
   1529   2301   2299   2300     4  180.0000771  4.6024000  2
   1531   2313   2311   2312     4  180.0000771  4.6024000  2
   1555   2325   2323   2324     4  180.0000771  4.6024000  2
   1557   2337   2335   2336     4  180.0000771  4.6024000  2
   1581   2349   2347   2348     4  180.0000771  4.6024000  2
   1583   2361   2359   2360     4  180.0000771  4.6024000  2

;[ system ]
;; Name
;Generic title
;
;[ molecules ]
;; Compound       #mols
;system1              1
